 argument  1 = metagga_li4h4_1_tpss_tpss.nw
All connections between all procs tested: SUCCESS
 


============================== echo of input deck ==============================
echo
start metagga_dat
geometry noautosym
   li        -0.91515825    -1.07210472    -0.90562941
   h         -0.91591765    -0.90670004     0.88759515
   h         -0.29962839     1.27515914    -0.28845749
   h          0.87878734    -0.89504261    -0.93360279
   li         1.22182214     0.75373418    -1.22261459
   li         0.87097426    -1.13269424     0.85448224
   li        -1.20238464     0.74087268     1.24480228
   h          0.36150521     1.23677562     0.36342460
end
charge +1

basis
  * library "6-311++G(2d,2p)"
end

dft
  direct
  odft
  mult 2
  xc xtpss03 ctpss03
  maxiter 100
end

driver
  clear
  maxiter 100
end

task dft optimize
task dft frequencies numerical
================================================================================


                                         
                                         
 
 
              Northwest Computational Chemistry Package (NWChem) 6.5
              ------------------------------------------------------
 
 
                    Environmental Molecular Sciences Laboratory
                       Pacific Northwest National Laboratory
                                Richland, WA 99352
 
                              Copyright (c) 1994-2013
                       Pacific Northwest National Laboratory
                            Battelle Memorial Institute
 
             NWChem is an open-source computational chemistry package
                        distributed under the terms of the
                      Educational Community License (ECL) 2.0
             A copy of the license is included with this distribution
                              in the LICENSE.TXT file
 
                                  ACKNOWLEDGMENT
                                  --------------

            This software and its documentation were developed at the
            EMSL at Pacific Northwest National Laboratory, a multiprogram
            national laboratory, operated for the U.S. Department of Energy
            by Battelle under Contract Number DE-AC05-76RL01830. Support
            for this work was provided by the Department of Energy Office
            of Biological and Environmental Research, Office of Basic
            Energy Sciences, and the Office of Advanced Scientific Computing.


           Job information
           ---------------

    hostname        = arcen
    program         = /home/d3y133/nwchem-dev/nwchem-dev-2015-01-16/bin/LINUX64/nwchem
    date            = Tue Feb  3 12:50:54 2015

    compiled        = Mon_Feb_02_10:11:44_2015
    source          = /home/d3y133/nwchem-dev/nwchem-dev-2015-01-16
    nwchem branch   = Development
    nwchem revision = 26704
    ga revision     = 10514
    input           = metagga_li4h4_1_tpss_tpss.nw
    prefix          = metagga_dat.
    data base       = /home/d3y133/nwchem-dev/nwchem-trunk-nonwad/QA/scratchdir/metagga_dat.db
    status          = startup
    nproc           =        4
    time left       =     -1s



           Memory information
           ------------------

    heap     =   13107196 doubles =    100.0 Mbytes
    stack    =   13107201 doubles =    100.0 Mbytes
    global   =   26214400 doubles =    200.0 Mbytes (distinct from heap & stack)
    total    =   52428797 doubles =    400.0 Mbytes
    verify   = yes
    hardfail = no 


           Directory information
           ---------------------
 
  0 permanent = /home/d3y133/nwchem-dev/nwchem-trunk-nonwad/QA/scratchdir
  0 scratch   = /home/d3y133/nwchem-dev/nwchem-trunk-nonwad/QA/scratchdir
 
 
 
 
                                NWChem Input Module
                                -------------------
 
 

 Scaling coordinates for geometry "geometry" by  1.889725989
 (inverse scale =  0.529177249)


          ------
          auto-z
          ------
  autoz: excessive number of variables                    202
                    18

 AUTOZ failed to generate good internal coordinates.
 Cartesian coordinates will be used in optimizations.

 
 
                             Geometry "geometry" -> ""
                             -------------------------
 
 Output coordinates in angstroms (scale by  1.889725989 to convert to a.u.)
 
  No.       Tag          Charge          X              Y              Z
 ---- ---------------- ---------- -------------- -------------- --------------
    1 li                   3.0000    -0.91206494    -0.98333071    -0.90200947
    2 h                    1.0000    -0.91282434    -0.81792603     0.89121509
    3 h                    1.0000    -0.29653508     1.36393315    -0.28483755
    4 h                    1.0000     0.88188065    -0.80626860    -0.92998285
    5 li                   3.0000     1.22491545     0.84250819    -1.21899465
    6 li                   3.0000     0.87406757    -1.04392023     0.85810218
    7 li                   3.0000    -1.19929133     0.82964669     1.24842222
    8 h                    1.0000     0.36459852     1.32554963     0.36704454
 
      Atomic Mass 
      ----------- 
 
      li                 7.016000
      h                  1.007825
 

 Effective nuclear repulsion energy (a.u.)      23.7025735959

            Nuclear Dipole moment (a.u.) 
            ----------------------------
        X                 Y               Z
 ---------------- ---------------- ----------------
    -0.0000000000     0.0000000000     0.0000000000
 
 
            XYZ format geometry
            -------------------
     8
 geometry
 li                   -0.91206494    -0.98333071    -0.90200947
 h                    -0.91282434    -0.81792603     0.89121509
 h                    -0.29653508     1.36393315    -0.28483755
 h                     0.88188065    -0.80626860    -0.92998285
 li                    1.22491545     0.84250819    -1.21899465
 li                    0.87406757    -1.04392023     0.85810218
 li                   -1.19929133     0.82964669     1.24842222
 h                     0.36459852     1.32554963     0.36704454
 
 ==============================================================================
                                internuclear distances
 ------------------------------------------------------------------------------
       center one      |      center two      | atomic units |  angstroms
 ------------------------------------------------------------------------------
    5 li               |   4 h                |     3.22898  |     1.70870
    6 li               |   1 li               |     4.74014  |     2.50837
    7 li               |   2 h                |     3.23146  |     1.71002
 ------------------------------------------------------------------------------
                         number of included internuclear distances:          3
 ==============================================================================



  library name resolved from: environment
  library file name is: <
 /home/d3y133/nwchem-dev/nwchem-trunk-nonwad/QA/../src/basis/libraries/>
  


 Summary of "ao basis" -> "" (cartesian)
 ------------------------------------------------------------------------------
       Tag                 Description            Shells   Functions and Types
 ---------------- ------------------------------  ------  ---------------------
 *                      6-311++G(2d,2p)               on all atoms 


 
  Deleted DRIVER restart files 
 
 
 
                           NWChem Geometry Optimization
                           ----------------------------
 
 
 maximum gradient threshold         (gmax) =   0.000450
 rms gradient threshold             (grms) =   0.000300
 maximum cartesian step threshold   (xmax) =   0.001800
 rms cartesian step threshold       (xrms) =   0.001200
 fixed trust radius                (trust) =   0.300000
 maximum step size to saddle      (sadstp) =   0.100000
 energy precision                  (eprec) =   5.0D-06
 maximum number of steps          (nptopt) =  100
 initial hessian option           (inhess) =    0
 line search option               (linopt) =    1
 hessian update option            (modupd) =    1
 saddle point option              (modsad) =    0
 initial eigen-mode to follow     (moddir) =    0
 initial variable to follow       (vardir) =    0
 follow first negative mode     (firstneg) =    T
 apply conjugacy                    (opcg) =    F
 source of zmatrix                         =           


          -------------------
          Energy Minimization
          -------------------

 
 Using diagonal initial Hessian 

          --------
          Step   0
          --------
 
 
                         Geometry "geometry" -> "geometry"
                         ---------------------------------
 
 Output coordinates in angstroms (scale by  1.889725989 to convert to a.u.)
 
  No.       Tag          Charge          X              Y              Z
 ---- ---------------- ---------- -------------- -------------- --------------
    1 li                   3.0000    -0.91206494    -0.98333071    -0.90200947
    2 h                    1.0000    -0.91282434    -0.81792603     0.89121509
    3 h                    1.0000    -0.29653508     1.36393315    -0.28483755
    4 h                    1.0000     0.88188065    -0.80626860    -0.92998285
    5 li                   3.0000     1.22491545     0.84250819    -1.21899465
    6 li                   3.0000     0.87406757    -1.04392023     0.85810218
    7 li                   3.0000    -1.19929133     0.82964669     1.24842222
    8 h                    1.0000     0.36459852     1.32554963     0.36704454
 
      Atomic Mass 
      ----------- 
 
      li                 7.016000
      h                  1.007825
 

 Effective nuclear repulsion energy (a.u.)      23.7025735959

            Nuclear Dipole moment (a.u.) 
            ----------------------------
        X                 Y               Z
 ---------------- ---------------- ----------------
    -0.0000000000     0.0000000000     0.0000000000
 
 
                                 NWChem DFT Module
                                 -----------------
 
 
                      Basis "ao basis" -> "ao basis" (cartesian)
                      -----
  li (Lithium)
  ------------
            Exponent  Coefficients 
       -------------- ---------------------------------------------------------
  1 S  9.00460000E+02  0.002287
  1 S  1.34433000E+02  0.017635
  1 S  3.04365000E+01  0.087343
  1 S  8.62639000E+00  0.280977
  1 S  2.48332000E+00  0.658741
  1 S  3.03179000E-01  0.118712
 
  2 S  4.86890000E+00  0.093329
  2 S  8.56924000E-01  0.943045
  2 S  2.43227000E-01 -0.002798
 
  3 P  4.86890000E+00  0.032766
  3 P  8.56924000E-01  0.159792
  3 P  2.43227000E-01  0.885667
 
  4 S  6.35070000E-02  1.000000
 
  5 P  6.35070000E-02  1.000000
 
  6 S  2.43683000E-02  1.000000
 
  7 P  2.43683000E-02  1.000000
 
  8 S  7.40000000E-03  1.000000
 
  9 P  7.40000000E-03  1.000000
 
 10 D  4.00000000E-01  1.000000
 
 11 D  1.00000000E-01  1.000000
 
  h (Hydrogen)
  ------------
            Exponent  Coefficients 
       -------------- ---------------------------------------------------------
  1 S  3.38650000E+01  0.025494
  1 S  5.09479000E+00  0.190373
  1 S  1.15879000E+00  0.852161
 
  2 S  3.25840000E-01  1.000000
 
  3 S  1.02741000E-01  1.000000
 
  4 S  3.60000000E-02  1.000000
 
  5 P  1.50000000E+00  1.000000
 
  6 P  3.75000000E-01  1.000000
 


 Summary of "ao basis" -> "ao basis" (cartesian)
 ------------------------------------------------------------------------------
       Tag                 Description            Shells   Functions and Types
 ---------------- ------------------------------  ------  ---------------------
 li                     6-311++G(2d,2p)             11       29   5s4p2d
 h                      6-311++G(2d,2p)              6       10   4s2p




 Summary of "ao basis" -> "ao basis" (cartesian)
 ------------------------------------------------------------------------------
       Tag                 Description            Shells   Functions and Types
 ---------------- ------------------------------  ------  ---------------------
 li                     6-311++G(2d,2p)             11       29   5s4p2d
 h                      6-311++G(2d,2p)              6       10   4s2p


  Caching 1-el integrals 
 
            General Information
            -------------------
          SCF calculation type: DFT
          Wavefunction type:  spin polarized.
          No. of atoms     :     8
          No. of electrons :    15
           Alpha electrons :     8
            Beta electrons :     7
          Charge           :     1
          Spin multiplicity:     2
          Use of symmetry is: off; symmetry adaption is: off
          Maximum number of iterations: 100
          This is a Direct SCF calculation.
          AO basis - number of functions:   156
                     number of shells:    68
          Convergence on energy requested: 1.00D-06
          Convergence on density requested: 1.00D-05
          Convergence on gradient requested: 5.00D-04
 
              XC Information
              --------------
                  TPSS metaGGA Exchange Functional  1.000          
             TPSS03 metaGGA Correlation Functional  1.000          
 
             Grid Information
             ----------------
          Grid used for XC integration:  medium    
          Radial quadrature: Mura-Knowles        
          Angular quadrature: Lebedev. 
          Tag              B.-S. Rad. Rad. Pts. Rad. Cut. Ang. Pts.
          ---              ---------- --------- --------- ---------
          li                  1.45       49          24.0       434
          h                   0.35       45          17.0       434
          Grid pruning is: on 
          Number of quadrature shells:   376
          Spatial weights used:  Erf1
 
          Convergence Information
          -----------------------
          Convergence aids based upon iterative change in 
          total energy or number of iterations. 
          Levelshifting, if invoked, occurs when the 
          HOMO/LUMO gap drops below (HL_TOL): 1.00D-02
          DIIS, if invoked, will attempt to extrapolate 
          using up to (NFOCK): 10 stored Fock matrices.

                    Damping( 0%)  Levelshifting(0.5)       DIIS
                  --------------- ------------------- ---------------
          dE  on:    start            ASAP                start   
          dE off:    2 iters        100 iters           100 iters 

 
      Screening Tolerance Information
      -------------------------------
          Density screening/tol_rho: 1.00D-10
          AO Gaussian exp screening on grid/accAOfunc:  14
          CD Gaussian exp screening on grid/accCDfunc:  20
          XC Gaussian exp screening on grid/accXCfunc:  20
          Schwarz screening/accCoul: 1.00D-08

 
      Superposition of Atomic Density Guess
      -------------------------------------
 
 Sum of atomic energies:         -31.72729480

 Renormalizing density from      16.00 to     15
 
      Non-variational initial energy
      ------------------------------

 Total energy =     -30.284544
 1-e energy   =     -81.969354
 2-e energy   =      27.982236
 HOMO         =      -0.316863
 LUMO         =      -0.230633
 
   Time after variat. SCF:      0.4
   Time prior to 1st pass:      0.4

 Grid_pts file          = /home/d3y133/nwchem-dev/nwchem-trunk-nonwad/QA/scratchdir/metagga_dat.gridpts.0
 Record size in doubles =  12289        No. of grid_pts per rec  =   3070
 Max. records in memory =     16        Max. recs in file   = 253312716

 Grid integrated density:      14.999979286860
 Requested integration accuracy:   0.10E-05

           Memory utilization after 1st SCF pass: 
           Heap Space remaining (MW):       12.88            12881700
          Stack Space remaining (MW):       13.11            13105636

   convergence    iter        energy       DeltaE   RMS-Dens  Diis-err    time
 ---------------- ----- ----------------- --------- --------- ---------  ------
 d= 0,ls=0.0,diis     1    -32.2804155970 -5.60D+01  5.72D-03  4.12D-02     4.9
                                                     2.79D-03  3.20D-02
 Grid integrated density:      14.999983536484
 Requested integration accuracy:   0.10E-05
 d= 0,ls=0.0,diis     2    -32.3107024956 -3.03D-02  1.99D-03  4.25D-03     9.3
                                                     1.10D-03  3.63D-03
 Grid integrated density:      14.999982102721
 Requested integration accuracy:   0.10E-05
 d= 0,ls=0.0,diis     3    -32.3145719600 -3.87D-03  6.96D-04  2.95D-04    14.0
                                                     2.17D-04  2.49D-04
 Grid integrated density:      14.999982134111
 Requested integration accuracy:   0.10E-05
 d= 0,ls=0.0,diis     4    -32.3148900358 -3.18D-04  1.33D-04  8.40D-06    18.7
                                                     5.16D-05  6.13D-06
 Grid integrated density:      14.999982251550
 Requested integration accuracy:   0.10E-05
 d= 0,ls=0.0,diis     5    -32.3148979025 -7.87D-06  2.29D-05  5.07D-07    23.4
                                                     1.14D-05  4.80D-07
 Grid integrated density:      14.999982223799
 Requested integration accuracy:   0.10E-05
 d= 0,ls=0.0,diis     6    -32.3148985012 -5.99D-07  5.76D-06  2.60D-08    28.2
                                                     1.56D-06  1.27D-08


         Total DFT energy =      -32.314898501190
      One electron energy =      -86.456504610589
           Coulomb energy =       39.326350580595
    Exchange-Corr. energy =       -8.887318067114
 Nuclear repulsion energy =       23.702573595919

 Numeric. integr. density =       14.999982223799

     Total iterative time =     27.7s


 
                    DFT Final Alpha Molecular Orbital Analysis
                    ------------------------------------------
 
 Vector    1  Occ=1.000000D+00  E=-2.063014D+00
              MO Center=  1.2D+00,  8.4D-01, -1.2D+00, r^2= 2.9D-01
   Bfn.  Coefficient  Atom+Function         Bfn.  Coefficient  Atom+Function  
  ----- ------------  ---------------      ----- ------------  ---------------
    60      0.614292  5 Li s                 61      0.426027  5 Li s          
 
 Vector    2  Occ=1.000000D+00  E=-2.062804D+00
              MO Center= -1.2D+00,  8.3D-01,  1.2D+00, r^2= 2.9D-01
   Bfn.  Coefficient  Atom+Function         Bfn.  Coefficient  Atom+Function  
  ----- ------------  ---------------      ----- ------------  ---------------
   118      0.614295  7 Li s                119      0.426037  7 Li s          
 
 Vector    3  Occ=1.000000D+00  E=-2.042730D+00
              MO Center= -3.6D-01, -1.0D+00, -3.5D-01, r^2= 1.5D+00
   Bfn.  Coefficient  Atom+Function         Bfn.  Coefficient  Atom+Function  
  ----- ------------  ---------------      ----- ------------  ---------------
     1      0.512829  1 Li s                  2      0.355932  1 Li s          
    89      0.344978  6 Li s                 90      0.239551  6 Li s          
 
 Vector    4  Occ=1.000000D+00  E=-2.041840D+00
              MO Center=  3.2D-01, -1.0D+00,  3.1D-01, r^2= 1.5D+00
   Bfn.  Coefficient  Atom+Function         Bfn.  Coefficient  Atom+Function  
  ----- ------------  ---------------      ----- ------------  ---------------
    89      0.513280  6 Li s                 90      0.355877  6 Li s          
     1     -0.345640  1 Li s                  2     -0.239531  1 Li s          
 
 Vector    5  Occ=1.000000D+00  E=-5.923601D-01
              MO Center=  3.1D-02,  1.2D+00,  3.8D-02, r^2= 1.0D+00
   Bfn.  Coefficient  Atom+Function         Bfn.  Coefficient  Atom+Function  
  ----- ------------  ---------------      ----- ------------  ---------------
    41      0.269876  3 H  s                148      0.269898  8 H  s          
    40      0.168300  3 H  s                147      0.168220  8 H  s          
 
 Vector    6  Occ=1.000000D+00  E=-4.205551D-01
              MO Center= -1.6D-02, -6.7D-01, -1.3D-02, r^2= 2.6D+00
   Bfn.  Coefficient  Atom+Function         Bfn.  Coefficient  Atom+Function  
  ----- ------------  ---------------      ----- ------------  ---------------
    31      0.234704  2 H  s                 51      0.233714  4 H  s          
     6      0.229485  1 Li s                 94      0.228367  6 Li s          
    32      0.177829  2 H  s                 52      0.177436  4 H  s          
 
 Vector    7  Occ=1.000000D+00  E=-3.839643D-01
              MO Center= -1.1D-02, -7.3D-01, -2.1D-02, r^2= 2.9D+00
   Bfn.  Coefficient  Atom+Function         Bfn.  Coefficient  Atom+Function  
  ----- ------------  ---------------      ----- ------------  ---------------
    31      0.258330  2 H  s                 51     -0.259069  4 H  s          
    32      0.198247  2 H  s                 52     -0.198935  4 H  s          
    65     -0.182685  5 Li s                123      0.181773  7 Li s          
 
 Vector    8  Occ=1.000000D+00  E=-2.769699D-01
              MO Center=  1.7D-02,  9.0D-01,  2.3D-02, r^2= 3.9D+00
   Bfn.  Coefficient  Atom+Function         Bfn.  Coefficient  Atom+Function  
  ----- ------------  ---------------      ----- ------------  ---------------
   149     -0.442182  8 H  s                 42      0.439600  3 H  s          
   102      0.344829  6 Li s                 14     -0.334231  1 Li s          
    94     -0.273577  6 Li s                  6      0.264858  1 Li s          
    41      0.187026  3 H  s                148     -0.187625  8 H  s          
    96     -0.186295  6 Li py                 8      0.180876  1 Li py         
 
 Vector    9  Occ=0.000000D+00  E=-1.862948D-01
              MO Center=  7.1D-03,  6.2D-01,  9.3D-03, r^2= 1.0D+01
   Bfn.  Coefficient  Atom+Function         Bfn.  Coefficient  Atom+Function  
  ----- ------------  ---------------      ----- ------------  ---------------
   102      0.459730  6 Li s                 14      0.439356  1 Li s          
    73     -0.427427  5 Li s                131     -0.428446  7 Li s          
    65      0.309995  5 Li s                123      0.309626  7 Li s          
    98      0.306450  6 Li s                 10      0.297118  1 Li s          
    95      0.169761  6 Li px                97      0.168488  6 Li pz         
 
 Vector   10  Occ=0.000000D+00  E=-1.704906D-01
              MO Center=  3.6D-02,  1.5D+00,  3.3D-02, r^2= 8.8D+00
   Bfn.  Coefficient  Atom+Function         Bfn.  Coefficient  Atom+Function  
  ----- ------------  ---------------      ----- ------------  ---------------
    69      0.832835  5 Li s                127     -0.834468  7 Li s          
    65      0.697736  5 Li s                123     -0.697869  7 Li s          
    73     -0.210912  5 Li s                131      0.211923  7 Li s          
    33      0.182136  2 H  s                 53     -0.180268  4 H  s          
 
 Vector   11  Occ=0.000000D+00  E=-1.611487D-01
              MO Center= -1.1D-02, -1.3D+00, -1.5D-02, r^2= 6.4D+00
   Bfn.  Coefficient  Atom+Function         Bfn.  Coefficient  Atom+Function  
  ----- ------------  ---------------      ----- ------------  ---------------
     8      0.367811  1 Li py                96      0.367414  6 Li py         
    53     -0.304851  4 H  s                 33     -0.302521  2 H  s          
    43     -0.252718  3 H  s                 65      0.221470  5 Li s          
   123      0.217534  7 Li s                150     -0.202526  8 H  s          
    42     -0.194713  3 H  s                 10      0.166914  1 Li s          
 
 Vector   12  Occ=0.000000D+00  E=-1.567718D-01
              MO Center= -2.8D-03,  1.8D-01, -1.1D-02, r^2= 8.4D+00
   Bfn.  Coefficient  Atom+Function         Bfn.  Coefficient  Atom+Function  
  ----- ------------  ---------------      ----- ------------  ---------------
   124     -0.276000  7 Li px                66      0.273357  5 Li px         
    68      0.271489  5 Li pz               126     -0.269264  7 Li pz         
    97     -0.197525  6 Li pz                 9      0.196178  1 Li pz         
    95      0.195751  6 Li px                 7     -0.194055  1 Li px         
 
 Vector   13  Occ=0.000000D+00  E=-1.506412D-01
              MO Center= -3.5D-01, -9.4D-01, -3.4D-01, r^2= 9.7D+00
   Bfn.  Coefficient  Atom+Function         Bfn.  Coefficient  Atom+Function  
  ----- ------------  ---------------      ----- ------------  ---------------
    10      1.127331  1 Li s                 98     -0.887543  6 Li s          
    43     -0.837939  3 H  s                150      0.835708  8 H  s          
     6      0.569162  1 Li s                149      0.489331  8 H  s          
    42     -0.481337  3 H  s                 94     -0.447403  6 Li s          
    14      0.175213  1 Li s                148      0.152983  8 H  s          
 
 Vector   14  Occ=0.000000D+00  E=-1.477990D-01
              MO Center=  3.1D-01,  1.6D-01,  3.2D-01, r^2= 1.2D+01
   Bfn.  Coefficient  Atom+Function         Bfn.  Coefficient  Atom+Function  
  ----- ------------  ---------------      ----- ------------  ---------------
    98      1.116306  6 Li s                 10      0.841992  1 Li s          
   127     -0.703058  7 Li s                 69     -0.694763  5 Li s          
    94      0.480021  6 Li s                123     -0.349321  7 Li s          
    65     -0.346184  5 Li s                  6      0.336374  1 Li s          
    53     -0.246579  4 H  s                 33     -0.244530  2 H  s          
 
 Vector   15  Occ=0.000000D+00  E=-1.046491D-01
              MO Center=  1.4D-01,  1.1D+00, -8.2D-02, r^2= 1.5D+01
   Bfn.  Coefficient  Atom+Function         Bfn.  Coefficient  Atom+Function  
  ----- ------------  ---------------      ----- ------------  ---------------
    98      0.999635  6 Li s                 10      0.985692  1 Li s          
   127     -0.652687  7 Li s                 69     -0.626468  5 Li s          
    53     -0.620180  4 H  s                 33     -0.615691  2 H  s          
   131      0.420440  7 Li s                123     -0.365341  7 Li s          
    71      0.338387  5 Li py                14     -0.329790  1 Li s          
 
 Vector   16  Occ=0.000000D+00  E=-1.030377D-01
              MO Center= -1.1D-01, -3.9D-02,  1.1D-01, r^2= 1.5D+01
   Bfn.  Coefficient  Atom+Function         Bfn.  Coefficient  Atom+Function  
  ----- ------------  ---------------      ----- ------------  ---------------
    73      1.735411  5 Li s                131     -1.718262  7 Li s          
    65     -0.479752  5 Li s                123      0.452790  7 Li s          
    68     -0.384774  5 Li pz               124      0.381639  7 Li px         
   126     -0.381235  7 Li pz                66      0.369675  5 Li px         
    69     -0.344404  5 Li s                127      0.293364  7 Li s          
 
 Vector   17  Occ=0.000000D+00  E=-8.446209D-02
              MO Center=  1.8D-02,  1.6D+00,  2.4D-02, r^2= 2.3D+01
   Bfn.  Coefficient  Atom+Function         Bfn.  Coefficient  Atom+Function  
  ----- ------------  ---------------      ----- ------------  ---------------
    14      4.486334  1 Li s                102     -4.486315  6 Li s          
    98      1.734499  6 Li s                 10     -1.691581  1 Li s          
   150     -0.639891  8 H  s                 43      0.603943  3 H  s          
    15      0.546492  1 Li px                17      0.541629  1 Li pz         
   103      0.531458  6 Li px               105      0.521377  6 Li pz         
 
 Vector   18  Occ=0.000000D+00  E=-6.861936D-02
              MO Center= -3.9D-02, -1.3D+00, -4.5D-02, r^2= 2.0D+01
   Bfn.  Coefficient  Atom+Function         Bfn.  Coefficient  Atom+Function  
  ----- ------------  ---------------      ----- ------------  ---------------
    33      0.722317  2 H  s                 53     -0.723101  4 H  s          
   131     -0.695735  7 Li s                 73      0.691470  5 Li s          
    69      0.531157  5 Li s                127     -0.526562  7 Li s          
    13     -0.480743  1 Li pz                72      0.479841  5 Li pz         
   130      0.479674  7 Li pz               128     -0.474803  7 Li px         
 
 Vector   19  Occ=0.000000D+00  E=-6.622386D-02
              MO Center=  2.9D-02,  7.0D-01,  3.0D-02, r^2= 4.4D+01
   Bfn.  Coefficient  Atom+Function         Bfn.  Coefficient  Atom+Function  
  ----- ------------  ---------------      ----- ------------  ---------------
   102      0.428605  6 Li s                 14      0.399414  1 Li s          
    73      0.333505  5 Li s                131      0.322635  7 Li s          
    43     -0.295273  3 H  s                150     -0.261110  8 H  s          
    94     -0.242175  6 Li s                  6     -0.240700  1 Li s          
    65     -0.227686  5 Li s                123     -0.227679  7 Li s          
 
 Vector   20  Occ=0.000000D+00  E=-6.321684D-02
              MO Center= -5.8D-02, -1.1D+00, -6.9D-02, r^2= 2.2D+01
   Bfn.  Coefficient  Atom+Function         Bfn.  Coefficient  Atom+Function  
  ----- ------------  ---------------      ----- ------------  ---------------
   150     -4.024506  8 H  s                 43      3.994867  3 H  s          
    10     -3.476958  1 Li s                 98      3.343800  6 Li s          
   102     -1.382871  6 Li s                 14      1.031114  1 Li s          
    11     -0.916560  1 Li px               100      0.918145  6 Li py         
    13     -0.912861  1 Li pz                12     -0.872062  1 Li py         
 
 Vector   21  Occ=0.000000D+00  E=-5.821866D-02
              MO Center=  2.8D-03,  4.6D-01, -1.7D-02, r^2= 2.3D+01
   Bfn.  Coefficient  Atom+Function         Bfn.  Coefficient  Atom+Function  
  ----- ------------  ---------------      ----- ------------  ---------------
    17      0.942787  1 Li pz               105     -0.943579  6 Li pz         
   103      0.931704  6 Li px                13      0.904808  1 Li pz         
   101     -0.905958  6 Li pz                15     -0.900482  1 Li px         
    76     -0.879256  5 Li pz                99      0.882469  6 Li px         
    74     -0.865702  5 Li px               134      0.867014  7 Li pz         
 
 Vector   22  Occ=0.000000D+00  E=-5.608663D-02
              MO Center= -8.6D-02, -1.2D+00, -3.2D-01, r^2= 3.1D+01
   Bfn.  Coefficient  Atom+Function         Bfn.  Coefficient  Atom+Function  
  ----- ------------  ---------------      ----- ------------  ---------------
   102      3.520302  6 Li s                 73     -3.417805  5 Li s          
   131     -3.353472  7 Li s                 14      3.260704  1 Li s          
    98      2.888430  6 Li s                 10      2.722550  1 Li s          
    33     -1.611008  2 H  s                 53     -1.500816  4 H  s          
    69     -1.286854  5 Li s                127     -1.105744  7 Li s          
 
 Vector   23  Occ=0.000000D+00  E=-5.556962D-02
              MO Center=  1.5D-01, -4.2D-01,  1.9D-01, r^2= 2.3D+01
   Bfn.  Coefficient  Atom+Function         Bfn.  Coefficient  Atom+Function  
  ----- ------------  ---------------      ----- ------------  ---------------
   104     -1.692041  6 Li py                16      1.673334  1 Li py         
   150     -1.396322  8 H  s                 43      1.288205  3 H  s          
    12      1.277546  1 Li py               100     -1.179971  6 Li py         
   101     -0.826625  6 Li pz                99     -0.806069  6 Li px         
   130      0.787190  7 Li pz                70      0.767074  5 Li px         
 
 Vector   24  Occ=0.000000D+00  E=-5.540019D-02
              MO Center=  1.4D-02,  3.2D+00,  1.7D-01, r^2= 3.9D+01
   Bfn.  Coefficient  Atom+Function         Bfn.  Coefficient  Atom+Function  
  ----- ------------  ---------------      ----- ------------  ---------------
   127     -1.558072  7 Li s                 69      1.502393  5 Li s          
    53     -0.948205  4 H  s                129      0.893434  7 Li py         
   133      0.897115  7 Li py                71     -0.842850  5 Li py         
    75     -0.834068  5 Li py                33      0.822271  2 H  s          
    65      0.480843  5 Li s                123     -0.443727  7 Li s          
 
 Vector   25  Occ=0.000000D+00  E=-5.476017D-02
              MO Center= -6.4D-02, -1.6D+00,  6.6D-03, r^2= 4.0D+01
   Bfn.  Coefficient  Atom+Function         Bfn.  Coefficient  Atom+Function  
  ----- ------------  ---------------      ----- ------------  ---------------
    73     -8.309575  5 Li s                131     -8.330922  7 Li s          
   102      8.188850  6 Li s                 14      7.966880  1 Li s          
    98      3.744805  6 Li s                 10      3.663497  1 Li s          
   127     -2.650142  7 Li s                 69     -2.603567  5 Li s          
    16      1.614817  1 Li py               104      1.608301  6 Li py         
 
 Vector   26  Occ=0.000000D+00  E=-5.325365D-02
              MO Center= -2.4D-02, -5.9D-01, -3.9D-02, r^2= 4.7D+01
   Bfn.  Coefficient  Atom+Function         Bfn.  Coefficient  Atom+Function  
  ----- ------------  ---------------      ----- ------------  ---------------
   105      0.805495  6 Li pz                17     -0.789220  1 Li pz         
   103     -0.789640  6 Li px                15      0.776476  1 Li px         
   101      0.470180  6 Li pz                13     -0.455533  1 Li pz         
    99     -0.455197  6 Li px                11      0.451586  1 Li px         
    74     -0.315125  5 Li px               132      0.311286  7 Li px         
 
 Vector   27  Occ=0.000000D+00  E=-4.986331D-02
              MO Center= -4.4D-02,  1.9D+00, -2.5D-02, r^2= 5.1D+01
   Bfn.  Coefficient  Atom+Function         Bfn.  Coefficient  Atom+Function  
  ----- ------------  ---------------      ----- ------------  ---------------
   102      4.857868  6 Li s                 73     -4.819463  5 Li s          
   131     -4.784768  7 Li s                 14      4.554111  1 Li s          
    10      2.735602  1 Li s                 98      2.624596  6 Li s          
    69     -1.857201  5 Li s                127     -1.850924  7 Li s          
    33     -0.998115  2 H  s                 53     -0.988470  4 H  s          
 
 Vector   28  Occ=0.000000D+00  E=-4.609934D-02
              MO Center=  1.3D-01, -2.2D+00,  1.2D-01, r^2= 5.2D+01
   Bfn.  Coefficient  Atom+Function         Bfn.  Coefficient  Atom+Function  
  ----- ------------  ---------------      ----- ------------  ---------------
   102    -10.366239  6 Li s                 14     10.200953  1 Li s          
   150     -4.110760  8 H  s                 43      4.088739  3 H  s          
    10     -2.241425  1 Li s                 98      2.229927  6 Li s          
   103      1.985276  6 Li px                15      1.933200  1 Li px         
   105      1.935264  6 Li pz                17      1.892813  1 Li pz         
 
 Vector   29  Occ=0.000000D+00  E=-4.402949D-02
              MO Center= -7.0D-02, -3.5D-01, -7.9D-02, r^2= 4.6D+01
   Bfn.  Coefficient  Atom+Function         Bfn.  Coefficient  Atom+Function  
  ----- ------------  ---------------      ----- ------------  ---------------
    98     -2.483214  6 Li s                 53      2.390261  4 H  s          
    33      2.343711  2 H  s                 10     -2.156525  1 Li s          
   100     -1.292860  6 Li py                99      1.267497  6 Li px         
    11     -1.223017  1 Li px               101      1.227762  6 Li pz         
    13     -1.213277  1 Li pz                12     -1.118250  1 Li py         
 
 Vector   30  Occ=0.000000D+00  E=-4.266805D-02
              MO Center= -3.4D-03, -2.3D-01,  1.4D-03, r^2= 3.0D+01
   Bfn.  Coefficient  Atom+Function         Bfn.  Coefficient  Atom+Function  
  ----- ------------  ---------------      ----- ------------  ---------------
   131    -15.568141  7 Li s                 73     15.439456  5 Li s          
   127     -7.265157  7 Li s                 69      7.217791  5 Li s          
    33      4.351829  2 H  s                 53     -4.341695  4 H  s          
    71     -2.131390  5 Li py               129      2.138544  7 Li py         
   130      1.783255  7 Li pz                70     -1.733383  5 Li px         
 
 Vector   31  Occ=0.000000D+00  E=-4.050845D-02
              MO Center=  1.2D-02, -1.2D+00, -5.6D-02, r^2= 7.0D+01
   Bfn.  Coefficient  Atom+Function         Bfn.  Coefficient  Atom+Function  
  ----- ------------  ---------------      ----- ------------  ---------------
   131    -20.050924  7 Li s                 73     19.904912  5 Li s          
    76      3.475538  5 Li pz               134      3.486402  7 Li pz         
    74     -3.422320  5 Li px               132     -3.416331  7 Li px         
    17      0.922761  1 Li pz               103     -0.922285  6 Li px         
    15     -0.911227  1 Li px               105      0.909165  6 Li pz         
 
 Vector   32  Occ=0.000000D+00  E=-3.777222D-02
              MO Center= -9.2D-03, -5.0D-01,  5.3D-02, r^2= 6.1D+01
   Bfn.  Coefficient  Atom+Function         Bfn.  Coefficient  Atom+Function  
  ----- ------------  ---------------      ----- ------------  ---------------
    14     23.547064  1 Li s                 73    -22.605688  5 Li s          
   131    -22.531052  7 Li s                102     22.005325  6 Li s          
    98      4.368646  6 Li s                 10      4.151272  1 Li s          
   104      3.696754  6 Li py                16      3.647887  1 Li py         
    75      3.433036  5 Li py               133      3.430782  7 Li py         
 
 Vector   33  Occ=0.000000D+00  E=-3.610816D-02
              MO Center=  3.5D-02,  3.1D+00,  4.6D-02, r^2= 7.6D+01
   Bfn.  Coefficient  Atom+Function         Bfn.  Coefficient  Atom+Function  
  ----- ------------  ---------------      ----- ------------  ---------------
   102    -60.353792  6 Li s                 14     58.690842  1 Li s          
    15      6.476769  1 Li px               103      6.485584  6 Li px         
    17      6.396457  1 Li pz               105      6.393052  6 Li pz         
   104     -3.858047  6 Li py                16      3.161058  1 Li py         
   132      2.737379  7 Li px                76      2.697169  5 Li pz         
 
 Vector   34  Occ=0.000000D+00  E=-2.722998D-02
              MO Center= -5.5D-02, -2.0D+00, -6.3D-02, r^2= 7.5D+01
   Bfn.  Coefficient  Atom+Function         Bfn.  Coefficient  Atom+Function  
  ----- ------------  ---------------      ----- ------------  ---------------
    73     22.181893  5 Li s                131    -22.194656  7 Li s          
    75     -6.325670  5 Li py               133      6.323528  7 Li py         
    17      4.649262  1 Li pz                15     -4.577119  1 Li px         
   105      4.530036  6 Li pz               103     -4.464900  6 Li px         
   127      2.847146  7 Li s                 69     -2.814204  5 Li s          
 
 Vector   35  Occ=0.000000D+00  E=-2.632049D-02
              MO Center=  3.7D-02,  1.4D+00,  4.5D-02, r^2= 8.0D+01
   Bfn.  Coefficient  Atom+Function         Bfn.  Coefficient  Atom+Function  
  ----- ------------  ---------------      ----- ------------  ---------------
    14     10.744916  1 Li s                102     10.160219  6 Li s          
    73    -10.081396  5 Li s                131    -10.106719  7 Li s          
    75      2.410223  5 Li py               133      2.399160  7 Li py         
   127      2.297137  7 Li s                 69      2.259628  5 Li s          
    33     -2.005736  2 H  s                 53     -1.988228  4 H  s          
 
 Vector   36  Occ=0.000000D+00  E=-2.618412D-02
              MO Center=  1.5D-02, -2.3D-02,  1.1D-02, r^2= 8.3D+01
   Bfn.  Coefficient  Atom+Function         Bfn.  Coefficient  Atom+Function  
  ----- ------------  ---------------      ----- ------------  ---------------
   103     -6.081070  6 Li px                17     -6.021825  1 Li pz         
   105      6.048838  6 Li pz                15      5.775606  1 Li px         
   132     -4.503751  7 Li px                74      4.454036  5 Li px         
    76      4.472245  5 Li pz               134     -4.331707  7 Li pz         
   131     -0.676888  7 Li s                 73      0.601720  5 Li s          
 
 Vector   37  Occ=0.000000D+00  E=-2.520887D-02
              MO Center= -1.7D-02, -1.1D+00, -1.7D-02, r^2= 8.0D+01
   Bfn.  Coefficient  Atom+Function         Bfn.  Coefficient  Atom+Function  
  ----- ------------  ---------------      ----- ------------  ---------------
    16      7.808094  1 Li py               104     -7.426768  6 Li py         
   102      5.943303  6 Li s                 14     -5.493887  1 Li s          
   105     -4.535425  6 Li pz               103     -4.375865  6 Li px         
    15     -4.189376  1 Li px                17     -4.035345  1 Li pz         
   132      3.581612  7 Li px                74      3.515097  5 Li px         
 
 Vector   38  Occ=0.000000D+00  E=-2.348966D-02
              MO Center=  7.7D-02,  3.2D+00,  5.3D-02, r^2= 8.5D+01
   Bfn.  Coefficient  Atom+Function         Bfn.  Coefficient  Atom+Function  
  ----- ------------  ---------------      ----- ------------  ---------------
    73     56.674244  5 Li s                131    -56.508022  7 Li s          
   134      8.014763  7 Li pz                74     -7.880025  5 Li px         
    76      7.721912  5 Li pz               132     -7.593473  7 Li px         
    75     -7.022960  5 Li py               133      6.916017  7 Li py         
    15     -3.784537  1 Li px               103     -3.723980  6 Li px         
 
 Vector   39  Occ=0.000000D+00  E=-2.161814D-02
              MO Center= -6.1D-02, -1.4D+00, -4.4D-02, r^2= 9.1D+01
   Bfn.  Coefficient  Atom+Function         Bfn.  Coefficient  Atom+Function  
  ----- ------------  ---------------      ----- ------------  ---------------
    14     54.395653  1 Li s                131    -54.064724  7 Li s          
    73    -53.350516  5 Li s                102     53.123202  6 Li s          
   104      9.170609  6 Li py                16      8.822768  1 Li py         
    75      7.627538  5 Li py               133      7.648841  7 Li py         
   134      5.902444  7 Li pz                74      5.711778  5 Li px         
 
 Vector   40  Occ=0.000000D+00  E=-1.711755D-02
              MO Center= -1.7D-01, -1.3D+00, -1.7D-01, r^2= 7.9D+01
   Bfn.  Coefficient  Atom+Function         Bfn.  Coefficient  Atom+Function  
  ----- ------------  ---------------      ----- ------------  ---------------
    14    115.800026  1 Li s                102   -113.361770  6 Li s          
    15     14.358859  1 Li px                17     14.173920  1 Li pz         
   103     13.771995  6 Li px               105     13.548272  6 Li pz         
    10      8.937546  1 Li s                 98     -7.843348  6 Li s          
   104     -7.502068  6 Li py                16      6.692584  1 Li py         
 
 Vector   41  Occ=0.000000D+00  E=-1.596206D-02
              MO Center=  8.8D-02, -1.3D+00,  9.8D-02, r^2= 5.9D+01
   Bfn.  Coefficient  Atom+Function         Bfn.  Coefficient  Atom+Function  
  ----- ------------  ---------------      ----- ------------  ---------------
   102     30.216590  6 Li s                131    -18.053714  7 Li s          
    73    -17.720735  5 Li s                 98      6.198869  6 Li s          
    14      5.813235  1 Li s                 69     -5.310173  5 Li s          
   127     -5.317387  7 Li s                 10      4.332009  1 Li s          
   103     -3.590792  6 Li px               133      3.589690  7 Li py         
 
 Vector   42  Occ=0.000000D+00  E=-1.368187D-02
              MO Center= -6.7D-03, -1.0D-01, -6.1D-04, r^2= 6.0D+01
   Bfn.  Coefficient  Atom+Function         Bfn.  Coefficient  Atom+Function  
  ----- ------------  ---------------      ----- ------------  ---------------
    15      1.074865  1 Li px               105      1.071910  6 Li pz         
   103     -0.985161  6 Li px                17     -0.959733  1 Li pz         
   128     -0.811217  7 Li px                70      0.786901  5 Li px         
    72      0.788090  5 Li pz               130     -0.748196  7 Li pz         
   132      0.742903  7 Li px                76     -0.721086  5 Li pz         
 
 Vector   43  Occ=0.000000D+00  E=-2.844042D-03
              MO Center=  2.4D-02,  1.1D+00,  7.4D-03, r^2= 5.0D+01
   Bfn.  Coefficient  Atom+Function         Bfn.  Coefficient  Atom+Function  
  ----- ------------  ---------------      ----- ------------  ---------------
    73     26.178016  5 Li s                131    -26.157691  7 Li s          
    76      4.990279  5 Li pz               134      4.973820  7 Li pz         
    74     -4.892848  5 Li px               132     -4.890858  7 Li px         
    69     -3.903357  5 Li s                127      3.877158  7 Li s          
    33     -3.205687  2 H  s                 53      3.193271  4 H  s          
 
 Vector   44  Occ=0.000000D+00  E= 4.827005D-03
              MO Center=  1.5D-01, -6.1D-01,  1.5D-01, r^2= 4.8D+01
   Bfn.  Coefficient  Atom+Function         Bfn.  Coefficient  Atom+Function  
  ----- ------------  ---------------      ----- ------------  ---------------
   102   -102.592639  6 Li s                 14     97.523547  1 Li s          
    98    -21.191513  6 Li s                 10     20.112776  1 Li s          
   103     10.425137  6 Li px                15     10.348209  1 Li px         
    17     10.256491  1 Li pz               105     10.250140  6 Li pz         
   104     -7.872122  6 Li py                16      6.398297  1 Li py         
 
 Vector   45  Occ=0.000000D+00  E= 5.347509D-03
              MO Center= -1.2D-01,  1.3D+00, -1.3D-01, r^2= 4.2D+01
   Bfn.  Coefficient  Atom+Function         Bfn.  Coefficient  Atom+Function  
  ----- ------------  ---------------      ----- ------------  ---------------
    14     39.484407  1 Li s                 73    -30.809977  5 Li s          
   131    -30.694358  7 Li s                102     22.006382  6 Li s          
    10      8.504949  1 Li s                 69     -8.151764  5 Li s          
   127     -8.136407  7 Li s                 16      5.147917  1 Li py         
    98      4.950780  6 Li s                 75      4.140561  5 Li py         
 
 Vector   46  Occ=0.000000D+00  E= 1.182949D-02
              MO Center=  9.8D-02,  1.5D-01, -8.7D-02, r^2= 4.2D+01
   Bfn.  Coefficient  Atom+Function         Bfn.  Coefficient  Atom+Function  
  ----- ------------  ---------------      ----- ------------  ---------------
   127      8.414510  7 Li s                 69      7.949027  5 Li s          
    98     -6.893280  6 Li s                 10     -6.849538  1 Li s          
    73     -6.480202  5 Li s                 14      4.661577  1 Li s          
   102      3.860426  6 Li s                131     -3.542084  7 Li s          
   129     -2.578416  7 Li py                71     -2.488632  5 Li py         
 
 Vector   47  Occ=0.000000D+00  E= 1.220232D-02
              MO Center= -9.3D-02,  6.5D-01,  1.2D-01, r^2= 4.3D+01
   Bfn.  Coefficient  Atom+Function         Bfn.  Coefficient  Atom+Function  
  ----- ------------  ---------------      ----- ------------  ---------------
   131    -44.409410  7 Li s                 73     43.523405  5 Li s          
    69      7.529182  5 Li s                127     -7.074945  7 Li s          
   133      5.563362  7 Li py                75     -5.414497  5 Li py         
   134      4.832882  7 Li pz                74     -4.675799  5 Li px         
   132     -4.560271  7 Li px                76      4.527156  5 Li pz         
 
 Vector   48  Occ=0.000000D+00  E= 1.798460D-02
              MO Center=  3.6D-02, -2.1D-02,  4.1D-02, r^2= 4.8D+01
   Bfn.  Coefficient  Atom+Function         Bfn.  Coefficient  Atom+Function  
  ----- ------------  ---------------      ----- ------------  ---------------
   102     15.128226  6 Li s                 14     13.621423  1 Li s          
    73    -12.946666  5 Li s                131    -12.985773  7 Li s          
    69    -12.137463  5 Li s                127    -12.198102  7 Li s          
    43      5.033550  3 H  s                150      5.050398  8 H  s          
    33      3.601793  2 H  s                 53      3.591978  4 H  s          
 
 Vector   49  Occ=0.000000D+00  E= 2.332834D-02
              MO Center= -5.4D-02, -1.1D+00, -6.0D-02, r^2= 3.0D+01
   Bfn.  Coefficient  Atom+Function         Bfn.  Coefficient  Atom+Function  
  ----- ------------  ---------------      ----- ------------  ---------------
    14     28.620059  1 Li s                102    -26.670678  6 Li s          
    98     14.863775  6 Li s                 10    -14.498708  1 Li s          
    43      8.743959  3 H  s                150     -8.630350  8 H  s          
   100      4.271231  6 Li py                16      4.024770  1 Li py         
    12     -3.856244  1 Li py               104     -3.858678  6 Li py         
 
 Vector   50  Occ=0.000000D+00  E= 2.961400D-02
              MO Center=  9.4D-02, -2.3D-01, -1.6D-01, r^2= 3.7D+01
   Bfn.  Coefficient  Atom+Function         Bfn.  Coefficient  Atom+Function  
  ----- ------------  ---------------      ----- ------------  ---------------
    17     -3.591484  1 Li pz               105      3.530159  6 Li pz         
   103     -3.512480  6 Li px                15      3.489907  1 Li px         
    11     -2.851130  1 Li px               101     -2.831315  6 Li pz         
    74      2.705486  5 Li px                76      2.678627  5 Li pz         
    13      2.656891  1 Li pz                99      2.551786  6 Li px         
 
 Vector   51  Occ=0.000000D+00  E= 3.070012D-02
              MO Center= -1.1D-01,  1.2D+00,  1.6D-01, r^2= 3.2D+01
   Bfn.  Coefficient  Atom+Function         Bfn.  Coefficient  Atom+Function  
  ----- ------------  ---------------      ----- ------------  ---------------
    10     18.861363  1 Li s                 98    -18.917620  6 Li s          
   102     12.547008  6 Li s                 14    -11.542763  1 Li s          
   150     -4.830015  8 H  s                 43      4.756217  3 H  s          
   100     -3.087733  6 Li py                12      2.971200  1 Li py         
   128      2.736832  7 Li px               130      2.683195  7 Li pz         
 
 Vector   52  Occ=0.000000D+00  E= 3.415830D-02
              MO Center=  2.0D-03, -9.3D-01,  7.2D-03, r^2= 3.1D+01
   Bfn.  Coefficient  Atom+Function         Bfn.  Coefficient  Atom+Function  
  ----- ------------  ---------------      ----- ------------  ---------------
   131    -22.854046  7 Li s                 73     22.415282  5 Li s          
   127      8.914767  7 Li s                 69     -8.685712  5 Li s          
    33      5.683096  2 H  s                 53     -5.674622  4 H  s          
   133      2.704901  7 Li py                75     -2.663157  5 Li py         
   134      2.395160  7 Li pz                76      2.307667  5 Li pz         
 
 Vector   53  Occ=0.000000D+00  E= 3.666636D-02
              MO Center= -3.2D-02, -1.7D+00, -4.3D-02, r^2= 3.4D+01
   Bfn.  Coefficient  Atom+Function         Bfn.  Coefficient  Atom+Function  
  ----- ------------  ---------------      ----- ------------  ---------------
   102    -53.449439  6 Li s                 14     51.936700  1 Li s          
    98     16.350276  6 Li s                 10    -15.548684  1 Li s          
   103      7.613597  6 Li px                15      7.525858  1 Li px         
   105      7.543452  6 Li pz                17      7.404198  1 Li pz         
    99     -3.907697  6 Li px               101     -3.863969  6 Li pz         
 
 Vector   54  Occ=0.000000D+00  E= 3.846289D-02
              MO Center=  1.3D-02,  4.7D-01, -1.2D-02, r^2= 3.8D+01
   Bfn.  Coefficient  Atom+Function         Bfn.  Coefficient  Atom+Function  
  ----- ------------  ---------------      ----- ------------  ---------------
    14     37.805427  1 Li s                 73    -36.445900  5 Li s          
   131    -36.507543  7 Li s                102     35.429933  6 Li s          
    69     20.362260  5 Li s                127     19.751462  7 Li s          
    10    -17.032913  1 Li s                 98    -16.177008  6 Li s          
    43    -10.559545  3 H  s                150     -9.618629  8 H  s          
 
 Vector   55  Occ=0.000000D+00  E= 3.975333D-02
              MO Center= -3.3D-02, -2.9D-01,  2.6D-02, r^2= 2.7D+01
   Bfn.  Coefficient  Atom+Function         Bfn.  Coefficient  Atom+Function  
  ----- ------------  ---------------      ----- ------------  ---------------
   127      9.131928  7 Li s                 69     -7.032908  5 Li s          
   129     -3.783700  7 Li py                71      3.503779  5 Li py         
    73     -3.374492  5 Li s                 53      2.552918  4 H  s          
    33     -2.515616  2 H  s                133      2.164277  7 Li py         
    13     -2.146364  1 Li pz                99      2.060794  6 Li px         
 
 Vector   56  Occ=0.000000D+00  E= 4.136347D-02
              MO Center=  4.6D-04, -9.3D-01, -3.2D-02, r^2= 2.2D+01
   Bfn.  Coefficient  Atom+Function         Bfn.  Coefficient  Atom+Function  
  ----- ------------  ---------------      ----- ------------  ---------------
    14     16.144585  1 Li s                 73    -15.525205  5 Li s          
   131    -15.590193  7 Li s                102     15.303699  6 Li s          
    53     -9.028448  4 H  s                 33     -8.965771  2 H  s          
    69      8.514230  5 Li s                127      8.259480  7 Li s          
    98     -3.855142  6 Li s                 10     -3.812248  1 Li s          
 
 Vector   57  Occ=0.000000D+00  E= 4.774911D-02
              MO Center=  7.2D-03,  5.2D-01,  5.7D-03, r^2= 3.6D+01
   Bfn.  Coefficient  Atom+Function         Bfn.  Coefficient  Atom+Function  
  ----- ------------  ---------------      ----- ------------  ---------------
   131    -34.850360  7 Li s                 73     34.626705  5 Li s          
    69     -7.019909  5 Li s                127      7.054562  7 Li s          
    33     -5.830407  2 H  s                 53      5.855611  4 H  s          
   134      4.978559  7 Li pz                74     -4.868917  5 Li px         
    76      4.789335  5 Li pz               132     -4.751172  7 Li px         
 
 Vector   58  Occ=0.000000D+00  E= 6.639436D-02
              MO Center=  1.2D-02, -7.4D-01,  6.0D-03, r^2= 2.5D+01
   Bfn.  Coefficient  Atom+Function         Bfn.  Coefficient  Atom+Function  
  ----- ------------  ---------------      ----- ------------  ---------------
    14     14.276491  1 Li s                102     13.991221  6 Li s          
    73    -13.683901  5 Li s                131    -13.707670  7 Li s          
    69     -8.894125  5 Li s                127     -8.900694  7 Li s          
    33      8.704922  2 H  s                 53      8.705066  4 H  s          
    43      5.588159  3 H  s                150      5.561605  8 H  s          
 
 Vector   59  Occ=0.000000D+00  E= 7.434806D-02
              MO Center= -6.8D-03, -7.4D-02, -5.9D-03, r^2= 2.5D+01
   Bfn.  Coefficient  Atom+Function         Bfn.  Coefficient  Atom+Function  
  ----- ------------  ---------------      ----- ------------  ---------------
    14     71.506914  1 Li s                102    -71.846745  6 Li s          
    10     15.452954  1 Li s                 98    -15.483241  6 Li s          
    15      7.830242  1 Li px                17      7.746506  1 Li pz         
   103      7.688879  6 Li px               105      7.557409  6 Li pz         
   104     -5.668079  6 Li py                16      5.080015  1 Li py         
 
 Vector   60  Occ=0.000000D+00  E= 9.294053D-02
              MO Center= -3.3D-03,  3.8D-01,  2.0D-03, r^2= 1.8D+01
   Bfn.  Coefficient  Atom+Function         Bfn.  Coefficient  Atom+Function  
  ----- ------------  ---------------      ----- ------------  ---------------
   131     -4.740674  7 Li s                102      4.666345  6 Li s          
    73     -4.584542  5 Li s                 14      4.410869  1 Li s          
   123      4.309776  7 Li s                 65      4.276287  5 Li s          
   126     -3.061694  7 Li pz                66     -2.988293  5 Li px         
    68      2.989224  5 Li pz               124      2.966757  7 Li px         
 
 Vector   61  Occ=0.000000D+00  E= 1.229655D-01
              MO Center= -1.2D-02, -8.0D-01, -1.3D-02, r^2= 1.8D+01
   Bfn.  Coefficient  Atom+Function         Bfn.  Coefficient  Atom+Function  
  ----- ------------  ---------------      ----- ------------  ---------------
    69     12.745264  5 Li s                127     12.791161  7 Li s          
   102    -11.596062  6 Li s                 14    -10.947033  1 Li s          
   131     10.848586  7 Li s                 73     10.773077  5 Li s          
    98     -8.036407  6 Li s                 10     -7.837367  1 Li s          
    43     -4.796683  3 H  s                150     -4.424746  8 H  s          
 
 Vector   62  Occ=0.000000D+00  E= 1.324328D-01
              MO Center=  1.1D-02,  5.7D-01,  6.1D-03, r^2= 9.8D+00
   Bfn.  Coefficient  Atom+Function         Bfn.  Coefficient  Atom+Function  
  ----- ------------  ---------------      ----- ------------  ---------------
    84      0.784794  5 Li dxy              145     -0.773025  7 Li dyz        
   142     -0.742257  7 Li dxy               87      0.726230  5 Li dyz        
    88      0.550795  5 Li dzz              141     -0.546337  7 Li dxx        
    83     -0.514810  5 Li dxx              146      0.511170  7 Li dzz        
     9      0.268474  1 Li pz                97     -0.262617  6 Li pz         
 
 Vector   63  Occ=0.000000D+00  E= 1.525916D-01
              MO Center= -2.1D-02, -3.4D-01, -2.7D-02, r^2= 1.2D+01
   Bfn.  Coefficient  Atom+Function         Bfn.  Coefficient  Atom+Function  
  ----- ------------  ---------------      ----- ------------  ---------------
    14      1.756750  1 Li s                102     -1.698166  6 Li s          
    97     -1.091222  6 Li pz                 7     -0.991436  1 Li px         
    95      0.636876  6 Li px                28     -0.632123  1 Li dyz        
    25      0.606760  1 Li dxy              116      0.593420  6 Li dyz        
   113     -0.584135  6 Li dxy               87      0.575001  5 Li dyz        
 
 Vector   64  Occ=0.000000D+00  E= 1.530152D-01
              MO Center= -1.9D-02, -6.2D-01, -2.5D-02, r^2= 1.0D+01
   Bfn.  Coefficient  Atom+Function         Bfn.  Coefficient  Atom+Function  
  ----- ------------  ---------------      ----- ------------  ---------------
    14     14.561313  1 Li s                102    -14.592995  6 Li s          
   149     -2.836087  8 H  s                 42      2.819097  3 H  s          
    43      2.635996  3 H  s                150     -2.540546  8 H  s          
    94      2.469970  6 Li s                  6     -2.362786  1 Li s          
     9     -2.048252  1 Li pz                97     -1.917614  6 Li pz         
 
 Vector   65  Occ=0.000000D+00  E= 1.540971D-01
              MO Center=  9.6D-03,  3.1D-01,  1.9D-02, r^2= 1.2D+01
   Bfn.  Coefficient  Atom+Function         Bfn.  Coefficient  Atom+Function  
  ----- ------------  ---------------      ----- ------------  ---------------
    73      5.803782  5 Li s                131     -5.782232  7 Li s          
    33     -4.435985  2 H  s                 53      4.414751  4 H  s          
   102     -2.351911  6 Li s                 14      2.330101  1 Li s          
    32     -1.877731  2 H  s                 52      1.778893  4 H  s          
    65     -1.307031  5 Li s                123      1.299516  7 Li s          
 
 Vector   66  Occ=0.000000D+00  E= 1.820650D-01
              MO Center=  8.6D-02, -2.6D-01, -9.4D-02, r^2= 1.4D+01
   Bfn.  Coefficient  Atom+Function         Bfn.  Coefficient  Atom+Function  
  ----- ------------  ---------------      ----- ------------  ---------------
    73     10.589108  5 Li s                131     -7.703416  7 Li s          
    53      5.502315  4 H  s                 33     -5.142500  2 H  s          
    52      3.165539  4 H  s                 65     -2.966784  5 Li s          
    67      2.342852  5 Li py                32     -2.237812  2 H  s          
    69     -1.772907  5 Li s                 14     -1.497102  1 Li s          
 
 Vector   67  Occ=0.000000D+00  E= 1.826318D-01
              MO Center= -6.4D-02,  5.0D-01,  1.2D-01, r^2= 1.7D+01
   Bfn.  Coefficient  Atom+Function         Bfn.  Coefficient  Atom+Function  
  ----- ------------  ---------------      ----- ------------  ---------------
   131     11.903546  7 Li s                102    -10.388156  6 Li s          
    14    -10.297502  1 Li s                 73      9.169466  5 Li s          
   123     -6.325375  7 Li s                 65     -5.677055  5 Li s          
   125      3.783672  7 Li py                43      3.581594  3 H  s          
    32      3.475222  2 H  s                126      3.448637  7 Li pz         
 
 Vector   68  Occ=0.000000D+00  E= 1.930771D-01
              MO Center= -2.2D-02, -5.4D-01, -9.9D-03, r^2= 1.5D+01
   Bfn.  Coefficient  Atom+Function         Bfn.  Coefficient  Atom+Function  
  ----- ------------  ---------------      ----- ------------  ---------------
    14     13.038549  1 Li s                131    -12.349079  7 Li s          
    73    -11.972263  5 Li s                102     11.365033  6 Li s          
    69      9.581759  5 Li s                127      9.517955  7 Li s          
    98     -8.714029  6 Li s                 10     -8.558094  1 Li s          
    32      6.220174  2 H  s                 52      6.179286  4 H  s          
 
 Vector   69  Occ=0.000000D+00  E= 2.069601D-01
              MO Center=  1.6D-02,  7.7D-01, -2.8D-03, r^2= 1.5D+01
   Bfn.  Coefficient  Atom+Function         Bfn.  Coefficient  Atom+Function  
  ----- ------------  ---------------      ----- ------------  ---------------
    73     15.570200  5 Li s                131    -15.510547  7 Li s          
   127     -5.773652  7 Li s                 69      5.670757  5 Li s          
    33     -2.349883  2 H  s                 72      2.316212  5 Li pz         
   130      2.321235  7 Li pz               128     -2.291228  7 Li px         
    53      2.256717  4 H  s                 70     -2.258829  5 Li px         
 
 Vector   70  Occ=0.000000D+00  E= 2.080086D-01
              MO Center= -2.6D-03, -1.1D+00, -6.9D-03, r^2= 1.9D+01
   Bfn.  Coefficient  Atom+Function         Bfn.  Coefficient  Atom+Function  
  ----- ------------  ---------------      ----- ------------  ---------------
   102    -45.458771  6 Li s                 14     45.168887  1 Li s          
    94     10.052227  6 Li s                  6     -9.931592  1 Li s          
     7     -6.686862  1 Li px                95     -6.693956  6 Li px         
     9     -6.533080  1 Li pz                97     -6.495637  6 Li pz         
    15      4.770679  1 Li px               103      4.680382  6 Li px         
 
 Vector   71  Occ=0.000000D+00  E= 2.142758D-01
              MO Center= -6.8D-03, -3.8D-01,  4.3D-03, r^2= 1.2D+01
   Bfn.  Coefficient  Atom+Function         Bfn.  Coefficient  Atom+Function  
  ----- ------------  ---------------      ----- ------------  ---------------
    69      5.672111  5 Li s                127      5.362630  7 Li s          
    10     -2.512372  1 Li s                 98     -2.415060  6 Li s          
    43     -2.372522  3 H  s                150     -2.185666  8 H  s          
    33     -1.881829  2 H  s                 53     -1.763828  4 H  s          
   123      1.672624  7 Li s                 65      1.610295  5 Li s          
 
 Vector   72  Occ=0.000000D+00  E= 2.145696D-01
              MO Center=  1.4D-03, -1.5D-01, -9.2D-03, r^2= 1.3D+01
   Bfn.  Coefficient  Atom+Function         Bfn.  Coefficient  Atom+Function  
  ----- ------------  ---------------      ----- ------------  ---------------
   127     10.490321  7 Li s                 69     10.257558  5 Li s          
    10     -4.682698  1 Li s                 98     -4.533906  6 Li s          
    43     -4.425112  3 H  s                150     -4.113368  8 H  s          
    53     -3.508747  4 H  s                 33     -3.424189  2 H  s          
    65      3.100554  5 Li s                123      3.069807  7 Li s          
 
 Vector   73  Occ=0.000000D+00  E= 2.408017D-01
              MO Center=  3.3D-04,  3.9D-01,  1.1D-02, r^2= 1.7D+01
   Bfn.  Coefficient  Atom+Function         Bfn.  Coefficient  Atom+Function  
  ----- ------------  ---------------      ----- ------------  ---------------
   131    -16.989391  7 Li s                 73     16.693548  5 Li s          
   125     -4.285864  7 Li py               123      4.245257  7 Li s          
    67      4.209692  5 Li py                65     -4.163860  5 Li s          
   126     -3.710091  7 Li pz                66      3.595512  5 Li px         
    68     -3.549117  5 Li pz               124      3.529066  7 Li px         
 
 Vector   74  Occ=0.000000D+00  E= 2.419403D-01
              MO Center= -4.2D-02,  1.1D-01, -5.5D-02, r^2= 1.3D+01
   Bfn.  Coefficient  Atom+Function         Bfn.  Coefficient  Atom+Function  
  ----- ------------  ---------------      ----- ------------  ---------------
    14      9.436095  1 Li s                 73     -7.140084  5 Li s          
   131     -6.654160  7 Li s                 65      4.092532  5 Li s          
   102      4.051089  6 Li s                123      4.000430  7 Li s          
    69      3.798615  5 Li s                127      3.768796  7 Li s          
     8     -3.515840  1 Li py                 6     -3.317709  1 Li s          
 
 Vector   75  Occ=0.000000D+00  E= 2.452878D-01
              MO Center=  5.1D-02,  2.0D-01,  5.5D-02, r^2= 1.2D+01
   Bfn.  Coefficient  Atom+Function         Bfn.  Coefficient  Atom+Function  
  ----- ------------  ---------------      ----- ------------  ---------------
   102    -23.132545  6 Li s                 14     21.154440  1 Li s          
    94      4.956175  6 Li s                 98      4.479908  6 Li s          
    43     -4.280339  3 H  s                150      4.205651  8 H  s          
     6     -4.152655  1 Li s                 10     -3.941104  1 Li s          
    95     -3.671033  6 Li px                97     -3.543851  6 Li pz         
 
 Vector   76  Occ=0.000000D+00  E= 2.636860D-01
              MO Center= -3.8D-02,  6.7D-03, -3.4D-02, r^2= 1.1D+01
   Bfn.  Coefficient  Atom+Function         Bfn.  Coefficient  Atom+Function  
  ----- ------------  ---------------      ----- ------------  ---------------
    98    -11.651720  6 Li s                 10     10.671743  1 Li s          
   102      6.857082  6 Li s                 14     -5.517322  1 Li s          
   149      4.109049  8 H  s                 43     -3.048164  3 H  s          
    42     -2.901071  3 H  s                 11      2.271008  1 Li px         
    13      2.244195  1 Li pz                99      2.227514  6 Li px         
 
 Vector   77  Occ=0.000000D+00  E= 2.686277D-01
              MO Center=  6.0D-02,  9.1D-01,  5.8D-02, r^2= 1.2D+01
   Bfn.  Coefficient  Atom+Function         Bfn.  Coefficient  Atom+Function  
  ----- ------------  ---------------      ----- ------------  ---------------
   127      7.677352  7 Li s                 69      7.568525  5 Li s          
   150     -7.259671  8 H  s                 43     -6.888290  3 H  s          
    10     -5.867708  1 Li s                 14      5.816598  1 Li s          
   131     -4.627037  7 Li s                 73     -4.560478  5 Li s          
   102      3.481583  6 Li s                 42      2.692228  3 H  s          
 
 Vector   78  Occ=0.000000D+00  E= 2.877562D-01
              MO Center= -2.1D-01, -1.9D-01, -1.4D-01, r^2= 1.4D+01
   Bfn.  Coefficient  Atom+Function         Bfn.  Coefficient  Atom+Function  
  ----- ------------  ---------------      ----- ------------  ---------------
     7      3.041415  1 Li px                 9     -2.907671  1 Li pz         
    97      2.614855  6 Li pz                95     -2.516692  6 Li px         
   126     -2.139146  7 Li pz               124     -1.998322  7 Li px         
    11     -1.933751  1 Li px                68      1.936293  5 Li pz         
    13      1.862273  1 Li pz                66      1.822873  5 Li px         
 
 Vector   79  Occ=0.000000D+00  E= 2.884710D-01
              MO Center=  2.0D-01,  6.6D-01,  1.2D-01, r^2= 1.3D+01
   Bfn.  Coefficient  Atom+Function         Bfn.  Coefficient  Atom+Function  
  ----- ------------  ---------------      ----- ------------  ---------------
    32      6.736540  2 H  s                 52     -6.669717  4 H  s          
    73     -5.155358  5 Li s                131      4.406953  7 Li s          
    67     -3.610879  5 Li py               125      3.272599  7 Li py         
   123     -3.167442  7 Li s                 65      2.967723  5 Li s          
   127     -1.946230  7 Li s                 95      1.640709  6 Li px         
 
 Vector   80  Occ=0.000000D+00  E= 2.910277D-01
              MO Center= -4.0D-02,  3.0D-01,  5.7D-02, r^2= 1.3D+01
   Bfn.  Coefficient  Atom+Function         Bfn.  Coefficient  Atom+Function  
  ----- ------------  ---------------      ----- ------------  ---------------
   102      9.958463  6 Li s                131     -8.652276  7 Li s          
    73     -8.549823  5 Li s                 14      8.039540  1 Li s          
    43      5.412806  3 H  s                 42      5.348477  3 H  s          
   149      5.169265  8 H  s                 69     -4.739095  5 Li s          
   127     -4.743371  7 Li s                150      4.410958  8 H  s          
 
 Vector   81  Occ=0.000000D+00  E= 2.919875D-01
              MO Center=  1.9D-02, -3.8D-01, -4.4D-02, r^2= 1.4D+01
   Bfn.  Coefficient  Atom+Function         Bfn.  Coefficient  Atom+Function  
  ----- ------------  ---------------      ----- ------------  ---------------
    14     13.512744  1 Li s                102    -12.241415  6 Li s          
     8     -4.261907  1 Li py                96      3.973187  6 Li py         
    12      2.624670  1 Li py               150      2.618400  8 H  s          
    68     -2.474224  5 Li pz               100     -2.465994  6 Li py         
   124     -2.366531  7 Li px                17      2.342502  1 Li pz         
 
 Vector   82  Occ=0.000000D+00  E= 3.083763D-01
              MO Center=  1.2D-02, -3.5D-01, -1.9D-02, r^2= 1.2D+01
   Bfn.  Coefficient  Atom+Function         Bfn.  Coefficient  Atom+Function  
  ----- ------------  ---------------      ----- ------------  ---------------
   131     -8.999625  7 Li s                 73      8.877664  5 Li s          
    69     -5.246445  5 Li s                127      5.229092  7 Li s          
    65     -2.727973  5 Li s                123      2.700174  7 Li s          
    68     -1.859529  5 Li pz               126     -1.863228  7 Li pz         
    66      1.839603  5 Li px               124      1.785385  7 Li px         
 
 Vector   83  Occ=0.000000D+00  E= 3.283527D-01
              MO Center= -7.5D-03, -2.1D-01, -1.1D-02, r^2= 1.3D+01
   Bfn.  Coefficient  Atom+Function         Bfn.  Coefficient  Atom+Function  
  ----- ------------  ---------------      ----- ------------  ---------------
   102      7.256691  6 Li s                 73     -6.383620  5 Li s          
   131     -6.264519  7 Li s                 14      6.160811  1 Li s          
    98     -3.779991  6 Li s                 10     -3.578525  1 Li s          
    69      3.309510  5 Li s                127      3.262537  7 Li s          
    94     -2.667368  6 Li s                  6     -2.564456  1 Li s          
 
 Vector   84  Occ=0.000000D+00  E= 3.339779D-01
              MO Center=  2.7D-02, -1.7D-01,  2.8D-02, r^2= 1.2D+01
   Bfn.  Coefficient  Atom+Function         Bfn.  Coefficient  Atom+Function  
  ----- ------------  ---------------      ----- ------------  ---------------
    14     16.621392  1 Li s                102    -15.520981  6 Li s          
    98    -10.541929  6 Li s                 10      9.901331  1 Li s          
   150     -2.664617  8 H  s                 43      2.488061  3 H  s          
    99      2.346712  6 Li px               101      2.282396  6 Li pz         
    11      2.234467  1 Li px               149      2.224722  8 H  s          
 
 Vector   85  Occ=0.000000D+00  E= 3.419345D-01
              MO Center= -4.8D-02, -7.2D-01, -4.1D-02, r^2= 9.6D+00
   Bfn.  Coefficient  Atom+Function         Bfn.  Coefficient  Atom+Function  
  ----- ------------  ---------------      ----- ------------  ---------------
   102      6.507122  6 Li s                 73     -6.195738  5 Li s          
   131     -5.941053  7 Li s                 14      5.742457  1 Li s          
    33      4.482351  2 H  s                 53      4.386877  4 H  s          
    32     -3.181108  2 H  s                 98     -3.077192  6 Li s          
    10     -3.010278  1 Li s                 42      2.909186  3 H  s          
 
 Vector   86  Occ=0.000000D+00  E= 3.451454D-01
              MO Center=  6.4D-02,  9.1D-02, -3.9D-02, r^2= 9.5D+00
   Bfn.  Coefficient  Atom+Function         Bfn.  Coefficient  Atom+Function  
  ----- ------------  ---------------      ----- ------------  ---------------
    66      1.630730  5 Li px                68      1.614478  5 Li pz         
   124     -1.503652  7 Li px               126     -1.474396  7 Li pz         
    28     -1.077493  1 Li dyz               25      1.064687  1 Li dxy        
    84     -1.065597  5 Li dxy              142      1.065446  7 Li dxy        
    87     -1.050429  5 Li dyz              113     -1.002940  6 Li dxy        
 
 Vector   87  Occ=0.000000D+00  E= 3.485899D-01
              MO Center= -2.7D-02,  5.9D-01,  8.3D-02, r^2= 9.0D+00
   Bfn.  Coefficient  Atom+Function         Bfn.  Coefficient  Atom+Function  
  ----- ------------  ---------------      ----- ------------  ---------------
   149      7.495985  8 H  s                 42     -7.234662  3 H  s          
    10     -6.642761  1 Li s                 98      5.793634  6 Li s          
   150     -2.728931  8 H  s                 43      2.318978  3 H  s          
     6     -1.899820  1 Li s                126     -1.888261  7 Li pz         
    13     -1.773148  1 Li pz               124     -1.754980  7 Li px         
 
 Vector   88  Occ=0.000000D+00  E= 3.496744D-01
              MO Center= -6.6D-03, -2.4D-01, -2.6D-02, r^2= 1.2D+01
   Bfn.  Coefficient  Atom+Function         Bfn.  Coefficient  Atom+Function  
  ----- ------------  ---------------      ----- ------------  ---------------
    52     -7.507141  4 H  s                 32      7.247742  2 H  s          
   131     -6.876430  7 Li s                 73      6.382109  5 Li s          
     7      2.681798  1 Li px                95      2.658018  6 Li px         
    97     -2.669615  6 Li pz                 9     -2.592986  1 Li pz         
    53      2.504239  4 H  s                127      2.442427  7 Li s          
 
 Vector   89  Occ=0.000000D+00  E= 3.699950D-01
              MO Center= -2.3D-02,  3.2D-01, -1.8D-02, r^2= 1.1D+01
   Bfn.  Coefficient  Atom+Function         Bfn.  Coefficient  Atom+Function  
  ----- ------------  ---------------      ----- ------------  ---------------
   127      9.019435  7 Li s                 69      8.950743  5 Li s          
    10     -5.656728  1 Li s                 98     -5.299415  6 Li s          
   150     -4.518008  8 H  s                 43     -4.435164  3 H  s          
    14      3.175158  1 Li s                131     -3.002276  7 Li s          
    73     -2.978794  5 Li s                102      2.579601  6 Li s          
 
 Vector   90  Occ=0.000000D+00  E= 3.778509D-01
              MO Center=  1.3D-02,  2.4D-01,  9.6D-03, r^2= 9.4D+00
   Bfn.  Coefficient  Atom+Function         Bfn.  Coefficient  Atom+Function  
  ----- ------------  ---------------      ----- ------------  ---------------
   102     -5.602779  6 Li s                 14      5.555024  1 Li s          
    43      5.065978  3 H  s                150     -4.305085  8 H  s          
    98      3.319028  6 Li s                 10     -2.454508  1 Li s          
    42     -2.312556  3 H  s                149      2.170337  8 H  s          
     6      1.234130  1 Li s                 96     -1.225909  6 Li py         
 
 Vector   91  Occ=0.000000D+00  E= 3.894116D-01
              MO Center= -2.1D-03, -2.6D-02, -3.4D-03, r^2= 9.1D+00
   Bfn.  Coefficient  Atom+Function         Bfn.  Coefficient  Atom+Function  
  ----- ------------  ---------------      ----- ------------  ---------------
    52     -6.659959  4 H  s                 32      6.606862  2 H  s          
    67     -3.439203  5 Li py               125      3.415779  7 Li py         
    33      3.141721  2 H  s                 53     -3.108036  4 H  s          
    73     -2.664209  5 Li s                131      2.602175  7 Li s          
    86      2.359989  5 Li dyy              144     -2.357707  7 Li dyy        
 
 Vector   92  Occ=0.000000D+00  E= 3.900331D-01
              MO Center= -2.9D-03, -3.9D-01,  4.3D-03, r^2= 9.7D+00
   Bfn.  Coefficient  Atom+Function         Bfn.  Coefficient  Atom+Function  
  ----- ------------  ---------------      ----- ------------  ---------------
   102      5.380159  6 Li s                 14      5.213464  1 Li s          
    69     -5.116368  5 Li s                 73     -5.128387  5 Li s          
   127     -5.131008  7 Li s                131     -5.090417  7 Li s          
    33      4.811395  2 H  s                 53      4.786262  4 H  s          
    32     -4.324646  2 H  s                 52     -4.316166  4 H  s          
 
 Vector   93  Occ=0.000000D+00  E= 4.049488D-01
              MO Center= -6.1D-02, -4.6D-01, -4.9D-02, r^2= 1.1D+01
   Bfn.  Coefficient  Atom+Function         Bfn.  Coefficient  Atom+Function  
  ----- ------------  ---------------      ----- ------------  ---------------
     9     -4.137041  1 Li pz                 7      4.063666  1 Li px         
    97      3.939961  6 Li pz                95     -3.881388  6 Li px         
    28     -2.542999  1 Li dyz              116      2.531915  6 Li dyz        
    25      2.514107  1 Li dxy              113     -2.483039  6 Li dxy        
    66      2.192774  5 Li px               124     -2.152192  7 Li px         
 
 Vector   94  Occ=0.000000D+00  E= 4.130948D-01
              MO Center=  3.8D-02, -5.0D-01,  2.9D-02, r^2= 1.1D+01
   Bfn.  Coefficient  Atom+Function         Bfn.  Coefficient  Atom+Function  
  ----- ------------  ---------------      ----- ------------  ---------------
   131     -5.956030  7 Li s                 73      5.921240  5 Li s          
    69     -3.558758  5 Li s                127      3.493386  7 Li s          
    53      2.854252  4 H  s                 33     -2.834330  2 H  s          
    67     -2.672754  5 Li py               125      2.636245  7 Li py         
    97      2.543320  6 Li pz                95     -2.522805  6 Li px         
 
 Vector   95  Occ=0.000000D+00  E= 4.274939D-01
              MO Center= -1.7D-02, -5.3D-01, -1.8D-02, r^2= 1.0D+01
   Bfn.  Coefficient  Atom+Function         Bfn.  Coefficient  Atom+Function  
[...]


              11           12           13           14           15           16           17           18           19           20
   ----- ----- ----- ----- -----
   11    4.13168D+01
   12   -6.91975D+00  3.04813D+01
   13   -1.87337D+00  6.49559D-01  2.15478D+00
   14   -1.12549D+01  2.66520D+00  8.23743D-01  5.59728D+00
   15    1.33143D+00 -1.62813D+00 -1.28460D+00 -5.91096D-01  2.29772D+00
   16   -4.83833D-01  1.10698D+00  1.38072D-01 -2.10831D-01  1.14649D-01  4.60564D+00
   17   -2.00836D+00  5.95546D-01 -4.62878D-02 -3.25546D-01  5.11805D-01 -5.42601D-01  1.48588D+00
   18    1.39643D+00 -6.92470D+00 -1.51015D-01  3.30660D-01 -2.82129D-01  5.20465D-01 -5.55884D-01  4.59127D+00
   19   -3.75875D-01  2.18776D-01 -9.82357D-02  3.77985D-02  1.77554D-02 -2.76266D-01  5.16098D-01  9.81975D-02  2.22673D+00
   20   -3.60349D-01  2.14356D-01 -6.85828D-03 -1.46422D-02  6.58133D-02  3.48408D-01 -3.29341D-01 -2.09472D-01 -5.89442D-01  5.59239D+00
   21    2.73181D-01 -6.57297D-02 -1.31578D-01  2.80734D-02 -1.01489D-01 -1.29357D-01 -9.62304D-02  1.86566D-01 -1.29069D+00  8.37897D-01
   22    4.95682D+00  1.70558D+00  6.24379D-01 -3.89871D-01  1.38814D-01 -2.55473D-02 -1.28092D+00  1.55237D+00 -4.05052D+00 -2.43151D+00
   23   -1.88541D+00 -2.59094D+00  3.57965D-01 -7.30385D-01 -7.45765D-01 -2.69129D-01  6.06548D-01 -2.47244D-01 -7.25049D-01 -7.42841D-01
   24    1.80711D+00 -1.04083D+00  2.48140D+00 -2.40575D+00 -4.09878D+00  1.53654D+00 -1.24729D+00 -8.54258D-02  2.04737D-01 -3.80468D-01


              21           22           23           24
   ----- ----- ----- ----- -----
   21    2.19592D+00
   22    2.53088D+00  5.42548D+01
   23    3.64187D-01  4.17903D+00  1.48620D+01
   24    5.66016D-01  1.92701D+01  4.07302D+00  5.38268D+01

 center of mass
 --------------
 x =  -0.00105284 y =  -0.10529653 z =  -0.00120975

 moments of inertia (a.u.)
 ------------------
         228.375463184811          -0.918271693106          40.963916401570
          -0.918271693106         242.357463533660          -0.656691127104
          40.963916401570          -0.656691127104         227.149079274438

 Rotational Constants
 --------------------
 A=   0.322282 cm-1  (  0.463682 K)
 B=   0.248442 cm-1  (  0.357444 K)
 C=   0.223977 cm-1  (  0.322246 K)


 Temperature                      =   298.15K
 frequency scaling parameter      =   1.0000

 Zero-Point correction to Energy  =   18.316 kcal/mol  (  0.029189 au)
 Thermal correction to Energy     =   22.678 kcal/mol  (  0.036140 au)
 Thermal correction to Enthalpy   =   23.270 kcal/mol  (  0.037084 au)

 Total Entropy                    =   75.179 cal/mol-K
   - Translational                =   36.314 cal/mol-K (mol. weight =  32.0953)
   - Rotational                   =   24.002 cal/mol-K (symmetry #  =        1)
   - Vibrational                  =   14.863 cal/mol-K

 Cv (constant volume heat capacity) =   23.605 cal/mol-K
   - Translational                  =    2.979 cal/mol-K
   - Rotational                     =    2.979 cal/mol-K
   - Vibrational                    =   17.646 cal/mol-K



          -------------------------------------------------
          NORMAL MODE EIGENVECTORS IN CARTESIAN COORDINATES
          -------------------------------------------------
             (Projected Frequencies expressed in cm-1)

                    1           2           3           4           5           6
 
 P.Frequency       -0.00       -0.00        0.00        0.00        0.00        0.00
 
           1     0.09086     0.01867    -0.08251    -0.03870    -0.05888     0.19299
           2     0.01905     0.13170     0.21118     0.00596     0.00219    -0.01511
           3     0.03426    -0.08462    -0.03354     0.17961     0.12664     0.00354
           4    -0.05990     0.04776    -0.07761     0.04127     0.07645     0.18353
           5     0.00280     0.03311     0.12495     0.16673    -0.09348    -0.00638
           6     0.03483    -0.07541    -0.02562     0.16538     0.13622     0.00269
           7    -0.03295    -0.08074     0.18645    -0.02400    -0.02789     0.15375
           8     0.03245     0.12667     0.11097     0.06464    -0.02661    -0.00260
           9     0.10549     0.03402     0.08824    -0.06330     0.20779    -0.00598
          10     0.08872     0.00978    -0.06245    -0.04142    -0.06300     0.19048
          11     0.07442     0.21752     0.00867     0.01224     0.01618     0.01223
          12     0.18140    -0.11187    -0.01128     0.08327    -0.00043     0.00961
          13     0.06001    -0.07282     0.12786    -0.06262    -0.09453     0.16618
          14     0.08715     0.24802    -0.01652    -0.01017     0.03283     0.01605
          15     0.22337    -0.02852     0.07180    -0.07989     0.06194     0.00273
          16    -0.04899     0.05751    -0.10343     0.04038     0.07436     0.18724
          17     0.05807     0.11911    -0.07648     0.17223    -0.07908     0.02082
          18     0.17791    -0.12457    -0.02305     0.10543    -0.01188     0.01073
          19    -0.13881    -0.02199     0.10756     0.04800     0.09204     0.15689
          20    -0.00873     0.00122     0.13924     0.19652    -0.11390    -0.00886
          21     0.02714     0.02028     0.05259     0.03007     0.24489    -0.00655
          22    -0.08360    -0.06616     0.17777     0.00486     0.02069     0.15180
          23     0.04666     0.12209     0.00620     0.12520    -0.05621     0.01048
          24     0.15773     0.01896     0.09160    -0.08948     0.15685    -0.00332

                    7           8           9          10          11          12
 
 P.Frequency       90.10      200.04      232.44      254.32      322.91      334.05
 
           1     0.03855     0.00238    -0.07088    -0.14883     0.10002     0.04427
           2     0.15111    -0.10160    -0.15997    -0.00860    -0.00921    -0.13966
           3     0.04188     0.00846    -0.08123     0.14278    -0.09469     0.05096
           4     0.06206     0.03713    -0.06410     0.09991     0.06984    -0.03656
           5    -0.00554     0.03841     0.01217    -0.00765     0.16383     0.06859
           6     0.06782    -0.00271    -0.06940     0.10200    -0.05615     0.03321
           7    -0.37932    -0.05087    -0.20476    -0.01311    -0.00870     0.05691
           8    -0.18069     0.22991     0.01228     0.00445     0.00713     0.05256
           9    -0.37451    -0.04898    -0.20365     0.00302     0.00375     0.05694
          10     0.06523    -0.00956    -0.06272    -0.11086     0.06062     0.02741
          11     0.00311     0.04490     0.01733     0.01098    -0.15086     0.08783
          12     0.06684     0.03687    -0.04983    -0.10447    -0.07072    -0.02625
          13     0.04507    -0.12498     0.11228     0.12711    -0.10186     0.12071
          14    -0.01423     0.09392     0.00370    -0.00104    -0.14134     0.13298
          15    -0.02700     0.12355     0.09956     0.11298     0.10379    -0.13684
          16     0.03112     0.01128    -0.07605     0.13795     0.09906    -0.05532
          17    -0.12168    -0.16994     0.13046     0.00682    -0.01095    -0.13852
          18     0.03102     0.01044    -0.06077    -0.14465    -0.10835    -0.03909
          19    -0.02424     0.12200     0.11289    -0.11327    -0.11342    -0.11949
          20    -0.01780     0.09002     0.00123     0.00090     0.15637     0.11364
          21     0.04186    -0.13317     0.11877    -0.10863     0.11735     0.11273
          22    -0.37802    -0.05102    -0.21306     0.00352    -0.00908     0.02064
          23     0.20120     0.29664     0.12933     0.00561     0.01558     0.01069
          24    -0.37109    -0.04975    -0.20849    -0.01775    -0.00286     0.02137

                   13          14          15          16          17          18
 
 P.Frequency      397.23      463.94      745.88      773.04      798.28      856.83
 
           1    -0.13904    -0.11499    -0.05530    -0.01105    -0.05892     0.04440
           2    -0.01001    -0.02774    -0.01499     0.00008    -0.00046    -0.00006
           3    -0.14032    -0.11421    -0.05060     0.01221     0.06042    -0.05062
           4     0.05733    -0.00816     0.30128     0.05752    -0.46408    -0.37456
           5     0.03202     0.00014    -0.00497     0.11954     0.03396    -0.39446
           6    -0.06345     0.01144     0.28388     0.02085    -0.46364     0.39508
           7     0.07594    -0.05733     0.11619     0.43289     0.13379     0.09464
           8     0.39399    -0.50847    -0.48893     0.00676     0.00420     0.00696
           9     0.07764    -0.05583     0.10374    -0.44421    -0.13525    -0.09571
          10    -0.06360     0.01409     0.30780    -0.03080     0.46545    -0.34359
          11     0.03104    -0.00218    -0.02479    -0.11789    -0.03452     0.37608
          12     0.05851    -0.00808     0.28311    -0.06626     0.45033     0.40821
          13     0.04596    -0.00762    -0.00523    -0.04702    -0.01585    -0.00753
          14    -0.03941     0.09992     0.00144     0.06631     0.00688    -0.03289
          15    -0.06555     0.02228    -0.00958     0.05282    -0.00631     0.00446
          16     0.14541     0.11164    -0.05387    -0.02197     0.05655     0.04512
          17    -0.02655    -0.03537     0.01778    -0.00081    -0.00021     0.00119
          18     0.14661     0.10727    -0.05022     0.02467    -0.05602    -0.05004
          19    -0.06183     0.02003    -0.01027    -0.05175     0.00618    -0.00588
          20    -0.04031     0.10279    -0.00321    -0.06587    -0.00690     0.03396
          21     0.04908    -0.00637    -0.00494     0.04811     0.01541     0.00687
          22    -0.00345    -0.01165     0.14265     0.45785    -0.05142     0.09366
          23     0.35243    -0.46130     0.51158    -0.00636     0.00119    -0.00386
          24    -0.00178    -0.01002     0.13227    -0.46974     0.05451    -0.08574

                   19          20          21          22          23          24
 
 P.Frequency      899.97      946.70     1143.15     1156.77     1242.09     1960.81
 
           1     0.04219    -0.01524     0.03064     0.00020    -0.01131    -0.00451
           2     0.00015     0.01467     0.00023     0.00009    -0.01376    -0.00700
           3     0.03781    -0.01369    -0.03116    -0.00042    -0.01118    -0.00446
           4    -0.37882    -0.36886    -0.26974     0.09898    -0.31358     0.00478
           5     0.00150    -0.44058     0.53158     0.00527     0.50185     0.07085
           6    -0.34260     0.35488     0.29663     0.10388     0.34110    -0.00285
           7     0.07075    -0.03415    -0.07512     0.48579     0.03633    -0.49705
           8    -0.44376     0.11649     0.00052     0.00187    -0.02554     0.07314
           9     0.06350    -0.02797     0.07646    -0.49309     0.03456    -0.48773
          10    -0.37819     0.36279    -0.28643    -0.10286     0.33392    -0.00234
          11     0.02610    -0.44621    -0.53594    -0.00899     0.50622     0.06601
          12    -0.34929    -0.39037     0.27044    -0.09833    -0.31637     0.00192
          13     0.00234     0.00325     0.02050    -0.00797    -0.01260     0.00827
          14    -0.00225     0.03429     0.06055     0.00183    -0.05490    -0.00911
          15     0.00055    -0.00059    -0.01760    -0.00713     0.01011    -0.00867
          16     0.04026     0.01474     0.03045     0.00055     0.01065     0.00448
          17    -0.00217     0.01298     0.00026     0.00000    -0.01453    -0.00731
          18     0.03691     0.01598    -0.03128    -0.00055     0.01051     0.00451
          19     0.00052    -0.00107     0.01789     0.00709     0.01031    -0.00860
          20    -0.00023     0.03381    -0.06033    -0.00151    -0.05472    -0.00935
          21     0.00242     0.00354    -0.02090     0.00788    -0.01295     0.00834
          22     0.09241     0.02852    -0.06118    -0.48100    -0.03606     0.49705
          23     0.44745     0.10371    -0.00107    -0.00106    -0.02246     0.01810
          24     0.08757     0.02699     0.05912     0.48906    -0.03487     0.49060



 ----------------------------------------------------------------------------
 Normal Eigenvalue ||    Projected Derivative Dipole Moments (debye/angs)
  Mode   [cm**-1]  ||      [d/dqX]             [d/dqY]           [d/dqZ]
 ------ ---------- || ------------------ ------------------ -----------------
    1       -0.000 ||      -0.014               0.184             0.552
    2       -0.000 ||      -0.076               0.588            -0.239
    3        0.000 ||       0.312               0.300             0.294
    4        0.000 ||      -0.085               0.431             0.142
    5        0.000 ||       0.132              -0.187             0.608
    6        0.000 ||       0.853               0.015             0.102
    7       90.098 ||      -0.102              -0.062            -0.062
    8      200.043 ||       0.035              -1.077            -0.003
    9      232.441 ||       0.233               0.190             0.250
   10      254.323 ||      -0.000               0.010             0.020
   11      322.910 ||      -0.724              -0.049             0.728
   12      334.048 ||       0.061              -0.276            -0.035
   13      397.233 ||       0.022              -0.843             0.011
   14      463.937 ||       0.009              -1.077             0.006
   15      745.882 ||      -1.173               0.021            -1.010
   16      773.038 ||       2.341               0.013            -2.415
   17      798.279 ||      -0.214              -0.009             0.236
   18      856.830 ||       1.804               0.027            -1.937
   19      899.972 ||       0.929              -0.028             0.778
   20      946.704 ||       0.015               1.910             0.091
   21     1143.148 ||       1.752               0.018            -1.783
   22     1156.774 ||      -0.001               0.012            -0.003
   23     1242.089 ||      -0.044              -2.279            -0.054
   24     1960.808 ||      -0.098              -3.842            -0.109
 ----------------------------------------------------------------------------



  
  
 ----------------------------------------------------------------------------
 Normal Eigenvalue ||           Projected Infra Red Intensities
  Mode   [cm**-1]  || [atomic units] [(debye/angs)**2] [(KM/mol)] [arbitrary]
 ------ ---------- || -------------- ----------------- ---------- -----------
    1       -0.000 ||    0.014677           0.339        14.307       1.379
    2       -0.000 ||    0.017712           0.409        17.266       1.665
    3        0.000 ||    0.011873           0.274        11.575       1.116
    4        0.000 ||    0.009240           0.213         9.008       0.868
    5        0.000 ||    0.018262           0.421        17.803       1.716
    6        0.000 ||    0.032019           0.739        31.214       3.009
    7       90.098 ||    0.000781           0.018         0.761       0.073
    8      200.043 ||    0.050360           1.162        49.093       4.733
    9      232.441 ||    0.006629           0.153         6.463       0.623
   10      254.323 ||    0.000021           0.000         0.021       0.002
   11      322.910 ||    0.045842           1.058        44.690       4.309
   12      334.048 ||    0.003508           0.081         3.420       0.330
   13      397.233 ||    0.030851           0.712        30.075       2.900
   14      463.937 ||    0.050302           1.161        49.037       4.728
   15      745.882 ||    0.103882           2.397       101.269       9.764
   16      773.038 ||    0.490387          11.314       478.054      46.091
   17      798.279 ||    0.004412           0.102         4.301       0.415
   18      856.830 ||    0.303752           7.008       296.112      28.549
   19      899.972 ||    0.063700           1.470        62.098       5.987
   20      946.704 ||    0.158470           3.656       154.484      14.894
   21     1143.148 ||    0.270874           6.249       264.061      25.459
   22     1156.774 ||    0.000006           0.000         0.006       0.001
   23     1242.089 ||    0.225293           5.198       219.627      21.175
   24     1960.808 ||    0.640651          14.780       624.538      60.214
 ----------------------------------------------------------------------------



 vib:animation  F

 Task  times  cpu:     1162.8s     wall:     1244.3s
 
 
                                NWChem Input Module
                                -------------------
 
 
 Summary of allocated global arrays
-----------------------------------
  No active global arrays



                         GA Statistics for process    0
                         ------------------------------

       create   destroy   get      put      acc     scatter   gather  read&inc
calls: 8957     8957     3.00e+06 1.29e+05 6.14e+05    0        0     6.54e+04 
number of processes/call 1.11e+00 1.60e+00 1.02e+00 0.00e+00 0.00e+00
bytes total:             1.59e+10 4.67e+08 2.87e+09 0.00e+00 0.00e+00 5.23e+05
bytes remote:            1.07e+10 1.59e+08 1.93e+09 0.00e+00 0.00e+00 0.00e+00
Max memory consumed for GA by this process: 3998208 bytes
 
MA_summarize_allocated_blocks: starting scan ...
MA_summarize_allocated_blocks: scan completed: 0 heap blocks, 0 stack blocks
MA usage statistics:

	allocation statistics:
					      heap	     stack
					      ----	     -----
	current number of blocks	         0	         0
	maximum number of blocks	        25	        54
	current total bytes		         0	         0
	maximum total bytes		   1803976	  33589032
	maximum total K-bytes		      1804	     33590
	maximum total M-bytes		         2	        34
 
 
                                     CITATION
                                     --------
                Please cite the following reference when publishing
                           results obtained with NWChem:
 
                 M. Valiev, E.J. Bylaska, N. Govind, K. Kowalski,
              T.P. Straatsma, H.J.J. van Dam, D. Wang, J. Nieplocha,
                        E. Apra, T.L. Windus, W.A. de Jong
                 "NWChem: a comprehensive and scalable open-source
                  solution for large scale molecular simulations"
                      Comput. Phys. Commun. 181, 1477 (2010)
                           doi:10.1016/j.cpc.2010.04.018
 
                                      AUTHORS
                                      -------
          E. Apra, E. J. Bylaska, W. A. de Jong, N. Govind, K. Kowalski,
       T. P. Straatsma, M. Valiev, H. J. J. van Dam, D. Wang, T. L. Windus,
        J. Hammond, J. Autschbach, K. Bhaskaran-Nair, J. Brabec, K. Lopata,
        S. Krishnamoorthy, W. Ma, M. Klemm, O. Villa, Y. Chen, V. Anisimov,
    F. Aquino, S. Hirata, M. T. Hackler, T. Risthaus, M. Malagoli, A. Marenich,
   A. Otero-de-la-Roza, J. Mullin, P. Nichols, R. Peverati, J. Pittner, Y. Zhao,
         P.-D. Fan, A. Fonari, R. J. Harrison, M. Dupuis, D. Silverstein,
    D. M. A. Smith, J. Nieplocha, V. Tipparaju, M. Krishnan, B. E. Van Kuiken,
        A. Vazquez-Mayagoitia, L. Jensen, M. Swart, Q. Wu, T. Van Voorhis,
     A. A. Auer, M. Nooijen, L. D. Crosby, E. Brown, G. Cisneros, G. I. Fann,
   H. Fruchtl, J. Garza, K. Hirao, R. A. Kendall, J. A. Nichols, K. Tsemekhman,
    K. Wolinski, J. Anchell, D. E. Bernholdt, P. Borowski, T. Clark, D. Clerc,
   H. Dachsel, M. J. O. Deegan, K. Dyall, D. Elwood, E. Glendening, M. Gutowski,
   A. C. Hess, J. Jaffe, B. G. Johnson, J. Ju, R. Kobayashi, R. Kutteh, Z. Lin,
   R. Littlefield, X. Long, B. Meng, T. Nakajima, S. Niu, L. Pollack, M. Rosing,
   K. Glaesemann, G. Sandrone, M. Stave, H. Taylor, G. Thomas, J. H. van Lenthe,
                               A. T. Wong, Z. Zhang.

 Total times  cpu:     1499.2s     wall:     1614.7s
