 argument  1 = paw.nw
                                         
                                         
 
 
              Northwest Computational Chemistry Package (NWChem) 4.5
              ------------------------------------------------------
 
 
                    Environmental Molecular Sciences Laboratory
                       Pacific Northwest National Laboratory
                                Richland, WA 99352
 
                                         
                                         
 
 
                     COPYRIGHT (C) 1994, 1995, 1996, 1997, 1998,
                            1999, 2000, 2001, 2002, 2003
                        Pacific Northwest National Laboratory,
                             Battelle Memorial Institute.
 
                            >>> All Rights Reserved <<<
 
 
                                    DISCLAIMER
                                    ----------

            This material was prepared as an account of work sponsored
            by an agency of the United States Government.  Neither the
            United States Government nor the United States Department
            of Energy, nor Battelle, nor any of their employees, MAKES
            ANY WARRANTY, EXPRESS OR IMPLIED, OR ASSUMES ANY LEGAL
            LIABILITY OR RESPONSIBILITY FOR THE ACCURACY, COMPLETENESS,
            OR USEFULNESS OF ANY INFORMATION, APPARATUS, PRODUCT,
            SOFTWARE, OR PROCESS DISCLOSED, OR REPRESENTS THAT ITS USE
            WOULD NOT INFRINGE PRIVATELY OWNED RIGHTS.


                                    LIMITED USE
                                    -----------

            This software (including any documentation) is being made
            available to you for your internal use only, solely for use
            in performance of work directly for the U.S. Federal
            Government or work under contracts with the U.S. Department
            of Energy or other U.S. Federal Government agencies.  This
            software is a version which has not yet been evaluated and
            cleared for commercialization.  Adherence to this notice
            may be necessary for the author, Battelle Memorial
            Institute, to successfully assert copyright in and
            commercialize this software. This software is not intended
            for duplication or distribution to third parties without
            the permission of the Manager of Software Products at
            Pacific Northwest National Laboratory, Richland,
            Washington, 99352.


                                  ACKNOWLEDGMENT
                                  --------------

            This software and its documentation were produced with
            Government support under Contract Number DE-AC06-76RLO-1830
            awarded by the United States Department of Energy.  The
            Government retains a paid-up non-exclusive, irrevocable
            worldwide license to reproduce, prepare derivative works,
            perform publicly and display publicly by or for the
            Government, including the right to distribute to other
            Government contractors.


           Job information
           ---------------

    hostname      = wd37120.pnl.gov
    program       = nwchem
    date          = Sat Mar 22 11:48:05 2003

    compiled      = Sat Mar 22 11:47:55 PST 2003
    source        = /home/bylaska/nwchem
    nwchem branch = Development
    input         = paw.nw
    prefix        = paw_test.
    data base     = ./paw_test.db
    status        = startup
    nproc         =    1
    time left     =     -1s



           Memory information
           ------------------

    heap      =   19660794 doubles =    150.0 Mbytes
    stack     =    6553587 doubles =     50.0 Mbytes
    global    =   26214404 doubles =    200.0 Mbytes (within heap+stack)
    total     =   26214381 doubles =    200.0 Mbytes
    verify    = yes
    hardfail  = no 


           Directory information
           ---------------------
 
  0 permanent = .
  0 scratch   = .
 
 
 
 
                                NWChem Input Module
                                -------------------
 
 
                                                                                                                    paw steepest descent test
                                                                                                                    -------------------------
 
 
 
                             Geometry "geometry" -> ""
                             -------------------------
 
 Output coordinates in a.u. (scale by  1.000000000 to convert to a.u.)
 
  No.       Tag          Charge          X              Y              Z
 ---- ---------------- ---------- -------------- -------------- --------------
    1 O                    8.0000     0.00000000     0.00000000     0.01390000
    2 H                    1.0000    -1.49490000     0.00000000    -1.18710000
    3 H                    1.0000     1.49490000     0.00000000    -1.18710000
 
      Atomic Mass 
      ----------- 
 
      O                 15.994910
      H                  1.007825
 

 Effective nuclear repulsion energy (a.u.)       8.6783047629

            Nuclear Dipole moment (a.u.) 
            ----------------------------
        X                 Y               Z
 ---------------- ---------------- ----------------
     0.0000000000     0.0000000000    -2.2630000000
 
 ==============================================================================
                                internuclear distances
 ------------------------------------------------------------------------------
       center one      |      center two      | atomic units |       a.u.
 ------------------------------------------------------------------------------
    2 H                |   1 O                |     1.91758  |     1.91758
    3 H                |   1 O                |     1.91758  |     1.91758
 ------------------------------------------------------------------------------
                         number of included internuclear distances:          2
 ==============================================================================



 ==============================================================================
                                 internuclear angles
 ------------------------------------------------------------------------------
        center 1       |       center 2       |       center 3       |  degrees
 ------------------------------------------------------------------------------
    2 H                |   1 O                |   3 H                |   102.44
 ------------------------------------------------------------------------------
                            number of included internuclear angles:          1
 ==============================================================================



          ****************************************************
          *                                                  *
          *               NWPW PSPW Calculation              *
          *                                                  *
          *  [ (Grassman/Stiefel manifold implementation) ]  *
          *                                                  *
          *      [ NorthWest Chemistry implementation ]      *
          *                                                  *
          *            version #5.10   06/12/02              *
          *                                                  *
          *    This code was developed by Eric J. Bylaska,   *
          *    and was based upon algorithms and code        *
          *    developed by the group of Prof. John H. Weare *
          *                                                  *
          ****************************************************
     >>>  JOB STARTED       AT Sat Mar 22 11:48:05 2003  <<<
          ================ input data ========================
  library name resolved from: compiled reference
  library file name is: </home/bylaska/nwchem/src/nwpw/libraryps/library1/O >
  
 Generating 1d pseudopotential for O 
 + generated using Vosko et al.
 
 Generated formatted_filename: ./O.vpp
 
  library name resolved from: compiled reference
  library file name is: </home/bylaska/nwchem/src/nwpw/libraryps/library1/H >
  
 Generating 1d pseudopotential for H 
 + generated using Vosko et al.
 
 Generated formatted_filename: ./H.vpp
 
 
 Generated formatted atomic orbitals, filename: ./O.aorb
 
 
 Generated formatted atomic orbitals, filename: ./H.aorb
 
 lcao guess, initial psi:paw_test.movecs               
 -   spin, nalpha, nbeta:           1           4           0

 number of processors used:  1

 options:
      boundary conditions   = periodic    (version3)
      electron spin        = restricted
      exchange-correlation = Vosko et al parameterization

 elements involved in the cluster:
      1: O   core charge: 6.0  lmax=2
             highest angular component      :  2
             local potential used           :  2
             number of non-local projections:  4
             cutoff =   0.700   0.700   0.700
      2: H   core charge: 1.0  lmax=1
             highest angular component      :  1
             local potential used           :  1
             number of non-local projections:  1
             cutoff =   0.800   0.800

 total charge: 0

 atomic composition:
     O :  1     H :  2

 position of ions (au):
        1 O  (    0.00000    0.00000    0.01390 ) - atomic mass=  15.995 
        2 H  (   -1.49490    0.00000   -1.18710 ) - atomic mass=   1.008 
        3 H  (    1.49490    0.00000   -1.18710 ) - atomic mass=   1.008 
       G.C.  (    0.00000    0.00000   -0.78677 )
      C.O.M. (    0.00000    0.00000   -0.12051 )

 number of active electrons: spin up=  4  spin down=  4 (fourier space)

 supercell:
      lattice:    a1=<  20.000   0.000   0.000 >
                  a2=<   0.000  20.000   0.000 >
                  a3=<   0.000   0.000  20.000 >
      reciprocal: b1=<   0.314   0.000   0.000 >
                  b2=<   0.000   0.314   0.000 >
                  b3=<   0.000   0.000   0.314 >

      lattice:    a=  20.000    b=  20.000     c=  20.000
              alpha=  90.000 beta=  90.000 gamma=  90.000
      volume :     8000.0
      density cutoff= 12.633  fft= 32x 32x 32(     8536 waves     8536 per task)
      wavefnc cutoff= 12.633  fft= 32x 32x 32(     8536 waves     8536 per task)
      ewald summation: cut radius=    1.50  and  1
                        mandelung= 1.76011888

 technical parameters:
      time step=     15.80     ficticious mass=  400000.0
      tolerance=.100E-07 (energy)   0.100E-07 (density)





== Energy Calculation ==


          ============ Grassmann lmbfgs iteration ============
     >>>  ITERATION STARTED AT Sat Mar 22 11:48:20 2003  <<<
    iter.           Energy         DeltaE       DeltaRho 
    ------------------------------------------------------
     -  15 steepest descent iterations performed
      10   -0.1638725442E+02   -0.36856E-03    0.13441E+00
      20   -0.1638777944E+02   -0.10093E-05    0.21379E-04
      30   -0.1638778052E+02   -0.60569E-08    0.23771E-08
  *** tolerance ok. iteration terminated
     >>>  ITERATION ENDED   AT Sat Mar 22 11:48:31 2003  <<<


==  Summary Of Results  ==
 
 number of electrons: spin up=    4.00000  down=    4.00000 (real space)

 total     energy    :  -0.1638778052E+02 (   -0.54626E+01/ion)
 total orbital energy:  -0.4223723219E+01 (   -0.10559E+01/electron)
 hartree   energy    :   0.1543484768E+02 (    0.38587E+01/electron)
 exc-corr  energy    :  -0.3884726696E+01 (   -0.97118E+00/electron)
 ion-ion   energy    :   0.2066609816E+01 (    0.68887E+00/ion)

 K.S. kinetic energy :   0.9889714906E+01 (    0.24724E+01/electron)
 K.S. V_l  energy    :  -0.3995058849E+02 (   -0.99876E+01/electron)
 K.S. V_nl energy    :   0.5636226638E-01 (    0.14091E-01/electron)
 K.S. V_Hart energy  :   0.3086969536E+02 (    0.77174E+01/electron)
 K.S. V_xc energy    :  -0.5088907255E+01 (   -0.12722E+01/electron)
 Virial Coefficient  :  -0.1427082404E+01

 orbital energies:
    -0.2493566E+00 (  -6.785eV)
    -0.3594019E+00 (  -9.780eV)
    -0.4661302E+00 ( -12.684eV)
    -0.1036973E+01 ( -28.218eV)

 Total PSPW energy   :  -0.1638778052E+02


=== Spin Contamination ===
 
 <Sexact^2> =    0.00000000000000D+000
 <S^2>      =    0.00000000000000D+000
 


== Center of Charge ==

spin up     (    0.0000,    0.0000,   -0.2201 )
spin down   (    0.0000,    0.0000,   -0.2201 )
     total  (    0.0000,    0.0000,   -0.2201 )
ionic       (    0.0000,    0.0000,   -0.2863 )


== Molecular Dipole ==

mu   =  (    0.0004,    0.0003,   -0.5303 ) au
|mu| =     0.5303 au,       1.3477 Debye
 
 -----------------
 cputime in seconds
 prologue    :    14.6016340000000     
 main loop   :    11.3278760000000     
 epilogue    :    1.79760000000009D-002
 total       :    25.9474860000000     
 cputime/step:   0.147115272727273         (          77  evalulations, 
          28  line searches)
 
 -------------------------------
 Time spent doing:
   FFTs                       :    4.90659400000006        6.37220000000008D-002
   dot products               :   0.705915999999924        9.16774025973927D-003
   geodesic                   :    1.03966999999995        1.35022077922072D-002
   exchange correlation       :    1.44545400000001        1.87721298701300D-002
   local pseudopotentials     :    9.83199999999940D-003   1.27688311688304D-004
   non-local pseudopotentials :    1.41498000000001        1.83763636363638D-002
   hartree potentials         :    7.32880000000336D-002   9.51792207792644D-004
   structure factors          :   0.147654000000014        1.91758441558459D-003
   masking and packing        :   0.990620000000039        1.28651948051953D-002
 
     >>>  JOB COMPLETED     AT Sat Mar 22 11:48:31 2003  <<<

 Task  times  cpu:       17.5s     wall:       25.9s
 
 
                                NWChem Input Module
                                -------------------
 
 
 >>>> PAW Parallel Module - steepest_descent <<<<
          ****************************************************
          *                                                  *
          *           PAW microcluster calculation           *
          *                                                  *
          *     [     steepest descent minimization   ]      *
          *                                                  *
          *     [ NorthWest Chemistry implementation ]       *
          *                                                  *
          *            version #1.00   08/01/02              *
          *                                                  *
          *    Authors: Marat Valiev and Eric J. Bylaska     *
          *                                                  *
          *    This code is based upon algorithms and code   *
          *    developed by the group of Prof. John H. Weare *
          *                                                  *
          ****************************************************
     >>>  JOB STARTED       AT Sat Mar 22 11:48:31 2003  <<<
          ================ PAW input data ===================
  library name resolved from: compiled reference
  library file name is: </home/bylaska/nwchem/src/nwpw/libraryps/library2/O _bas
 is>
  
  library name resolved from: compiled reference
  library file name is: </home/bylaska/nwchem/src/nwpw/libraryps/library2/H _bas
 is>
  
 
  Generated formatted filename:
 ./O.jpp                                                                        
                                                                                
                                                                                
                   
 
  Generated formatted filename:
 ./H.jpp                                                                        
                                                                                
                                                                                
                   
 Warning: Gram-Schmidt performed on up spin of psi2 
        : (old error=  0.132536892628676       new error=
   1.33677405008244D-014 )

 number of processors used:  1

 options:
      ionic motion         = no
      boundary conditions   = periodic    (version3)
      electron spin        = restricted
      exchange-correlation = Vosko et al parameterization

 elements involved in the cluster:
      1: O   ion charge: 8.0  core charge: 2.0
             augmentation sphere radius  : 1.785
             compensation sigma          : 0.147
             total number of projectors  : 13
             n_ps (n) l          eig    #projector
                1 (2) s    -0.871362             1
                2 (2) p    -0.338381             3
                3 (3) d     0.100000             5
                2 (3) s    -0.004483             1
                3 (3) p     0.100000             3
      2: H   ion charge: 1.0  core charge: 0.0
             augmentation sphere radius  : 0.892
             compensation sigma          : 0.071
             total number of projectors  :  9
             n_ps (n) l          eig    #projector
                1 (1) s    -0.233471             1
                2 (2) p     2.000000             3
                3 (3) d     2.000000             5

 total charge: 0

 atomic composition:
     O :  1     H :  2

 initial position of ions:
        1 O  (    0.00000    0.00000    0.01390 ) - atomic mass=  15.995 
        2 H  (   -1.49490    0.00000   -1.18710 ) - atomic mass=   1.008 
        3 H  (    1.49490    0.00000   -1.18710 ) - atomic mass=   1.008 
       G.C.  (    0.00000    0.00000   -0.78677 )
      C.O.M. (    0.00000    0.00000   -0.12051 )

 number of electrons: spin up=  4  spin down=  4 ( fourier space)

 supercell:
      lattice:    a1=<  20.000   0.000   0.000 >
                  a2=<   0.000  20.000   0.000 >
                  a3=<   0.000   0.000  20.000 >
      reciprocal: b1=<   0.314   0.000   0.000 >
                  b2=<   0.000   0.314   0.000 >
                  b3=<   0.000   0.000   0.314 >
      volume :     8000.0
      density cutoff= 12.633  fft= 32x 32x 32(     8536 waves     8536 per task)
      wavefnc cutoff= 12.633  fft= 32x 32x 32(     8536 waves     8536 per task)
      smooth compensation (ewald) summation: cut radius=    1.50  and  0

 technical parameters:
      time step=     15.80     ficticious mass=  400000.0
      tolerance=.100E-07 (energy)   0.100E-07 (electron)   0.000E+00 (ion)



          ================ iteration =========================
     >>>  ITERATION STARTED AT Sat Mar 22 11:50:06 2003  <<<
    iter.           Energy         DeltaE       DeltaRho 
    ------------------------------------------------------
      10   -0.7578314955E+02   -0.47964E+00    0.35570E-04    0.00000E+00
      20   -0.7578564766E+02   -0.15811E-04    0.15599E-04    0.00000E+00
      30   -0.7578667612E+02   -0.65092E-05    0.89115E-05    0.00000E+00
      40   -0.7578724797E+02   -0.36193E-05    0.51705E-05    0.00000E+00
      50   -0.7578759823E+02   -0.22168E-05    0.30614E-05    0.00000E+00
      60   -0.7578782539E+02   -0.14378E-05    0.20902E-05    0.00000E+00
      70   -0.7578797903E+02   -0.97241E-06    0.15857E-05    0.00000E+00
      80   -0.7578808649E+02   -0.68009E-06    0.12261E-05    0.00000E+00
      90   -0.7578816375E+02   -0.48903E-06    0.96134E-06    0.00000E+00
     100   -0.7578822063E+02   -0.35996E-06    0.76187E-06    0.00000E+00
     110   -0.7578826332E+02   -0.27023E-06    0.60893E-06    0.00000E+00
     120   -0.7578829592E+02   -0.20629E-06    0.49005E-06    0.00000E+00
     130   -0.7578832115E+02   -0.15973E-06    0.39664E-06    0.00000E+00
     140   -0.7578834093E+02   -0.12516E-06    0.32260E-06    0.00000E+00
     150   -0.7578835658E+02   -0.99064E-07    0.26348E-06    0.00000E+00
     160   -0.7578836908E+02   -0.79085E-07    0.21597E-06    0.00000E+00
     170   -0.7578837912E+02   -0.63594E-07    0.17760E-06    0.00000E+00
     180   -0.7578838725E+02   -0.51455E-07    0.14645E-06    0.00000E+00
     190   -0.7578839387E+02   -0.41854E-07    0.12108E-06    0.00000E+00
     200   -0.7578839927E+02   -0.34200E-07    0.10033E-06    0.00000E+00
     210   -0.7578840370E+02   -0.28055E-07    0.83310E-07    0.00000E+00
     220   -0.7578840735E+02   -0.23094E-07    0.69308E-07    0.00000E+00
     230   -0.7578841036E+02   -0.19067E-07    0.57758E-07    0.00000E+00
     240   -0.7578841286E+02   -0.15785E-07    0.48210E-07    0.00000E+00
     250   -0.7578841493E+02   -0.13098E-07    0.40298E-07    0.00000E+00
     260   -0.7578841665E+02   -0.10892E-07    0.33731E-07    0.00000E+00
     270   -0.7578841808E+02   -0.90740E-08    0.28269E-07    0.00000E+00
     280   -0.7578841928E+02   -0.75728E-08    0.23719E-07    0.00000E+00
     290   -0.7578842028E+02   -0.63298E-08    0.19923E-07    0.00000E+00
     300   -0.7578842112E+02   -0.52983E-08    0.16752E-07    0.00000E+00
     310   -0.7578842182E+02   -0.44407E-08    0.14099E-07    0.00000E+00
     320   -0.7578842241E+02   -0.37264E-08    0.11876E-07    0.00000E+00
     330   -0.7578842290E+02   -0.31305E-08    0.10012E-07    0.00000E+00
     340   -0.7578842332E+02   -0.26325E-08    0.84475E-08    0.00000E+00
  *** tolerance ok.     iteration terminated.
     >>>  ITERATION ENDED   AT Sat Mar 22 11:53:53 2003  <<<



          =============  summary of results  =================
 final position of ions:
        1 O  (    0.00000    0.00000    0.01390 ) - atomic mass=  15.995 
        2 H  (   -1.49490    0.00000   -1.18710 ) - atomic mass=   1.008 
        3 H  (    1.49490    0.00000   -1.18710 ) - atomic mass=   1.008 
       G.C.  (    0.00000    0.00000   -0.78677 )
      C.O.M. (    0.00000    0.00000   -0.12051 )
 
 total charge of system:    0.00000 (real space)


 Total Energy:                -0.7578842332E+02 (   -0.25263E+02/ion)

  kinetic energy:              0.7528677886E+02 (    0.18822E+02/ion)
      plane wave:              0.9695151757E+01 (    0.24238E+01/ion)
     local basis:              0.6559162710E+02 (    0.16398E+02/ion)

  coulomb energy:
      plane wave:             -0.6082302036E+01 (   -0.15206E+01/ion)
     local basis:             -0.2169103367E+03 (   -0.54228E+02/ion)
       multipole:              0.8032606360E+02 (    0.20082E+02/ion)

 exch-corr energy:
       plane wave:            -0.3692710348E+01 (   -0.92318E+00/ion)
      local basis:            -0.4982748464E+01 (   -0.12457E+01/ion)

 pseudopot energy:
       plane wave:             0.8276141657E+01 (    0.20690E+01/ion)
      local basis:            -0.8009309853E+01 (   -0.20023E+01/ion)

 orbital energies:
    -0.2581070E+00 (  -7.024eV)
    -0.3375546E+00 (  -9.185eV)
    -0.4526845E+00 ( -12.318eV)
    -0.9172363E+00 ( -24.959eV)

 Total PAW energy   :  -0.7578842332E+02
 
 -----------------
 cputime in seconds
 prologue    :    95.0188540000000     
 main loop   :    226.792036000000     
 epilogue    :   0.277420000000006     
 total       :    322.088310000000     
 cputime/step:   0.667035400000000     
 
 -------------------------------
 Time spent doing:
   FFTs                       :    21.7410280000004     
   dot products               :    47.1059580000442     
   orthonormalization         :    47.2119099999994     
   exchange correlation       :    7.70713600000016     
   local pseudopotentials     :   0.705536000000279     
   non-local pseudopotentials :    0.00000000000000D+000
   hartree potentials         :   0.191906000000301     
   structure factors          :    2.74548399999946     
   masking and packing        :    3.72366999999963     
   total energy evaluation    :   0.671512000000064     
   density                    :    0.00000000000000D+000
   allocate and deallocate    :   0.199906000000340     
   Hpsi and update            :    26.7156679999999     
 
     >>>  JOB COMPLETED     AT Sat Mar 22 11:53:54 2003  <<<

 Task  times  cpu:      307.3s     wall:      322.1s
 
 
                                NWChem Input Module
                                -------------------
 
 
 >>>> PAW Parallel Module - steepest_descent <<<<
          ****************************************************
          *                                                  *
          *           PAW microcluster calculation           *
          *                                                  *
          *     [     steepest descent minimization   ]      *
          *                                                  *
          *     [ NorthWest Chemistry implementation ]       *
          *                                                  *
          *            version #1.00   08/01/02              *
          *                                                  *
          *    Authors: Marat Valiev and Eric J. Bylaska     *
          *                                                  *
          *    This code is based upon algorithms and code   *
          *    developed by the group of Prof. John H. Weare *
          *                                                  *
          ****************************************************
     >>>  JOB STARTED       AT Sat Mar 22 11:53:54 2003  <<<
          ================ PAW input data ===================

 number of processors used:  1

 options:
      ionic motion         = yes
      boundary conditions   = periodic    (version3)
      electron spin        = restricted
      exchange-correlation = Vosko et al parameterization

 elements involved in the cluster:
      1: O   ion charge: 8.0  core charge: 2.0
             augmentation sphere radius  : 1.785
             compensation sigma          : 0.147
             total number of projectors  : 13
             n_ps (n) l          eig    #projector
                1 (2) s    -0.871362             1
                2 (2) p    -0.338381             3
                3 (3) d     0.100000             5
                2 (3) s    -0.004483             1
                3 (3) p     0.100000             3
      2: H   ion charge: 1.0  core charge: 0.0
             augmentation sphere radius  : 0.892
             compensation sigma          : 0.071
             total number of projectors  :  9
             n_ps (n) l          eig    #projector
                1 (1) s    -0.233471             1
                2 (2) p     2.000000             3
                3 (3) d     2.000000             5

 total charge: 0

 atomic composition:
     O :  1     H :  2

 initial position of ions:
        1 O  (    0.00000    0.00000    0.01390 ) - atomic mass=  15.995 
        2 H  (   -1.49490    0.00000   -1.18710 ) - atomic mass=   1.008 
        3 H  (    1.49490    0.00000   -1.18710 ) - atomic mass=   1.008 
       G.C.  (    0.00000    0.00000   -0.78677 )
      C.O.M. (    0.00000    0.00000   -0.12051 )

 number of electrons: spin up=  4  spin down=  4 ( fourier space)

 supercell:
      lattice:    a1=<  20.000   0.000   0.000 >
                  a2=<   0.000  20.000   0.000 >
                  a3=<   0.000   0.000  20.000 >
      reciprocal: b1=<   0.314   0.000   0.000 >
                  b2=<   0.000   0.314   0.000 >
                  b3=<   0.000   0.000   0.314 >
      volume :     8000.0
      density cutoff= 12.633  fft= 32x 32x 32(     8536 waves     8536 per task)
      wavefnc cutoff= 12.633  fft= 32x 32x 32(     8536 waves     8536 per task)
      smooth compensation (ewald) summation: cut radius=    1.50  and  0

 technical parameters:
      time step=      5.80     ficticious mass=  400000.0
      tolerance=.100E-06 (energy)   0.100E-06 (electron)   0.100E-03 (ion)



          ================ iteration =========================
     >>>  ITERATION STARTED AT Sat Mar 22 11:54:12 2003  <<<
    iter.           Energy         DeltaE       DeltaRho 
    ------------------------------------------------------
      10   -0.7578842349E+02   -0.13067E+01    0.28277E-08    0.62151E-04
      20   -0.7578842363E+02   -0.23575E-08    0.26062E-08    0.26296E-04
  *** tolerance ok.     iteration terminated.
     >>>  ITERATION ENDED   AT Sat Mar 22 11:55:00 2003  <<<



          =============  summary of results  =================
 final position of ions:
        1 O  (    0.00000    0.00000    0.01388 ) - atomic mass=  15.995 
        2 H  (   -1.49509    0.00000   -1.18722 ) - atomic mass=   1.008 
        3 H  (    1.49509    0.00000   -1.18722 ) - atomic mass=   1.008 
       G.C.  (    0.00000    0.00000   -0.78685 )
      C.O.M. (    0.00000    0.00000   -0.12054 )
 
 total charge of system:    0.00000 (real space)


 Total Energy:                -0.7578842363E+02 (   -0.25263E+02/ion)

  kinetic energy:              0.7528654992E+02 (    0.18822E+02/ion)
      plane wave:              0.9695111490E+01 (    0.24238E+01/ion)
     local basis:              0.6559143843E+02 (    0.16398E+02/ion)

  coulomb energy:
      plane wave:             -0.6082154880E+01 (   -0.15205E+01/ion)
     local basis:             -0.2169102882E+03 (   -0.54228E+02/ion)
       multipole:              0.8032607242E+02 (    0.20082E+02/ion)

 exch-corr energy:
       plane wave:            -0.3692697495E+01 (   -0.92317E+00/ion)
      local basis:            -0.4982739651E+01 (   -0.12457E+01/ion)

 pseudopot energy:
       plane wave:             0.8275998686E+01 (    0.20690E+01/ion)
      local basis:            -0.8009164434E+01 (   -0.20023E+01/ion)

 orbital energies:
    -0.2580380E+00 (  -7.022eV)
    -0.3374851E+00 (  -9.184eV)
    -0.4526070E+00 ( -12.316eV)
    -0.9171290E+00 ( -24.957eV)

 Total PAW energy   :  -0.7578842363E+02
 
 -----------------
 cputime in seconds
 prologue    :    18.7857740000000     
 main loop   :    48.1296760000000     
 epilogue    :   0.290999999999997     
 total       :    67.2064500000000     
 cputime/step:    2.40648380000000     
 
 -------------------------------
 Time spent doing:
   FFTs                       :    1.28604599999983     
   dot products               :    4.08140599999911     
   orthonormalization         :    2.84685000000013     
   exchange correlation       :   0.459257999999977     
   local pseudopotentials     :   0.141525999999828     
   non-local pseudopotentials :    0.00000000000000D+000
   hartree potentials         :    1.23700000001463D-002
   structure factors          :   0.214110000000744     
   masking and packing        :   0.362494000000140     
   total energy evaluation    :    3.59579999999937D-002
   density                    :    0.00000000000000D+000
   allocate and deallocate    :    1.20099999999184D-002
   Hpsi and update            :    1.57468800000021     
 
     >>>  JOB COMPLETED     AT Sat Mar 22 11:55:01 2003  <<<

 Task  times  cpu:       65.1s     wall:       67.2s
 
 
                                NWChem Input Module
                                -------------------
 
 
 Creating datafile for Kleinman-Bylander input: ./O.psp
  + Appending pseudopotentials:    s thru d
  + Appending pseudowavefunctions: s thru d
 Creating datafile for Kleinman-Bylander input: ./H.psp
  + Appending pseudopotentials:    s thru p
  + Appending pseudowavefunctions: s thru p
 Summary of allocated global arrays
-----------------------------------
  No active global arrays



                         GA Statistics for process    0
                         ------------------------------

       create   destroy   get      put      acc     scatter   gather  read&inc
calls:    8        8       10        1        0        0        0        0     
number of processes/call 1.00e+00 1.00e+00 0.00e+00 0.00e+00 0.00e+00
bytes total:             9.60e+02 2.88e+02 0.00e+00 0.00e+00 0.00e+00 0.00e+00
bytes remote:            0.00e+00 0.00e+00 0.00e+00 0.00e+00 0.00e+00 0.00e+00
Max memory consumed for GA by this process: 2304 bytes
 



                                  ACKNOWLEDGEMENT
                                  ---------------

            Please use the following acknowledgement where appropriate 
            for results obtained with NWChem:

            High Performance Computational Chemistry Group, "NWChem, A
            Computational Chemistry Package for Parallel Computers, 
            Version 4.5" (2003), Pacific Northwest National Laboratory,
            Richland, Washington 99352-0999, USA.


                                     CITATION
                                     --------

            Please use the following citation when publishing results
            obtained with NWChem:

            E. Apra, E. J. Bylaska,  W. de Jong, M. T. Hackler, S. Hirata,
            L. Pollack, D. Smith, T. P. Straatsma, T. L. Windus, R. J. Harrison,
            J. Nieplocha, V. Tipparaju, M. Kumar,
            E. Brown, G. Cisneros, M. Dupuis, G. I. Fann, H. Fruchtl,
            J. Garza, K. Hirao, R. Kendall, J. A. Nichols,  K. Tsemekhman,
            M. Valiev, K. Wolinski,
            J. Anchell, D. Bernholdt, P. Borowski, T. Clark, D. Clerc,
            H. Dachsel, M. Deegan, K. Dyall, D. Elwood,  E. Glendening,
            M. Gutowski, A. Hess, J. Jaffe, B. Johnson, J. Ju, R. Kobayashi,
            R. Kutteh, Z. Lin, R. Littlefield, X. Long, B. Meng, T. Nakajima,
             S. Niu, M. Rosing, G. Sandrone,  M. Stave, H. Taylor, G. Thomas,
            J. van Lenthe, A. Wong, and Z. Zhang,
            "NWChem, A Computational Chemistry Package for Parallel Computers, 
            Version 4.5" (2003),
                      Pacific Northwest National Laboratory,
                      Richland, Washington 99352-0999, USA.



 Total times  cpu:      389.8s     wall:      415.7s
MA_summarize_allocated_blocks: starting scan ...
MA_summarize_allocated_blocks: scan completed: 0 heap blocks, 0 stack blocks
MA usage statistics:

	allocation statistics:
					      heap	     stack
					      ----	     -----
	current number of blocks	         0	         0
	maximum number of blocks	       198	        25
	current total bytes		         0	         0
	maximum total bytes		  15334828	   4586076
	maximum total K-bytes		     15335	      4587
	maximum total M-bytes		        16	         5
