HP-MPI licensed for ISV application.
All connections between all procs tested: SUCCESS
 argument  1 = bsse_dft_trimer.nw
 


============================== echo of input deck ==============================
Title "3FH-bsses"

Start 3FH-bsses

echo


geometry noautoz noautosym
F    -0.61683381    -1.18961304    -0.00027800
H     0.47944458    -0.87924415    -0.00001413
F    -0.72173048     1.12898147    -0.00028304
H    -1.00100544     0.02437024    -0.00003844
F     1.33877789     0.06048852    -0.00021261
H     0.52159348     0.85464976     0.00000567
end


basis "ao basis"
  H library 3-21g
  F library 3-21g
  bqH library H 3-21g
  bqF library F 3-21g
END

dft
 direct
 iterations 100
end

driver
clear
end

bsse
 mon uno 1 2
 mon dos 3 4
 mon tres 5 6
end

task dft energy
task dft freq
================================================================================


                                         
                                         
 
 
             Northwest Computational Chemistry Package (NWChem) 5.1.1
             --------------------------------------------------------
 
 
                    Environmental Molecular Sciences Laboratory
                       Pacific Northwest National Laboratory
                                Richland, WA 99352
 
                                         
                                         
 
 
                  COPYRIGHT (C) 1994, 1995, 1996, 1997, 1998, 1999
             2000, 2001, 2002, 2003, 2004, 2005, 2006, 2007, 2008, 2009
                        Pacific Northwest National Laboratory,
                             Battelle Memorial Institute.
 
                            >>> All Rights Reserved <<<
 
 
                                    DISCLAIMER
                                    ----------

            This material was prepared as an account of work sponsored
            by an agency of the United States Government.  Neither the
            United States Government nor the United States Department
            of Energy, nor Battelle, nor any of their employees, MAKES
            ANY WARRANTY, EXPRESS OR IMPLIED, OR ASSUMES ANY LEGAL
            LIABILITY OR RESPONSIBILITY FOR THE ACCURACY, COMPLETENESS,
            OR USEFULNESS OF ANY INFORMATION, APPARATUS, PRODUCT,
            SOFTWARE, OR PROCESS DISCLOSED, OR REPRESENTS THAT ITS USE
            WOULD NOT INFRINGE PRIVATELY OWNED RIGHTS.


                                    LIMITED USE
                                    -----------

            This software (including any documentation) is being made
            available to you for your internal use only, solely for use
            in performance of work directly for the U.S. Federal
            Government or work under contracts with the U.S. Department
            of Energy or other U.S. Federal Government agencies.  This
            software is a version which has not yet been evaluated and
            cleared for commercialization.  Adherence to this notice
            may be necessary for the author, Battelle Memorial
            Institute, to successfully assert copyright in and
            commercialize this software. This software is not intended
            for duplication or distribution to third parties without
            the permission of the Manager of Software Products at
            Pacific Northwest National Laboratory, Richland,
            Washington, 99352.


                                  ACKNOWLEDGMENT
                                  --------------

            This software and its documentation were produced with
            Government support under Contract Number DE-AC05-76RL01830
            awarded by the United States Department of Energy.  The
            Government retains a paid-up non-exclusive, irrevocable
            worldwide license to reproduce, prepare derivative works,
            perform publicly and display publicly by or for the
            Government, including the right to distribute to other
            Government contractors.


           Job information
           ---------------

    hostname      = cu0login2
    program       = /home/svc-nwchem/nwchem-5.1.1/bin/LINUX64/nwchem
    date          = Tue Nov  2 09:02:40 2010

    compiled      = Tue_Dec_29_11:15:24_2009
    source        = /home/niri/nwchem/nwchem-5.1.1_chinook/nwchem-5.1.1
    nwchem branch = 5.1.1
    input         = bsse_dft_trimer.nw
    prefix        = 3FH-bsses.
    data base     = ./3FH-bsses.db
    status        = startup
    nproc         =    1
    time left     =     -1s



           Memory information
           ------------------

    heap      =   13107201 doubles =    100.0 Mbytes
    stack     =   13107201 doubles =    100.0 Mbytes
    global    =   26214400 doubles =    200.0 Mbytes (distinct from heap & stack)
    total     =   52428802 doubles =    400.0 Mbytes
    verify    = yes
    hardfail  = no 


           Directory information
           ---------------------
 
  0 permanent = .
  0 scratch   = .
 
 
 
 
                                NWChem Input Module
                                -------------------
 
 
                                     3FH-bsses
                                     ---------

 Scaling coordinates for geometry "geometry" by  1.889725989
 (inverse scale =  0.529177249)

 
 
                             Geometry "geometry" -> ""
                             -------------------------
 
 Output coordinates in angstroms (scale by  1.889725989 to convert to a.u.)
 
  No.       Tag          Charge          X              Y              Z
 ---- ---------------- ---------- -------------- -------------- --------------
    1 F                    9.0000    -0.61689898    -1.18956265    -0.00004434
    2 H                    1.0000     0.47937941    -0.87919376     0.00021953
    3 F                    9.0000    -0.72179565     1.12903186    -0.00004938
    4 H                    1.0000    -1.00107061     0.02442063     0.00019522
    5 F                    9.0000     1.33871272     0.06053891     0.00002105
    6 H                    1.0000     0.52152831     0.85470015     0.00023933
 
      Atomic Mass 
      ----------- 
 
      F                 18.998400
      H                  1.007825
 

 Effective nuclear repulsion energy (a.u.)      86.1841020514

            Nuclear Dipole moment (a.u.) 
            ----------------------------
        X                 Y               Z
 ---------------- ---------------- ----------------
     0.0000000000     0.0000000000     0.0000000000
 
 
            XYZ format geometry
            -------------------
     6
 geometry
 F                    -0.61689898    -1.18956265    -0.00004434
 H                     0.47937941    -0.87919376     0.00021953
 F                    -0.72179565     1.12903186    -0.00004938
 H                    -1.00107061     0.02442063     0.00019522
 F                     1.33871272     0.06053891     0.00002105
 H                     0.52152831     0.85470015     0.00023933
 
  library name resolved from: environment
  library file name is: </home/svc-nwchem/nwchem-5.1.1/src/basis/libraries/>
  
                      Basis "ao basis" -> "" (cartesian)
                      -----
  H (Hydrogen)
  ------------
            Exponent  Coefficients 
       -------------- ---------------------------------------------------------
  1 S  5.44717800E+00  0.156285
  1 S  8.24547000E-01  0.904691
 
  2 S  1.83192000E-01  1.000000
 
  F (Fluorine)
  ------------
            Exponent  Coefficients 
       -------------- ---------------------------------------------------------
  1 S  4.13801000E+02  0.058548
  1 S  6.22446000E+01  0.349308
  1 S  1.34340000E+01  0.709632
 
  2 S  9.77759000E+00 -0.407327
  2 S  2.08617000E+00  1.223140
 
  3 P  9.77759000E+00  0.246680
  3 P  2.08617000E+00  0.852321
 
  4 S  4.82383000E-01  1.000000
 
  5 P  4.82383000E-01  1.000000
 
  bqH
  ---
            Exponent  Coefficients 
       -------------- ---------------------------------------------------------
  1 S  5.44717800E+00  0.156285
  1 S  8.24547000E-01  0.904691
 
  2 S  1.83192000E-01  1.000000
 
  bqF
  ---
            Exponent  Coefficients 
       -------------- ---------------------------------------------------------
  1 S  4.13801000E+02  0.058548
  1 S  6.22446000E+01  0.349308
  1 S  1.34340000E+01  0.709632
 
  2 S  9.77759000E+00 -0.407327
  2 S  2.08617000E+00  1.223140
 
  3 P  9.77759000E+00  0.246680
  3 P  2.08617000E+00  0.852321
 
  4 S  4.82383000E-01  1.000000
 
  5 P  4.82383000E-01  1.000000
 


 Summary of "ao basis" -> "" (cartesian)
 ------------------------------------------------------------------------------
       Tag                 Description            Shells   Functions and Types
 ---------------- ------------------------------  ------  ---------------------
 H                           3-21g                   2        2   2s
 F                           3-21g                   5        9   3s2p
 bqH                         3-21g                   2        2   2s
 bqF                         3-21g                   5        9   3s2p


 
  Deleted DRIVER restart files 
 
 
 
                     Input BSSE Module - Counter Poise Approach
                   --------------------------------------------
 

    supermolecule geometry name = geometry                                          
             number of monomers =    3
                   total charge =    0

        atoms for each monomer  

              monomer     uno        :   1  2
              monomer     dos        :   3  4
              monomer     tres       :   5  6 
                                 NWChem DFT Module
                                 -----------------
 
 
                                     3FH-bsses
 
 
  Caching 1-el integrals 
 
            General Information
            -------------------
          SCF calculation type: DFT
          Wavefunction type:  closed shell.
          No. of atoms     :     6
          No. of electrons :    30
           Alpha electrons :    15
            Beta electrons :    15
          Charge           :     0
          Spin multiplicity:     1
          Use of symmetry is: off; symmetry adaption is: off
          Maximum number of iterations: 100
          This is a Direct SCF calculation.
          AO basis - number of functions:    33
                     number of shells:    21
          Convergence on energy requested: 1.00E-06
          Convergence on density requested: 1.00E-05
          Convergence on gradient requested: 5.00E-04
 
              XC Information
              --------------
                         Slater Exchange Functiona  1.000 local    
                      VWN V Correlation Functional  1.000 local    
 
             Grid Information
             ----------------
          Grid used for XC integration:  medium    
          Radial quadrature: Mura-Knowles        
          Angular quadrature: Lebedev. 
          Tag              B.-S. Rad. Rad. Pts. Rad. Cut. Ang. Pts.
          ---              ---------- --------- --------- ---------
          F                   0.50       49           7.0       434
          H                   0.35       45           6.0       434
          Grid pruning is: on 
          Number of quadrature shells:   282
          Spatial weights used:  Erf1
 
          Convergence Information
          -----------------------
          Convergence aids based upon iterative change in 
          total energy or number of iterations. 
          Levelshifting, if invoked, occurs when the 
          HOMO/LUMO gap drops below (HL_TOL): 1.00E-02
          DIIS, if invoked, will attempt to extrapolate 
          using up to (NFOCK): 10 stored Fock matrices.

                    Damping( 0%)  Levelshifting(0.5)       DIIS
                  --------------- ------------------- ---------------
          dE  on:    start            ASAP                start   
          dE off:    2 iters        100 iters           100 iters 

 
      Screening Tolerance Information
      -------------------------------
          Density screening/tol_rho: 1.00E-10
          AO Gaussian exp screening on grid/accAOfunc:  14
          CD Gaussian exp screening on grid/accCDfunc:  20
          XC Gaussian exp screening on grid/accXCfunc:  20
          Schwarz screening/accCoul: 1.00E-08

 
      Superposition of Atomic Density Guess
      -------------------------------------
 
 Sum of atomic energies:        -298.06066547
 
      Non-variational initial energy
      ------------------------------

 Total energy =    -298.071099
 1-e energy   =    -589.477061
 2-e energy   =     205.221860
 HOMO         =      -0.573163
 LUMO         =       0.205943
 
   Time after variat. SCF:      0.1
   Time prior to 1st pass:      0.1

 Grid_pts file          = ./3FH-bsses.gridpts.0
 Record size in doubles =  12289        No. of grid_pts per rec  =   3070
 Max. records in memory =     45        Max. recs in file   =  44373538


           Memory utilization after 1st SCF pass: 
           Heap Space remaining (MW):       12.55            12551914
          Stack Space remaining (MW):       13.11            13106862

   convergence    iter        energy       DeltaE   RMS-Dens  Diis-err    time
 ---------------- ----- ----------------- --------- --------- ---------  ------
 d= 0,ls=0.0,diis     1   -297.7000813270 -3.84E+02  2.63E-02  1.21E+00     0.6
 d= 0,ls=0.0,diis     2   -297.7226922794 -2.26E-02  1.24E-02  8.47E-01     0.9
 d= 0,ls=0.0,diis     3   -297.7793494426 -5.67E-02  2.49E-03  8.78E-02     1.2
 d= 0,ls=0.0,diis     4   -297.7846545428 -5.31E-03  3.10E-04  3.70E-04     1.4
 d= 0,ls=0.0,diis     5   -297.7846977434 -4.32E-05  1.84E-05  3.78E-07     1.7
 d= 0,ls=0.0,diis     6   -297.7846977140  2.94E-08  1.13E-05  7.72E-07     2.0
 d= 0,ls=0.0,diis     7   -297.7846977711 -5.71E-08  3.43E-07  9.13E-10     2.3


         Total DFT energy =     -297.784697771070
      One electron energy =     -590.454975384640
           Coulomb energy =      236.986743903012
    Exchange-Corr. energy =      -30.500568340830
 Nuclear repulsion energy =       86.184102051387

 Numeric. integr. density =       29.999992230630

     Total iterative time =      2.2s


 
                       DFT Final Molecular Orbital Analysis
                       ------------------------------------
 
 Vector    3  Occ=2.000000E+00  E=-2.394373E+01
              MO Center=  6.9E-01, -1.5E-01, -8.8E-07, r^2= 1.3E+00
   Bfn.  Coefficient  Atom+Function         Bfn.  Coefficient  Atom+Function  
  ----- ------------  ---------------      ----- ------------  ---------------
    23     -0.802425  5 F  s                  1      0.484652  1 F  s          
    12      0.285621  3 F  s          
 
 Vector    4  Occ=2.000000E+00  E=-1.098400E+00
              MO Center= -1.1E-03,  1.8E-04,  2.9E-05, r^2= 1.8E+00
   Bfn.  Coefficient  Atom+Function         Bfn.  Coefficient  Atom+Function  
  ----- ------------  ---------------      ----- ------------  ---------------
    17      0.410228  3 F  s                  6      0.410069  1 F  s          
    28      0.409553  5 F  s          
 
 Vector    5  Occ=2.000000E+00  E=-1.034785E+00
              MO Center= -5.7E-01,  1.5E-01, -5.0E-06, r^2= 1.6E+00
   Bfn.  Coefficient  Atom+Function         Bfn.  Coefficient  Atom+Function  
  ----- ------------  ---------------      ----- ------------  ---------------
    17      0.611180  3 F  s                  6     -0.504432  1 F  s          
    12     -0.193112  3 F  s                 13      0.178011  3 F  s          
     1      0.159959  1 F  s          
 
 Vector    6  Occ=2.000000E+00  E=-1.034733E+00
              MO Center=  5.7E-01, -1.5E-01,  3.4E-05, r^2= 1.6E+00
   Bfn.  Coefficient  Atom+Function         Bfn.  Coefficient  Atom+Function  
  ----- ------------  ---------------      ----- ------------  ---------------
    28      0.644345  5 F  s                  6     -0.414432  1 F  s          
    17     -0.229189  3 F  s                 23     -0.203926  5 F  s          
    24      0.188260  5 F  s          
 
 Vector    7  Occ=2.000000E+00  E=-4.865620E-01
              MO Center= -4.7E-01,  4.7E-02,  2.2E-05, r^2= 1.9E+00
   Bfn.  Coefficient  Atom+Function         Bfn.  Coefficient  Atom+Function  
  ----- ------------  ---------------      ----- ------------  ---------------
    22      0.247846  4 H  s                  3     -0.237348  1 F  px         
     7     -0.235417  1 F  px                15     -0.224190  3 F  py         
    19     -0.215903  3 F  py                14     -0.202333  3 F  px         
    18     -0.198477  3 F  px                21      0.194544  4 H  s          
    28      0.194120  5 F  s                  4      0.158152  1 F  py         
 
 Vector    8  Occ=2.000000E+00  E=-4.865040E-01
              MO Center=  4.7E-01, -4.7E-02,  5.1E-05, r^2= 1.9E+00
   Bfn.  Coefficient  Atom+Function         Bfn.  Coefficient  Atom+Function  
  ----- ------------  ---------------      ----- ------------  ---------------
    26     -0.330097  5 F  py                30     -0.324175  5 F  py         
    11      0.217529  2 H  s                 33     -0.211756  6 H  s          
     3      0.203990  1 F  px                 6     -0.196080  1 F  s          
     7      0.194598  1 F  px                14     -0.178483  3 F  px         
    18     -0.177371  3 F  px                32     -0.173502  6 H  s          
 
 Vector    9  Occ=2.000000E+00  E=-4.539405E-01
              MO Center= -2.3E-04,  3.8E-05, -1.0E-05, r^2= 2.4E+00
   Bfn.  Coefficient  Atom+Function         Bfn.  Coefficient  Atom+Function  
  ----- ------------  ---------------      ----- ------------  ---------------
    29     -0.270548  5 F  px                25     -0.242457  5 F  px         
    19     -0.240977  3 F  py                28     -0.235180  5 F  s          
     6     -0.235177  1 F  s                 17     -0.235171  3 F  s          
     8      0.227754  1 F  py                15     -0.218027  3 F  py         
     4      0.202023  1 F  py         
 
 Vector   10  Occ=2.000000E+00  E=-3.423238E-01
              MO Center=  2.1E-04,  5.0E-05, -2.5E-05, r^2= 2.2E+00
   Bfn.  Coefficient  Atom+Function         Bfn.  Coefficient  Atom+Function  
  ----- ------------  ---------------      ----- ------------  ---------------
    30      0.354554  5 F  py                26      0.320238  5 F  py         
    18     -0.315232  3 F  px                 7      0.298638  1 F  px         
    14     -0.284286  3 F  px                 3      0.270149  1 F  px         
     8     -0.191698  1 F  py                 4     -0.172397  1 F  py         
    19     -0.163036  3 F  py         
 
 Vector   11  Occ=2.000000E+00  E=-3.241817E-01
              MO Center= -3.1E-03,  6.1E-04, -2.7E-05, r^2= 2.2E+00
   Bfn.  Coefficient  Atom+Function         Bfn.  Coefficient  Atom+Function  
  ----- ------------  ---------------      ----- ------------  ---------------
    20     -0.355920  3 F  pz                 9     -0.355580  1 F  pz         
    31     -0.354522  5 F  pz                16     -0.311379  3 F  pz         
     5     -0.311067  1 F  pz                27     -0.310105  5 F  pz         
 
 Vector   12  Occ=2.000000E+00  E=-3.177250E-01
              MO Center= -4.7E-01,  2.4E-01, -1.2E-04, r^2= 2.1E+00
   Bfn.  Coefficient  Atom+Function         Bfn.  Coefficient  Atom+Function  
  ----- ------------  ---------------      ----- ------------  ---------------
    19     -0.387631  3 F  py                15     -0.351460  3 F  py         
     8     -0.345087  1 F  py                 4     -0.322732  1 F  py         
    18      0.245806  3 F  px                14      0.223913  3 F  px         
 
 Vector   13  Occ=2.000000E+00  E=-3.176961E-01
              MO Center=  4.7E-01, -2.4E-01, -8.0E-05, r^2= 2.1E+00
   Bfn.  Coefficient  Atom+Function         Bfn.  Coefficient  Atom+Function  
  ----- ------------  ---------------      ----- ------------  ---------------
    29      0.444508  5 F  px                25      0.404642  5 F  px         
     8      0.270289  1 F  py                 4      0.240432  1 F  py         
     7      0.231626  1 F  px                 3      0.216619  1 F  px         
    18      0.188794  3 F  px                14      0.187634  3 F  px         
 
 Vector   14  Occ=2.000000E+00  E=-3.069492E-01
              MO Center= -6.5E-01,  1.6E-01,  3.7E-06, r^2= 1.7E+00
   Bfn.  Coefficient  Atom+Function         Bfn.  Coefficient  Atom+Function  
  ----- ------------  ---------------      ----- ------------  ---------------
    20     -0.460551  3 F  pz                16     -0.418695  3 F  pz         
     9      0.390781  1 F  pz                 5      0.355256  1 F  pz         
 
 Vector   15  Occ=2.000000E+00  E=-3.069103E-01
              MO Center=  6.5E-01, -1.6E-01,  4.6E-05, r^2= 1.7E+00
   Bfn.  Coefficient  Atom+Function         Bfn.  Coefficient  Atom+Function  
  ----- ------------  ---------------      ----- ------------  ---------------
    31      0.492080  5 F  pz                27      0.447327  5 F  pz         
     9     -0.306008  1 F  pz                 5     -0.278205  1 F  pz         
    20     -0.184388  3 F  pz                16     -0.167653  3 F  pz         
 
 Vector   16  Occ=0.000000E+00  E= 7.650576E-02
              MO Center= -2.8E-05, -7.1E-05,  2.5E-04, r^2= 2.2E+00
   Bfn.  Coefficient  Atom+Function         Bfn.  Coefficient  Atom+Function  
  ----- ------------  ---------------      ----- ------------  ---------------
    11     -0.533688  2 H  s                 22     -0.533687  4 H  s          
    33     -0.533594  6 H  s                  6      0.463977  1 F  s          
    17      0.463962  3 F  s                 28      0.463865  5 F  s          
    29     -0.291725  5 F  px                19     -0.256611  3 F  py         
     8      0.248652  1 F  py                25     -0.202754  5 F  px         
 
 Vector   17  Occ=0.000000E+00  E= 1.501382E-01
              MO Center=  5.5E-01, -1.5E-01,  2.2E-04, r^2= 2.1E+00
   Bfn.  Coefficient  Atom+Function         Bfn.  Coefficient  Atom+Function  
  ----- ------------  ---------------      ----- ------------  ---------------
    11     -0.949190  2 H  s                 33      0.807730  6 H  s          
    30     -0.434742  5 F  py                 6      0.338636  1 F  s          
    26     -0.329255  5 F  py                17     -0.321230  3 F  s          
     7      0.320416  1 F  px                10     -0.234800  2 H  s          
     3      0.228835  1 F  px                18     -0.209480  3 F  px         
 
 Vector   18  Occ=0.000000E+00  E= 1.501506E-01
              MO Center= -5.5E-01,  1.5E-01,  2.0E-04, r^2= 2.1E+00
   Bfn.  Coefficient  Atom+Function         Bfn.  Coefficient  Atom+Function  
  ----- ------------  ---------------      ----- ------------  ---------------
    22      1.014429  4 H  s                 33     -0.629732  6 H  s          
    11     -0.384657  2 H  s                 28      0.380899  5 F  s          
    18      0.304606  3 F  px                19      0.294121  3 F  py         
     7      0.259061  1 F  px                21      0.252821  4 H  s          
     8     -0.235751  1 F  py                14      0.235487  3 F  px         
 
 Vector   19  Occ=0.000000E+00  E= 7.823186E-01
              MO Center= -3.4E-01,  4.5E-01,  2.5E-04, r^2= 2.3E+00
   Bfn.  Coefficient  Atom+Function         Bfn.  Coefficient  Atom+Function  
  ----- ------------  ---------------      ----- ------------  ---------------
    22      1.224496  4 H  s                 33     -1.126219  6 H  s          
    21     -0.919015  4 H  s                 32      0.828294  6 H  s          
    28      0.278062  5 F  s                  6     -0.243330  1 F  s          
    25      0.168091  5 F  px         
 
 Vector   20  Occ=0.000000E+00  E= 7.823570E-01
              MO Center=  3.4E-01, -4.5E-01,  2.6E-04, r^2= 2.3E+00
   Bfn.  Coefficient  Atom+Function         Bfn.  Coefficient  Atom+Function  
  ----- ------------  ---------------      ----- ------------  ---------------
    11     -1.357095  2 H  s                 10      1.008818  2 H  s          
    33      0.763664  6 H  s                 22      0.593465  4 H  s          
    32     -0.582864  6 H  s                 21     -0.425964  4 H  s          
    17     -0.301025  3 F  s                  6      0.180590  1 F  s          
 
 Vector   21  Occ=0.000000E+00  E= 8.432607E-01
              MO Center=  7.8E-05,  2.3E-05,  2.6E-04, r^2= 2.0E+00
   Bfn.  Coefficient  Atom+Function         Bfn.  Coefficient  Atom+Function  
  ----- ------------  ---------------      ----- ------------  ---------------
    32     -0.721326  6 H  s                 10     -0.721287  2 H  s          
    21     -0.721186  4 H  s                 33      0.605358  6 H  s          
    11      0.605272  2 H  s                 22      0.605122  4 H  s          
    28     -0.272470  5 F  s                 17     -0.272414  3 F  s          
     6     -0.272404  1 F  s                 25     -0.168098  5 F  px         
 
 Vector   22  Occ=0.000000E+00  E= 1.649000E+00
              MO Center= -6.8E-04,  9.5E-05, -5.8E-06, r^2= 2.3E+00
   Bfn.  Coefficient  Atom+Function         Bfn.  Coefficient  Atom+Function  
  ----- ------------  ---------------      ----- ------------  ---------------
    16     -0.582256  3 F  pz                 5     -0.582164  1 F  pz         
    27     -0.581765  5 F  pz                20      0.548739  3 F  pz         
     9      0.548647  1 F  pz                31      0.548260  5 F  pz         
 
 Vector   23  Occ=0.000000E+00  E= 1.728249E+00
              MO Center= -6.1E-01,  2.8E-01, -1.3E-05, r^2= 1.9E+00
   Bfn.  Coefficient  Atom+Function         Bfn.  Coefficient  Atom+Function  
  ----- ------------  ---------------      ----- ------------  ---------------
    16     -0.786888  3 F  pz                20      0.766662  3 F  pz         
     5      0.596306  1 F  pz                 9     -0.580970  1 F  pz         
    27      0.190840  5 F  pz                31     -0.185933  5 F  pz         
 
 Vector   24  Occ=0.000000E+00  E= 1.728278E+00
              MO Center=  6.1E-01, -2.8E-01,  2.8E-05, r^2= 1.9E+00
   Bfn.  Coefficient  Atom+Function         Bfn.  Coefficient  Atom+Function  
  ----- ------------  ---------------      ----- ------------  ---------------
    27      0.798784  5 F  pz                31     -0.778237  5 F  pz         
     5     -0.564296  1 F  pz                 9      0.549796  1 F  pz         
    16     -0.233900  3 F  pz                20      0.227886  3 F  pz         
 
 Vector   25  Occ=0.000000E+00  E= 1.756834E+00
              MO Center= -1.2E-04, -1.2E-04, -6.1E-05, r^2= 2.5E+00
   Bfn.  Coefficient  Atom+Function         Bfn.  Coefficient  Atom+Function  
  ----- ------------  ---------------      ----- ------------  ---------------
    18      0.585479  3 F  px                14     -0.575770  3 F  px         
     8      0.535083  1 F  py                 4     -0.508137  1 F  py         
    26      0.489293  5 F  py                30     -0.479125  5 F  py         
    29     -0.340969  5 F  px                25      0.304002  5 F  px         
     3      0.271563  1 F  px                 7     -0.244272  1 F  px         
 

 center of mass
 --------------
 x =   0.00000566 y =   0.00000254 z =  -0.00002272

 moments of inertia (a.u.)
 ------------------
         188.148156146746           0.003716666652          -0.006310383962
           0.003716666652         188.165783285384           0.000058794055
          -0.006310383962           0.000058794055         376.313937802792
 
     Multipole analysis of the density
     ---------------------------------
 
     L   x y z        total         alpha         beta         nuclear
     -   - - -        -----         -----         ----         -------
     0   0 0 0      0.000000    -15.000000    -15.000000     30.000000
 
     1   1 0 0     -0.000301     -0.000150     -0.000150      0.000000
     1   0 1 0     -0.000031     -0.000015     -0.000015      0.000000
     1   0 0 1      0.000570      0.000285      0.000285      0.000000
 
     2   2 0 0    -13.519913    -52.732560    -52.732560     91.945208
     2   1 1 0     -0.000304      0.000881      0.000881     -0.002066
     2   1 0 1     -0.000081     -0.001568     -0.001568      0.003054
     2   0 2 0    -13.519226    -52.728183    -52.728183     91.937141
     2   0 1 1      0.000026      0.000012      0.000012      0.000003
     2   0 0 2    -11.831357     -5.915679     -5.915679      0.000001
 
 
 
                              BSSE Energy Correction
                              ----------------------
 
 
                                 NWChem DFT Module
                                 -----------------
 
 
                                     3FH-bsses
 
 

  The DFT is already converged 

         Total DFT energy =   -297.784697771070

 
 
                             Geometry "uno" -> "    "
                             ------------------------
 
 Output coordinates in angstroms (scale by  1.889725989 to convert to a.u.)
 
  No.       Tag          Charge          X              Y              Z
 ---- ---------------- ---------- -------------- -------------- --------------
    1 F                    9.0000    -0.61689898    -1.18956265    -0.00004434
    2 H                    1.0000     0.47937941    -0.87919376     0.00021953
 
      Atomic Mass 
      ----------- 
 
      F                 18.998400
      H                  1.007825
 

 Effective nuclear repulsion energy (a.u.)       0.0000000000

            Nuclear Dipole moment (a.u.) 
            ----------------------------
        X                 Y               Z
 ---------------- ---------------- ----------------
     0.0000000000     0.0000000000     0.0000000000
 
 
 
                             Geometry "dos" -> "    "
                             ------------------------
 
 Output coordinates in angstroms (scale by  1.889725989 to convert to a.u.)
 
  No.       Tag          Charge          X              Y              Z
 ---- ---------------- ---------- -------------- -------------- --------------
    1 F                    9.0000    -0.72179565     1.12903186    -0.00004938
    2 H                    1.0000    -1.00107061     0.02442063     0.00019522
 
      Atomic Mass 
      ----------- 
 
      F                 18.998400
      H                  1.007825
 

 Effective nuclear repulsion energy (a.u.)       0.0000000000

            Nuclear Dipole moment (a.u.) 
            ----------------------------
        X                 Y               Z
 ---------------- ---------------- ----------------
     0.0000000000     0.0000000000     0.0000000000
 
 
 
                            Geometry "tres" -> "     "
                            --------------------------
 
 Output coordinates in angstroms (scale by  1.889725989 to convert to a.u.)
 
  No.       Tag          Charge          X              Y              Z
 ---- ---------------- ---------- -------------- -------------- --------------
    1 F                    9.0000     1.33871272     0.06053891     0.00002105
    2 H                    1.0000     0.52152831     0.85470015     0.00023933
 
      Atomic Mass 
      ----------- 
 
      F                 18.998400
      H                  1.007825
 

 Effective nuclear repulsion energy (a.u.)       0.0000000000

            Nuclear Dipole moment (a.u.) 
            ----------------------------
        X                 Y               Z
 ---------------- ---------------- ----------------
     0.0000000000     0.0000000000     0.0000000000
 
                                 NWChem DFT Module
                                 -----------------
 
 
                                     3FH-bsses
 
 
  Caching 1-el integrals 
 
            General Information
            -------------------
          SCF calculation type: DFT
          Wavefunction type:  closed shell.
          No. of atoms     :     2
          No. of electrons :    10
           Alpha electrons :     5
            Beta electrons :     5
          Charge           :     0
          Spin multiplicity:     1
          Use of symmetry is: off; symmetry adaption is: off
          Maximum number of iterations: 100
          This is a Direct SCF calculation.
          AO basis - number of functions:    11
                     number of shells:     7
          Convergence on energy requested: 1.00E-06
          Convergence on density requested: 1.00E-05
          Convergence on gradient requested: 5.00E-04
 
              XC Information
              --------------
                         Slater Exchange Functiona  1.000 local    
                      VWN V Correlation Functional  1.000 local    
 
             Grid Information
             ----------------
          Grid used for XC integration:  medium    
          Radial quadrature: Mura-Knowles        
          Angular quadrature: Lebedev. 
          Tag              B.-S. Rad. Rad. Pts. Rad. Cut. Ang. Pts.
          ---              ---------- --------- --------- ---------
          F                   0.50       49           5.0       434
          H                   0.35       45           4.0       434
          Grid pruning is: on 
          Number of quadrature shells:    94
          Spatial weights used:  Erf1
 
          Convergence Information
          -----------------------
          Convergence aids based upon iterative change in 
          total energy or number of iterations. 
          Levelshifting, if invoked, occurs when the 
          HOMO/LUMO gap drops below (HL_TOL): 1.00E-02
          DIIS, if invoked, will attempt to extrapolate 
          using up to (NFOCK): 10 stored Fock matrices.

                    Damping( 0%)  Levelshifting(0.5)       DIIS
                  --------------- ------------------- ---------------
          dE  on:    start            ASAP                start   
          dE off:    2 iters        100 iters           100 iters 

 
      Screening Tolerance Information
      -------------------------------
          Density screening/tol_rho: 1.00E-10
          AO Gaussian exp screening on grid/accAOfunc:  14
          CD Gaussian exp screening on grid/accCDfunc:  20
          XC Gaussian exp screening on grid/accXCfunc:  20
          Schwarz screening/accCoul: 1.00E-08

 
      Superposition of Atomic Density Guess
      -------------------------------------
 
 Sum of atomic energies:         -99.35355516
 
      Non-variational initial energy
      ------------------------------

 Total energy =     -99.126440
 1-e energy   =    -147.478269
 2-e energy   =      44.171790
 HOMO         =      -0.571935
 LUMO         =       0.068003
 
   Time after variat. SCF:      2.3
   Time prior to 1st pass:      2.3

 Grid_pts file          = ./3FH-bsses.gridpts.0
 Record size in doubles =  12289        No. of grid_pts per rec  =   3070
 Max. records in memory =     16        Max. recs in file   =  44376821


           Memory utilization after 1st SCF pass: 
           Heap Space remaining (MW):       12.91            12909539
          Stack Space remaining (MW):       13.11            13107032

   convergence    iter        energy       DeltaE   RMS-Dens  Diis-err    time
 ---------------- ----- ----------------- --------- --------- ---------  ------
 d= 0,ls=0.0,diis     1    -99.1370083531 -1.03E+02  9.36E-02  5.72E-01     2.4
 d= 0,ls=0.0,diis     2    -99.0416586751  9.53E-02  5.87E-02  1.57E+00     2.5
 d= 0,ls=0.0,diis     3    -99.1954711344 -1.54E-01  2.77E-03  1.74E-02     2.5
 d= 0,ls=0.0,diis     4    -99.1964280692 -9.57E-04  2.22E-03  1.15E-03     2.6
 d= 0,ls=0.0,diis     5    -99.1966085611 -1.80E-04  4.04E-05  2.55E-06     2.6
 d= 0,ls=0.0,diis     6    -99.1966087601 -1.99E-07  5.77E-06  1.15E-08     2.7


         Total DFT energy =      -99.196608760107
      One electron energy =     -148.378362571439
           Coulomb energy =       55.118559109335
    Exchange-Corr. energy =      -10.116844556764
 Nuclear repulsion energy =        4.180039258762

 Numeric. integr. density =        9.999999142671

     Total iterative time =      0.4s


 
                       DFT Final Molecular Orbital Analysis
                       ------------------------------------
 
 Vector    1  Occ=2.000000E+00  E=-2.388358E+01
              MO Center= -6.2E-01, -1.2E+00, -4.4E-05, r^2= 1.2E-02
   Bfn.  Coefficient  Atom+Function         Bfn.  Coefficient  Atom+Function  
  ----- ------------  ---------------      ----- ------------  ---------------
     1      0.979925  1 F  s          
 
 Vector    2  Occ=2.000000E+00  E=-9.739182E-01
              MO Center= -4.9E-01, -1.2E+00, -1.3E-05, r^2= 3.9E-01
   Bfn.  Coefficient  Atom+Function         Bfn.  Coefficient  Atom+Function  
  ----- ------------  ---------------      ----- ------------  ---------------
     6     -0.776692  1 F  s                  1      0.248297  1 F  s          
     2     -0.231276  1 F  s          
 
 Vector    3  Occ=2.000000E+00  E=-3.900272E-01
              MO Center= -4.0E-01, -1.1E+00,  7.4E-06, r^2= 7.6E-01
   Bfn.  Coefficient  Atom+Function         Bfn.  Coefficient  Atom+Function  
  ----- ------------  ---------------      ----- ------------  ---------------
     7     -0.415665  1 F  px                 3     -0.411375  1 F  px         
     6      0.322828  1 F  s                 11     -0.284473  2 H  s          
    10     -0.240143  2 H  s          
 
 Vector    4  Occ=2.000000E+00  E=-2.454896E-01
              MO Center= -6.2E-01, -1.2E+00, -4.4E-05, r^2= 4.0E-01
   Bfn.  Coefficient  Atom+Function         Bfn.  Coefficient  Atom+Function  
  ----- ------------  ---------------      ----- ------------  ---------------
     8      0.460271  1 F  py                 4      0.414177  1 F  py         
     9      0.378258  1 F  pz                 5      0.340377  1 F  pz         
 
 Vector    5  Occ=2.000000E+00  E=-2.454896E-01
              MO Center= -6.2E-01, -1.2E+00, -4.4E-05, r^2= 4.0E-01
   Bfn.  Coefficient  Atom+Function         Bfn.  Coefficient  Atom+Function  
  ----- ------------  ---------------      ----- ------------  ---------------
     9     -0.478386  1 F  pz                 5     -0.430478  1 F  pz         
     8      0.363983  1 F  py                 4      0.327532  1 F  py         
 
 Vector    6  Occ=0.000000E+00  E=-1.770709E-02
              MO Center=  3.0E-01, -9.3E-01,  1.8E-04, r^2= 1.2E+00
   Bfn.  Coefficient  Atom+Function         Bfn.  Coefficient  Atom+Function  
  ----- ------------  ---------------      ----- ------------  ---------------
    11     -0.910148  2 H  s                  7      0.467642  1 F  px         
     6      0.425480  1 F  s                  3      0.345614  1 F  px         
    10     -0.239566  2 H  s          
 
 Vector    7  Occ=0.000000E+00  E= 8.074613E-01
              MO Center=  5.1E-01, -8.7E-01,  2.3E-04, r^2= 9.9E-01
   Bfn.  Coefficient  Atom+Function         Bfn.  Coefficient  Atom+Function  
  ----- ------------  ---------------      ----- ------------  ---------------
    10      1.244805  2 H  s                 11     -1.133930  2 H  s          
     6      0.245285  1 F  s                  3     -0.217338  1 F  px         
 
 Vector    8  Occ=0.000000E+00  E= 1.766847E+00
              MO Center= -6.2E-01, -1.2E+00, -4.4E-05, r^2= 5.7E-01
   Bfn.  Coefficient  Atom+Function         Bfn.  Coefficient  Atom+Function  
  ----- ------------  ---------------      ----- ------------  ---------------
     5     -0.861003  1 F  pz                 9      0.830356  1 F  pz         
     4     -0.500569  1 F  py                 8      0.482751  1 F  py         
 
 Vector    9  Occ=0.000000E+00  E= 1.766847E+00
              MO Center= -6.2E-01, -1.2E+00, -4.4E-05, r^2= 5.7E-01
   Bfn.  Coefficient  Atom+Function         Bfn.  Coefficient  Atom+Function  
  ----- ------------  ---------------      ----- ------------  ---------------
     4     -0.828475  1 F  py                 8      0.798986  1 F  py         
     5      0.520299  1 F  pz                 9     -0.501779  1 F  pz         
     3      0.234426  1 F  px                 7     -0.226081  1 F  px         
 
 Vector   10  Occ=0.000000E+00  E= 1.926145E+00
              MO Center= -7.5E-01, -1.2E+00, -7.6E-05, r^2= 6.2E-01
   Bfn.  Coefficient  Atom+Function         Bfn.  Coefficient  Atom+Function  
  ----- ------------  ---------------      ----- ------------  ---------------
     7     -1.076170  1 F  px                 3      0.949273  1 F  px         
    10      0.412430  2 H  s                  8     -0.304676  1 F  py         
     4      0.268750  1 F  py         
 
 Vector   11  Occ=0.000000E+00  E= 3.056104E+00
              MO Center= -4.8E-01, -1.2E+00, -1.2E-05, r^2= 5.4E-01
   Bfn.  Coefficient  Atom+Function         Bfn.  Coefficient  Atom+Function  
  ----- ------------  ---------------      ----- ------------  ---------------
     2      1.496426  1 F  s                  6     -1.398098  1 F  s          
    11      0.289855  2 H  s                  7     -0.249464  1 F  px         
 

 center of mass
 --------------
 x =  -1.06140868 y =  -2.21840158 z =  -0.00005867

 moments of inertia (a.u.)
 ------------------
           0.329223901429          -1.162876819680          -0.000988656777
          -1.162876819680           4.107488999636          -0.000279899986
          -0.000988656777          -0.000279899986           4.436712425133
 
     Multipole analysis of the density
     ---------------------------------
 
     L   x y z        total         alpha         beta         nuclear
     -   - - -        -----         -----         ----         -------
     0   0 0 0      0.000000     -5.000000     -5.000000     10.000000
 
     1   1 0 0      0.764834      5.175434      5.175434     -9.586035
     1   0 1 0      0.216533     11.054748     11.054748    -21.892962
     1   0 0 1      0.000184      0.000262      0.000262     -0.000339
 
     2   2 0 0     -3.833806     -8.442816     -8.442816     13.051825
     2   1 1 0     -1.427245    -11.753733    -11.753733     22.080221
     2   1 0 1      0.000184     -0.000535     -0.000535      0.001255
     2   0 2 0     -4.793157    -26.516467    -26.516467     48.239777
     2   0 1 1     -0.000301     -0.000653     -0.000653      0.001006
     2   0 0 2     -3.973798     -1.986899     -1.986899      0.000000
 
                                 NWChem DFT Module
                                 -----------------
 
 
                                     3FH-bsses
 
 
  Caching 1-el integrals 
 
            General Information
            -------------------
          SCF calculation type: DFT
          Wavefunction type:  closed shell.
          No. of atoms     :     6
          No. of electrons :    10
           Alpha electrons :     5
            Beta electrons :     5
          Charge           :     0
          Spin multiplicity:     1
          Use of symmetry is: off; symmetry adaption is: off
          Maximum number of iterations: 100
          This is a Direct SCF calculation.
          AO basis - number of functions:    33
                     number of shells:    21
          Convergence on energy requested: 1.00E-06
          Convergence on density requested: 1.00E-05
          Convergence on gradient requested: 5.00E-04
 
              XC Information
              --------------
                         Slater Exchange Functiona  1.000 local    
                      VWN V Correlation Functional  1.000 local    
 
             Grid Information
             ----------------
          Grid used for XC integration:  medium    
          Radial quadrature: Mura-Knowles        
          Angular quadrature: Lebedev. 
          Tag              B.-S. Rad. Rad. Pts. Rad. Cut. Ang. Pts.
          ---              ---------- --------- --------- ---------
          F                   0.50       49           7.0       434
          H                   0.35       45           6.0       434
          bqF                 0.50       49           7.0       434
          bqH                 0.35       45           6.0       434
          Grid pruning is: on 
          Number of quadrature shells:   282
          Spatial weights used:  Erf1
 
          Convergence Information
          -----------------------
          Convergence aids based upon iterative change in 
          total energy or number of iterations. 
          Levelshifting, if invoked, occurs when the 
          HOMO/LUMO gap drops below (HL_TOL): 1.00E-02
          DIIS, if invoked, will attempt to extrapolate 
          using up to (NFOCK): 10 stored Fock matrices.

                    Damping( 0%)  Levelshifting(0.5)       DIIS
                  --------------- ------------------- ---------------
          dE  on:    start            ASAP                start   
          dE off:    2 iters        100 iters           100 iters 

 
      Screening Tolerance Information
      -------------------------------
          Density screening/tol_rho: 1.00E-10
          AO Gaussian exp screening on grid/accAOfunc:  14
          CD Gaussian exp screening on grid/accCDfunc:  20
          XC Gaussian exp screening on grid/accXCfunc:  20
          Schwarz screening/accCoul: 1.00E-08

 
      Superposition of Atomic Density Guess
      -------------------------------------
 
 Sum of atomic energies:         -99.35355516
 
      Non-variational initial energy
      ------------------------------

 Total energy =     -99.126440
 1-e energy   =    -147.478269
 2-e energy   =      44.171790
 HOMO         =      -0.572002
 LUMO         =       0.056496
 
   Time after variat. SCF:      2.7
   Time prior to 1st pass:      2.7

 Grid_pts file          = ./3FH-bsses.gridpts.0
 Record size in doubles =  12289        No. of grid_pts per rec  =   3070
 Max. records in memory =     45        Max. recs in file   =  44374420


           Memory utilization after 1st SCF pass: 
           Heap Space remaining (MW):       12.55            12552431
          Stack Space remaining (MW):       13.11            13106862

   convergence    iter        energy       DeltaE   RMS-Dens  Diis-err    time
 ---------------- ----- ----------------- --------- --------- ---------  ------
 d= 0,ls=0.0,diis     1    -99.1585899695 -1.03E+02  3.14E-02  5.60E-01     3.3
 d= 0,ls=0.0,diis     2    -99.0369600888  1.22E-01  1.92E-02  1.91E+00     3.5
 d= 0,ls=0.0,diis     3    -99.2183176635 -1.81E-01  1.01E-03  1.47E-02     3.8
 d= 0,ls=0.0,diis     4    -99.2190615817 -7.44E-04  7.23E-04  1.25E-03     4.1
 d= 0,ls=0.0,diis     5    -99.2192529100 -1.91E-04  1.61E-05  2.48E-06     4.4
 d= 0,ls=0.0,diis     6    -99.2192531203 -2.10E-07  3.19E-06  5.35E-08     4.6


         Total DFT energy =      -99.219253120257
      One electron energy =     -148.148026315135
           Coulomb energy =       54.825823726156
    Exchange-Corr. energy =      -10.077089790039
 Nuclear repulsion energy =        4.180039258762

 Numeric. integr. density =        9.999998463537

     Total iterative time =      1.9s


 
                       DFT Final Molecular Orbital Analysis
                       ------------------------------------
 
 Vector    1  Occ=2.000000E+00  E=-2.392236E+01
              MO Center= -6.2E-01, -1.2E+00, -4.4E-05, r^2= 1.2E-02
   Bfn.  Coefficient  Atom+Function         Bfn.  Coefficient  Atom+Function  
  ----- ------------  ---------------      ----- ------------  ---------------
     1      0.980127  1 F  s          
 
 Vector    2  Occ=2.000000E+00  E=-9.999756E-01
              MO Center= -4.9E-01, -1.2E+00, -1.3E-05, r^2= 3.9E-01
   Bfn.  Coefficient  Atom+Function         Bfn.  Coefficient  Atom+Function  
  ----- ------------  ---------------      ----- ------------  ---------------
     6      0.772256  1 F  s                  1     -0.248683  1 F  s          
     2      0.234977  1 F  s          
 
 Vector    3  Occ=2.000000E+00  E=-4.138778E-01
              MO Center= -4.1E-01, -1.1E+00,  5.4E-06, r^2= 7.6E-01
   Bfn.  Coefficient  Atom+Function         Bfn.  Coefficient  Atom+Function  
  ----- ------------  ---------------      ----- ------------  ---------------
     3     -0.421656  1 F  px                 7     -0.414394  1 F  px         
     6      0.287556  1 F  s                 11     -0.281982  2 H  s          
    10     -0.234381  2 H  s          
 
 Vector    4  Occ=2.000000E+00  E=-2.824036E-01
              MO Center= -6.2E-01, -1.1E+00, -3.6E-05, r^2= 4.8E-01
   Bfn.  Coefficient  Atom+Function         Bfn.  Coefficient  Atom+Function  
  ----- ------------  ---------------      ----- ------------  ---------------
     8     -0.549868  1 F  py                 4     -0.525066  1 F  py         
 
 Vector    5  Occ=2.000000E+00  E=-2.711032E-01
              MO Center= -6.2E-01, -1.2E+00, -4.4E-05, r^2= 3.9E-01
   Bfn.  Coefficient  Atom+Function         Bfn.  Coefficient  Atom+Function  
  ----- ------------  ---------------      ----- ------------  ---------------
     9     -0.605715  1 F  pz                 5     -0.552951  1 F  pz         
 
 Vector    6  Occ=0.000000E+00  E=-3.932579E-02
              MO Center=  3.4E-01, -8.0E-01,  1.8E-04, r^2= 1.3E+00
   Bfn.  Coefficient  Atom+Function         Bfn.  Coefficient  Atom+Function  
  ----- ------------  ---------------      ----- ------------  ---------------
    11      0.797583  2 H  s                  7     -0.429666  1 F  px         
     6     -0.394658  1 F  s                  3     -0.328633  1 F  px         
    10      0.248330  2 H  s                 33      0.153252  6 bq s          
 
 Vector    7  Occ=0.000000E+00  E= 1.859655E-01
              MO Center=  3.7E-02,  5.7E-01,  2.2E-04, r^2= 2.2E+00
   Bfn.  Coefficient  Atom+Function         Bfn.  Coefficient  Atom+Function  
  ----- ------------  ---------------      ----- ------------  ---------------
    33     -0.896083  6 bq s                 22     -0.541129  4 bq s          
    11      0.522080  2 H  s                  7     -0.203846  1 F  px         
 
 Vector    8  Occ=0.000000E+00  E= 3.167235E-01
              MO Center= -4.9E-01,  3.3E-01,  2.4E-04, r^2= 2.6E+00
   Bfn.  Coefficient  Atom+Function         Bfn.  Coefficient  Atom+Function  
  ----- ------------  ---------------      ----- ------------  ---------------
    22      1.199880  4 bq s                 33     -0.854876  6 bq s          
     6     -0.415690  1 F  s                  8     -0.226089  1 F  py         
 
 Vector    9  Occ=0.000000E+00  E= 6.855546E-01
              MO Center=  8.6E-01,  1.3E-01,  2.7E-05, r^2= 1.9E+00
   Bfn.  Coefficient  Atom+Function         Bfn.  Coefficient  Atom+Function  
  ----- ------------  ---------------      ----- ------------  ---------------
    28      0.927156  5 bq s                 10     -0.453652  2 H  s          
    22      0.419947  4 bq s                 33     -0.405023  6 bq s          
    17     -0.394945  3 bq s                 29      0.228625  5 bq px         
     3      0.184967  1 F  px         
 
 Vector   10  Occ=0.000000E+00  E= 7.904402E-01
              MO Center=  5.5E-01, -8.8E-01,  2.6E-04, r^2= 1.6E+00
   Bfn.  Coefficient  Atom+Function         Bfn.  Coefficient  Atom+Function  
  ----- ------------  ---------------      ----- ------------  ---------------
    11      1.576550  2 H  s                 10     -0.999775  2 H  s          
    28     -0.718941  5 bq s                 22     -0.431822  4 bq s          
    29      0.367415  5 bq px                 6     -0.299009  1 F  s          
    17      0.298380  3 bq s                 30      0.240084  5 bq py         
 
 Vector   11  Occ=0.000000E+00  E= 8.479838E-01
              MO Center= -2.6E-01,  8.4E-01, -3.3E-05, r^2= 2.1E+00
   Bfn.  Coefficient  Atom+Function         Bfn.  Coefficient  Atom+Function  
  ----- ------------  ---------------      ----- ------------  ---------------
    17     -1.033031  3 bq s                 28     -0.437928  5 bq s          
    22      0.394190  4 bq s                 33      0.291966  6 bq s          
    30      0.247113  5 bq py                29     -0.227726  5 bq px         
    19     -0.216580  3 bq py                18      0.169259  3 bq px         
 
 Vector   12  Occ=0.000000E+00  E= 1.001348E+00
              MO Center=  1.3E+00,  9.7E-02,  1.6E-05, r^2= 9.4E-01
   Bfn.  Coefficient  Atom+Function         Bfn.  Coefficient  Atom+Function  
  ----- ------------  ---------------      ----- ------------  ---------------
    31     -1.010031  5 bq pz                20     -0.191709  3 bq pz         
 
 Vector   13  Occ=0.000000E+00  E= 1.125008E+00
              MO Center= -6.5E-01,  1.1E+00, -5.3E-05, r^2= 9.5E-01
   Bfn.  Coefficient  Atom+Function         Bfn.  Coefficient  Atom+Function  
  ----- ------------  ---------------      ----- ------------  ---------------
    20      1.012626  3 bq pz                31     -0.202193  5 bq pz         
 
 Vector   14  Occ=0.000000E+00  E= 1.155816E+00
              MO Center=  5.2E-01,  3.8E-01,  7.8E-05, r^2= 2.0E+00
   Bfn.  Coefficient  Atom+Function         Bfn.  Coefficient  Atom+Function  
  ----- ------------  ---------------      ----- ------------  ---------------
    29      0.692581  5 bq px                33      0.580340  6 bq s          
    17     -0.517151  3 bq s                 19      0.451746  3 bq py         
    18     -0.436060  3 bq px                10      0.426296  2 H  s          
    28     -0.400663  5 bq s                 30      0.378666  5 bq py         
    22      0.329671  4 bq s                 32     -0.202523  6 bq s          
 
 Vector   15  Occ=0.000000E+00  E= 1.230494E+00
              MO Center=  6.2E-01,  3.9E-01,  4.2E-05, r^2= 2.1E+00
   Bfn.  Coefficient  Atom+Function         Bfn.  Coefficient  Atom+Function  
  ----- ------------  ---------------      ----- ------------  ---------------
    30      0.755707  5 bq py                29     -0.591930  5 bq px         
    33     -0.535356  6 bq s                 18     -0.437712  3 bq px         
    11      0.426237  2 H  s                 17      0.368097  3 bq s          
    28      0.225773  5 bq s                 10     -0.206015  2 H  s          
    22     -0.178029  4 bq s          
 

 center of mass
 --------------
 x =          NaN y =          NaN z =          NaN

 moments of inertia (a.u.)
 ------------------
                      NaN                      NaN                      NaN
                      NaN                      NaN                      NaN
                      NaN                      NaN                      NaN
 
     Multipole analysis of the density
     ---------------------------------
 
     L   x y z        total         alpha         beta         nuclear
     -   - - -        -----         -----         ----         -------
     0   0 0 0      0.000000     -5.000000     -5.000000     10.000000
 
     1   1 0 0      0.846754      5.216394      5.216394     -9.586035
     1   0 1 0      0.054568     10.973765     10.973765    -21.892962
     1   0 0 1      0.000160      0.000250      0.000250     -0.000339
 
     2   2 0 0     -4.121310     -8.586567     -8.586567     13.051825
     2   1 1 0     -1.327549    -11.703885    -11.703885     22.080221
     2   1 0 1      0.000241     -0.000507     -0.000507      0.001255
     2   0 2 0     -4.458285    -26.349031    -26.349031     48.239777
     2   0 1 1     -0.000281     -0.000644     -0.000644      0.001006
     2   0 0 2     -4.040229     -2.020115     -2.020115      0.000000
 
                                 NWChem DFT Module
                                 -----------------
 
 
                                     3FH-bsses
 
 
  Caching 1-el integrals 
 
            General Information
            -------------------
          SCF calculation type: DFT
          Wavefunction type:  closed shell.
          No. of atoms     :     2
          No. of electrons :    10
           Alpha electrons :     5
            Beta electrons :     5
          Charge           :     0
          Spin multiplicity:     1
          Use of symmetry is: off; symmetry adaption is: off
          Maximum number of iterations: 100
          This is a Direct SCF calculation.
          AO basis - number of functions:    11
                     number of shells:     7
          Convergence on energy requested: 1.00E-06
          Convergence on density requested: 1.00E-05
          Convergence on gradient requested: 5.00E-04
 
              XC Information
              --------------
                         Slater Exchange Functiona  1.000 local    
                      VWN V Correlation Functional  1.000 local    
 
             Grid Information
             ----------------
          Grid used for XC integration:  medium    
          Radial quadrature: Mura-Knowles        
          Angular quadrature: Lebedev. 
          Tag              B.-S. Rad. Rad. Pts. Rad. Cut. Ang. Pts.
          ---              ---------- --------- --------- ---------
          F                   0.50       49           5.0       434
          H                   0.35       45           4.0       434
          Grid pruning is: on 
          Number of quadrature shells:    94
          Spatial weights used:  Erf1
 
          Convergence Information
          -----------------------
          Convergence aids based upon iterative change in 
          total energy or number of iterations. 
          Levelshifting, if invoked, occurs when the 
          HOMO/LUMO gap drops below (HL_TOL): 1.00E-02
          DIIS, if invoked, will attempt to extrapolate 
          using up to (NFOCK): 10 stored Fock matrices.

                    Damping( 0%)  Levelshifting(0.5)       DIIS
                  --------------- ------------------- ---------------
          dE  on:    start            ASAP                start   
          dE off:    2 iters        100 iters           100 iters 

 
      Screening Tolerance Information
      -------------------------------
          Density screening/tol_rho: 1.00E-10
          AO Gaussian exp screening on grid/accAOfunc:  14
          CD Gaussian exp screening on grid/accCDfunc:  20
          XC Gaussian exp screening on grid/accXCfunc:  20
          Schwarz screening/accCoul: 1.00E-08

 
      Superposition of Atomic Density Guess
      -------------------------------------
 
 Sum of atomic energies:         -99.35355516
 
      Non-variational initial energy
      ------------------------------

 Total energy =     -99.126438
 1-e energy   =    -147.478254
 2-e energy   =      44.171785
 HOMO         =      -0.571935
 LUMO         =       0.068002
 
   Time after variat. SCF:      4.7
   Time prior to 1st pass:      4.7

 Grid_pts file          = ./3FH-bsses.gridpts.0
 Record size in doubles =  12289        No. of grid_pts per rec  =   3070
 Max. records in memory =     16        Max. recs in file   =  44376801


           Memory utilization after 1st SCF pass: 
           Heap Space remaining (MW):       12.91            12909539
          Stack Space remaining (MW):       13.11            13107032

   convergence    iter        energy       DeltaE   RMS-Dens  Diis-err    time
 ---------------- ----- ----------------- --------- --------- ---------  ------
 d= 0,ls=0.0,diis     1    -99.1370076165 -1.03E+02  9.36E-02  5.72E-01     4.8
 d= 0,ls=0.0,diis     2    -99.0416558379  9.54E-02  5.87E-02  1.57E+00     4.8
 d= 0,ls=0.0,diis     3    -99.1954707739 -1.54E-01  2.77E-03  1.74E-02     4.9
 d= 0,ls=0.0,diis     4    -99.1964276910 -9.57E-04  2.22E-03  1.15E-03     4.9
 d= 0,ls=0.0,diis     5    -99.1966081857 -1.80E-04  4.04E-05  2.55E-06     5.0
 d= 0,ls=0.0,diis     6    -99.1966083847 -1.99E-07  5.77E-06  1.15E-08     5.0


         Total DFT energy =      -99.196608384652
      One electron energy =     -148.378346560987
           Coulomb energy =       55.118551226132
    Exchange-Corr. energy =      -10.116843764894
 Nuclear repulsion energy =        4.180030715097

 Numeric. integr. density =        9.999999142774

     Total iterative time =      0.4s


 
                       DFT Final Molecular Orbital Analysis
                       ------------------------------------
 
 Vector    1  Occ=2.000000E+00  E=-2.388358E+01
              MO Center= -7.2E-01,  1.1E+00, -4.9E-05, r^2= 1.2E-02
   Bfn.  Coefficient  Atom+Function         Bfn.  Coefficient  Atom+Function  
  ----- ------------  ---------------      ----- ------------  ---------------
     1     -0.979925  1 F  s          
 
 Vector    2  Occ=2.000000E+00  E=-9.739178E-01
              MO Center= -7.6E-01,  1.0E+00, -2.0E-05, r^2= 3.9E-01
   Bfn.  Coefficient  Atom+Function         Bfn.  Coefficient  Atom+Function  
  ----- ------------  ---------------      ----- ------------  ---------------
     6     -0.776692  1 F  s                  1      0.248297  1 F  s          
     2     -0.231277  1 F  s          
 
 Vector    3  Occ=2.000000E+00  E=-3.900270E-01
              MO Center= -7.8E-01,  9.1E-01, -1.4E-06, r^2= 7.6E-01
   Bfn.  Coefficient  Atom+Function         Bfn.  Coefficient  Atom+Function  
  ----- ------------  ---------------      ----- ------------  ---------------
     8      0.418824  1 F  py                 4      0.414501  1 F  py         
     6      0.322827  1 F  s                 11     -0.284474  2 H  s          
    10     -0.240143  2 H  s          
 
 Vector    4  Occ=2.000000E+00  E=-2.454895E-01
              MO Center= -7.2E-01,  1.1E+00, -4.9E-05, r^2= 4.0E-01
   Bfn.  Coefficient  Atom+Function         Bfn.  Coefficient  Atom+Function  
  ----- ------------  ---------------      ----- ------------  ---------------
     7     -0.467226  1 F  px                 3     -0.420435  1 F  px         
     9      0.373709  1 F  pz                 5      0.336284  1 F  pz         
 
 Vector    5  Occ=2.000000E+00  E=-2.454895E-01
              MO Center= -7.2E-01,  1.1E+00, -4.9E-05, r^2= 4.0E-01
   Bfn.  Coefficient  Atom+Function         Bfn.  Coefficient  Atom+Function  
  ----- ------------  ---------------      ----- ------------  ---------------
     9      0.481948  1 F  pz                 5      0.433683  1 F  pz         
     7      0.362334  1 F  px                 3      0.326048  1 F  px         
 
 Vector    6  Occ=0.000000E+00  E=-1.770805E-02
              MO Center= -9.5E-01,  2.1E-01,  1.5E-04, r^2= 1.2E+00
   Bfn.  Coefficient  Atom+Function         Bfn.  Coefficient  Atom+Function  
  ----- ------------  ---------------      ----- ------------  ---------------
    11     -0.910146  2 H  s                  8     -0.471196  1 F  py         
     6      0.425478  1 F  s                  4     -0.348240  1 F  py         
    10     -0.239566  2 H  s          
 
 Vector    7  Occ=0.000000E+00  E= 8.074609E-01
              MO Center= -1.0E+00, -8.7E-03,  2.0E-04, r^2= 9.9E-01
   Bfn.  Coefficient  Atom+Function         Bfn.  Coefficient  Atom+Function  
  ----- ------------  ---------------      ----- ------------  ---------------
    10      1.244805  2 H  s                 11     -1.133931  2 H  s          
     6      0.245286  1 F  s                  4      0.218989  1 F  py         
 
 Vector    8  Occ=0.000000E+00  E= 1.766847E+00
              MO Center= -7.2E-01,  1.1E+00, -4.9E-05, r^2= 5.7E-01
   Bfn.  Coefficient  Atom+Function         Bfn.  Coefficient  Atom+Function  
  ----- ------------  ---------------      ----- ------------  ---------------
     5      0.877570  1 F  pz                 9     -0.846333  1 F  pz         
     3     -0.476792  1 F  px                 7      0.459821  1 F  px         
 
 Vector    9  Occ=0.000000E+00  E= 1.766847E+00
              MO Center= -7.2E-01,  1.1E+00, -4.9E-05, r^2= 5.7E-01
   Bfn.  Coefficient  Atom+Function         Bfn.  Coefficient  Atom+Function  
  ----- ------------  ---------------      ----- ------------  ---------------
     3      0.850825  1 F  px                 7     -0.820540  1 F  px         
     5      0.491842  1 F  pz                 9     -0.474335  1 F  pz         
     4     -0.215002  1 F  py                 8      0.207349  1 F  py         
 
 Vector   10  Occ=0.000000E+00  E= 1.926145E+00
              MO Center= -6.9E-01,  1.3E+00, -7.9E-05, r^2= 6.2E-01
   Bfn.  Coefficient  Atom+Function         Bfn.  Coefficient  Atom+Function  
  ----- ------------  ---------------      ----- ------------  ---------------
     8      1.084347  1 F  py                 4     -0.956487  1 F  py         
    10      0.412429  2 H  s                  7      0.274152  1 F  px         
     3     -0.241825  1 F  px         
 
 Vector   11  Occ=0.000000E+00  E= 3.056102E+00
              MO Center= -7.6E-01,  9.9E-01, -1.9E-05, r^2= 5.4E-01
   Bfn.  Coefficient  Atom+Function         Bfn.  Coefficient  Atom+Function  
  ----- ------------  ---------------      ----- ------------  ---------------
     2     -1.496426  1 F  s                  6      1.398097  1 F  s          
    11     -0.289854  2 H  s                  8     -0.251358  1 F  py         
 

 center of mass
 --------------
 x =  -1.39058186 y =   2.02840624 z =  -0.00007003

 moments of inertia (a.u.)
 ------------------
           4.170168532386          -1.054328945189           0.000233465723
          -1.054328945189           0.266562471815           0.000923422780
           0.000233465723           0.000923422780           4.436730595244
 
     Multipole analysis of the density
     ---------------------------------
 
     L   x y z        total         alpha         beta         nuclear
     -   - - -        -----         -----         ----         -------
     0   0 0 0      0.000000     -5.000000     -5.000000     10.000000
 
     1   1 0 0     -0.194840      6.986437      6.986437    -14.167713
     1   0 1 0     -0.770646    -10.009421    -10.009421     19.248196
     1   0 0 1      0.000171      0.000321      0.000321     -0.000471
 
     2   2 0 0     -3.317467    -11.820274    -11.820274     20.323080
     2   1 1 0      1.129119     13.703968     13.703968    -26.278817
     2   1 0 1     -0.000324     -0.000386     -0.000386      0.000448
     2   0 2 0     -5.309661    -23.140264    -23.140264     40.970866
     2   0 1 1      0.000004      0.000889      0.000889     -0.001775
     2   0 0 2     -3.973799     -1.986900     -1.986900      0.000000
 
                                 NWChem DFT Module
                                 -----------------
 
 
                                     3FH-bsses
 
 
  Caching 1-el integrals 
 
            General Information
            -------------------
          SCF calculation type: DFT
          Wavefunction type:  closed shell.
          No. of atoms     :     6
          No. of electrons :    10
           Alpha electrons :     5
            Beta electrons :     5
          Charge           :     0
          Spin multiplicity:     1
          Use of symmetry is: off; symmetry adaption is: off
          Maximum number of iterations: 100
          This is a Direct SCF calculation.
          AO basis - number of functions:    33
                     number of shells:    21
          Convergence on energy requested: 1.00E-06
          Convergence on density requested: 1.00E-05
          Convergence on gradient requested: 5.00E-04
 
              XC Information
              --------------
                         Slater Exchange Functiona  1.000 local    
                      VWN V Correlation Functional  1.000 local    
 
             Grid Information
             ----------------
          Grid used for XC integration:  medium    
          Radial quadrature: Mura-Knowles        
          Angular quadrature: Lebedev. 
          Tag              B.-S. Rad. Rad. Pts. Rad. Cut. Ang. Pts.
          ---              ---------- --------- --------- ---------
          bqF                 0.50       49           7.0       434
          bqH                 0.35       45           6.0       434
          F                   0.50       49           7.0       434
          H                   0.35       45           6.0       434
          Grid pruning is: on 
          Number of quadrature shells:   282
          Spatial weights used:  Erf1
 
          Convergence Information
          -----------------------
          Convergence aids based upon iterative change in 
          total energy or number of iterations. 
          Levelshifting, if invoked, occurs when the 
          HOMO/LUMO gap drops below (HL_TOL): 1.00E-02
          DIIS, if invoked, will attempt to extrapolate 
          using up to (NFOCK): 10 stored Fock matrices.

                    Damping( 0%)  Levelshifting(0.5)       DIIS
                  --------------- ------------------- ---------------
          dE  on:    start            ASAP                start   
          dE off:    2 iters        100 iters           100 iters 

 
      Screening Tolerance Information
      -------------------------------
          Density screening/tol_rho: 1.00E-10
          AO Gaussian exp screening on grid/accAOfunc:  14
          CD Gaussian exp screening on grid/accCDfunc:  20
          XC Gaussian exp screening on grid/accXCfunc:  20
          Schwarz screening/accCoul: 1.00E-08

 
      Superposition of Atomic Density Guess
      -------------------------------------
 
 Sum of atomic energies:         -99.35355516
 
      Non-variational initial energy
      ------------------------------

 Total energy =     -99.126438
 1-e energy   =    -147.478254
 2-e energy   =      44.171785
 HOMO         =      -0.572002
 LUMO         =       0.056493
 
   Time after variat. SCF:      5.1
   Time prior to 1st pass:      5.1

 Grid_pts file          = ./3FH-bsses.gridpts.0
 Record size in doubles =  12289        No. of grid_pts per rec  =   3070
 Max. records in memory =     45        Max. recs in file   =  44373275


           Memory utilization after 1st SCF pass: 
           Heap Space remaining (MW):       12.55            12552431
          Stack Space remaining (MW):       13.11            13106862

   convergence    iter        energy       DeltaE   RMS-Dens  Diis-err    time
 ---------------- ----- ----------------- --------- --------- ---------  ------
 d= 0,ls=0.0,diis     1    -99.1585904785 -1.03E+02  3.14E-02  5.60E-01     5.6
 d= 0,ls=0.0,diis     2    -99.0369547165  1.22E-01  1.92E-02  1.91E+00     5.9
 d= 0,ls=0.0,diis     3    -99.2183186377 -1.81E-01  1.01E-03  1.47E-02     6.2
 d= 0,ls=0.0,diis     4    -99.2190625350 -7.44E-04  7.23E-04  1.25E-03     6.4
 d= 0,ls=0.0,diis     5    -99.2192538644 -1.91E-04  1.61E-05  2.48E-06     6.7
 d= 0,ls=0.0,diis     6    -99.2192540747 -2.10E-07  3.19E-06  5.35E-08     7.0


         Total DFT energy =      -99.219254074708
      One electron energy =     -148.148005779768
           Coulomb energy =       54.825808985910
    Exchange-Corr. energy =      -10.077087995947
 Nuclear repulsion energy =        4.180030715097

 Numeric. integr. density =        9.999998456181

     Total iterative time =      1.9s


 
                       DFT Final Molecular Orbital Analysis
                       ------------------------------------
 
 Vector    1  Occ=2.000000E+00  E=-2.392236E+01
              MO Center= -7.2E-01,  1.1E+00, -4.9E-05, r^2= 1.2E-02
   Bfn.  Coefficient  Atom+Function         Bfn.  Coefficient  Atom+Function  
  ----- ------------  ---------------      ----- ------------  ---------------
    12      0.980127  3 F  s          
 
 Vector    2  Occ=2.000000E+00  E=-9.999758E-01
              MO Center= -7.5E-01,  1.0E+00, -2.1E-05, r^2= 3.9E-01
   Bfn.  Coefficient  Atom+Function         Bfn.  Coefficient  Atom+Function  
  ----- ------------  ---------------      ----- ------------  ---------------
    17      0.772255  3 F  s                 12     -0.248683  3 F  s          
    13      0.234977  3 F  s          
 
 Vector    3  Occ=2.000000E+00  E=-4.138777E-01
              MO Center= -7.7E-01,  9.2E-01, -3.2E-06, r^2= 7.6E-01
   Bfn.  Coefficient  Atom+Function         Bfn.  Coefficient  Atom+Function  
  ----- ------------  ---------------      ----- ------------  ---------------
    19      0.420178  3 F  py                15      0.419021  3 F  py         
    17      0.287554  3 F  s                 22     -0.281988  4 H  s          
    21     -0.234380  4 H  s          
 
 Vector    4  Occ=2.000000E+00  E=-2.824051E-01
              MO Center= -6.8E-01,  1.1E+00, -4.0E-05, r^2= 4.8E-01
   Bfn.  Coefficient  Atom+Function         Bfn.  Coefficient  Atom+Function  
  ----- ------------  ---------------      ----- ------------  ---------------
    18     -0.540625  3 F  px                14     -0.523484  3 F  px         
    19      0.163318  3 F  py         
 
 Vector    5  Occ=2.000000E+00  E=-2.711036E-01
              MO Center= -7.2E-01,  1.1E+00, -4.8E-05, r^2= 3.9E-01
   Bfn.  Coefficient  Atom+Function         Bfn.  Coefficient  Atom+Function  
  ----- ------------  ---------------      ----- ------------  ---------------
    20      0.605715  3 F  pz                16      0.552952  3 F  pz         
 
 Vector    6  Occ=0.000000E+00  E=-3.932802E-02
              MO Center= -8.6E-01,  1.0E-01,  1.5E-04, r^2= 1.3E+00
   Bfn.  Coefficient  Atom+Function         Bfn.  Coefficient  Atom+Function  
  ----- ------------  ---------------      ----- ------------  ---------------
    22      0.797568  4 H  s                 19      0.443324  3 F  py         
    17     -0.394645  3 F  s                 15      0.339505  3 F  py         
    21      0.248329  4 H  s                 11      0.153277  2 bq s          
 
 Vector    7  Occ=0.000000E+00  E= 1.859672E-01
              MO Center=  4.7E-01, -3.2E-01,  2.2E-04, r^2= 2.2E+00
   Bfn.  Coefficient  Atom+Function         Bfn.  Coefficient  Atom+Function  
  ----- ------------  ---------------      ----- ------------  ---------------
    11     -0.896071  2 bq s                 33     -0.541173  6 bq s          
    22      0.522130  4 H  s                 18      0.214927  3 F  px         
    14      0.157612  3 F  px         
 
 Vector    8  Occ=0.000000E+00  E= 3.167235E-01
              MO Center=  5.3E-01,  2.6E-01,  2.6E-04, r^2= 2.6E+00
   Bfn.  Coefficient  Atom+Function         Bfn.  Coefficient  Atom+Function  
  ----- ------------  ---------------      ----- ------------  ---------------
    33      1.199849  6 bq s                 11     -0.854826  2 bq s          
    17     -0.415713  3 F  s                 18     -0.230197  3 F  px         
 
 Vector    9  Occ=0.000000E+00  E= 6.855767E-01
              MO Center= -3.1E-01, -8.1E-01, -1.1E-05, r^2= 1.9E+00
   Bfn.  Coefficient  Atom+Function         Bfn.  Coefficient  Atom+Function  
  ----- ------------  ---------------      ----- ------------  ---------------
     6      0.927102  1 bq s                 21     -0.453678  4 H  s          
    33      0.419968  6 bq s                 11     -0.405003  2 bq s          
    28     -0.395057  5 bq s                  8     -0.211352  1 bq py         
    15     -0.163499  3 F  py         
 
 Vector   10  Occ=0.000000E+00  E= 7.904121E-01
              MO Center= -1.0E+00, -3.9E-02,  2.4E-04, r^2= 1.6E+00
   Bfn.  Coefficient  Atom+Function         Bfn.  Coefficient  Atom+Function  
  ----- ------------  ---------------      ----- ------------  ---------------
    22      1.576600  4 H  s                 21     -0.999697  4 H  s          
     6     -0.718994  1 bq s                  8     -0.438267  1 bq py         
    33     -0.431879  6 bq s                 17     -0.299008  3 F  s          
    28      0.298430  5 bq s          
 
 Vector   11  Occ=0.000000E+00  E= 8.479613E-01
              MO Center=  8.6E-01, -2.0E-01,  7.0E-06, r^2= 2.1E+00
   Bfn.  Coefficient  Atom+Function         Bfn.  Coefficient  Atom+Function  
  ----- ------------  ---------------      ----- ------------  ---------------
    28     -1.032948  5 bq s                  6     -0.438103  1 bq s          
    33      0.394084  6 bq s                  7      0.327862  1 bq px         
    11      0.292010  2 bq s                 29     -0.272167  5 bq px         
 
 Vector   12  Occ=0.000000E+00  E= 1.001332E+00
              MO Center= -5.5E-01, -1.1E+00, -4.6E-05, r^2= 9.4E-01
   Bfn.  Coefficient  Atom+Function         Bfn.  Coefficient  Atom+Function  
  ----- ------------  ---------------      ----- ------------  ---------------
     9     -1.010032  1 bq pz                31     -0.191699  5 bq pz         
 
 Vector   13  Occ=0.000000E+00  E= 1.125013E+00
              MO Center=  1.3E+00,  1.6E-02,  1.2E-05, r^2= 9.5E-01
   Bfn.  Coefficient  Atom+Function         Bfn.  Coefficient  Atom+Function  
  ----- ------------  ---------------      ----- ------------  ---------------
    31      1.012629  5 bq pz                 9     -0.202184  1 bq pz         
 
 Vector   14  Occ=0.000000E+00  E= 1.155815E+00
              MO Center=  6.9E-02, -6.4E-01,  6.1E-05, r^2= 2.0E+00
   Bfn.  Coefficient  Atom+Function         Bfn.  Coefficient  Atom+Function  
  ----- ------------  ---------------      ----- ------------  ---------------
     8     -0.789022  1 bq py                29      0.609301  5 bq px         
    11      0.580589  2 bq s                 28     -0.517269  5 bq s          
    21      0.426392  4 H  s                  6     -0.400826  1 bq s          
    33      0.329761  6 bq s                 10     -0.202563  2 bq s          
    30      0.151849  5 bq py         
 
 Vector   15  Occ=0.000000E+00  E= 1.230499E+00
              MO Center=  2.5E-02, -7.4E-01,  2.0E-05, r^2= 2.1E+00
   Bfn.  Coefficient  Atom+Function         Bfn.  Coefficient  Atom+Function  
  ----- ------------  ---------------      ----- ------------  ---------------
     7      0.950434  1 bq px                11     -0.535165  2 bq s          
    22      0.426234  4 H  s                 28      0.367897  5 bq s          
    30      0.350918  5 bq py                29      0.267874  5 bq px         
     6      0.225703  1 bq s                 21     -0.205895  4 H  s          
    33     -0.177978  6 bq s          
 

 center of mass
 --------------
 x =  -1.06140868 y =  -2.21840158 z =  -0.00005867

 moments of inertia (a.u.)
 ------------------
           0.329223901429          -1.162876819680          -0.000988656777
          -1.162876819680           4.107488999636          -0.000279899986
          -0.000988656777          -0.000279899986           4.436712425133
 
     Multipole analysis of the density
     ---------------------------------
 
     L   x y z        total         alpha         beta         nuclear
     -   - - -        -----         -----         ----         -------
     0   0 0 0      0.000000     -5.000000     -5.000000     10.000000
 
     1   1 0 0     -0.376056      6.895828      6.895828    -14.167713
     1   0 1 0     -0.760615    -10.004405    -10.004405     19.248196
     1   0 0 1      0.000140      0.000305      0.000305     -0.000471
 
     2   2 0 0     -3.224515    -11.773798    -11.773798     20.323080
     2   1 1 0      0.809767     13.544292     13.544292    -26.278817
     2   1 0 1     -0.000336     -0.000392     -0.000392      0.000448
     2   0 2 0     -5.355240    -23.163053    -23.163053     40.970866
     2   0 1 1     -0.000069      0.000853      0.000853     -0.001775
     2   0 0 2     -4.040240     -2.020120     -2.020120      0.000000
 
                                 NWChem DFT Module
                                 -----------------
 
 
                                     3FH-bsses
 
 
  Caching 1-el integrals 
 
            General Information
            -------------------
[...]
           6    -0.00017    -0.00007     0.00004    -0.45064     0.66291     0.00052
           7     0.09708    -0.07157    -0.08620     0.00001     0.00002     0.02163
           8    -0.06474    -0.10743     0.09655     0.00001    -0.00001    -0.06847
           9    -0.00001    -0.00001     0.00000    -0.01965     0.02496    -0.00002
          10    -0.01894    -0.11984    -0.05920     0.00011     0.00001    -0.09873
          11     0.00243    -0.04180     0.29277     0.00014    -0.00003     0.47296
          12     0.00002     0.00018     0.00003     0.79946     0.05907     0.00033
          13     0.02872     0.12998     0.11205    -0.00004     0.00000    -0.07013
          14     0.12898    -0.01086    -0.00148     0.00000     0.00002     0.01550
          15     0.00000     0.00002     0.00000     0.03145     0.00453    -0.00003
          16     0.07814     0.00329     0.27337     0.00007    -0.00001     0.45885
          17     0.07787    -0.08379    -0.10841     0.00006     0.00015    -0.15152
          18     0.00016    -0.00011     0.00001    -0.34851    -0.72163     0.00043

                   13          14          15          16          17          18
 
 Frequency       1227.45     1457.85     1457.98     2092.77     2342.89     2343.28
 
           1    -0.00003     0.03170     0.00339     0.00461    -0.02183    -0.01971
           2    -0.00004    -0.02296    -0.00580    -0.00196    -0.00225    -0.01580
           3    -0.02972     0.00000     0.00000     0.00000     0.00000    -0.00001
           4     0.00025    -0.19569    -0.17899    -0.37898     0.52760     0.53545
           5     0.00028     0.54780     0.51110     0.43182     0.20603     0.18186
           6     0.56037    -0.00007    -0.00004    -0.00004     0.00008     0.00008
           7    -0.00001     0.02369    -0.02758    -0.00402    -0.00780    -0.00585
           8     0.00005     0.00800    -0.01385    -0.00300     0.01162    -0.02982
           9    -0.02973     0.00000     0.00000     0.00000     0.00000     0.00001
          10     0.00010    -0.74699     0.22949     0.56346    -0.05344     0.12880
          11    -0.00036     0.13961    -0.03951     0.11231    -0.20078     0.76218
          12     0.56028     0.00007    -0.00004    -0.00003     0.00002    -0.00009
          13     0.00005     0.00087    -0.00517    -0.00063    -0.02680    -0.00064
          14    -0.00001    -0.01441    -0.03663     0.00501     0.01681    -0.01079
          15    -0.02974     0.00000     0.00000     0.00000     0.00000     0.00000
          16    -0.00040    -0.11777     0.50291    -0.18354     0.58968    -0.17043
          17     0.00008    -0.13380     0.58926    -0.54491    -0.49889     0.11939
          18     0.56065    -0.00003     0.00011    -0.00005    -0.00007     0.00002



 ----------------------------------------------------------------------------
 Normal Eigenvalue ||         Derivative Dipole Moments (debye/angs)
  Mode   [cm**-1]  ||      [d/dqX]             [d/dqY]           [d/dqZ]
 ------ ---------- || ------------------ ------------------ -----------------
    1       -2.534 ||       0.009               0.006             0.142
    2       -1.823 ||      -0.148              -0.099             0.007
    3        0.195 ||      -0.006              -0.004             0.005
    4        0.555 ||       0.047               0.031             0.014
    5        1.249 ||      -0.078              -0.052             0.066
    6        2.327 ||      -0.017              -0.011            -0.252
    7      499.250 ||       0.031              -0.026             0.000
    8      499.305 ||      -0.200              -0.179             0.000
    9      499.946 ||       0.128               0.003             0.000
   10      923.481 ||       0.000               0.000            -0.591
   11      923.583 ||       0.000               0.000             1.591
   12      952.667 ||       0.502               0.202             0.001
   13     1227.451 ||       0.000               0.000             0.893
   14     1457.848 ||      -0.258              -0.294             0.000
   15     1457.980 ||       1.172               0.923             0.000
   16     2092.772 ||      -0.516              -0.786             0.000
   17     2342.887 ||       0.177              -0.092             0.000
   18     2343.278 ||      -0.138               0.024             0.000
 ----------------------------------------------------------------------------



  
  
 ----------------------------------------------------------------------------
 Normal Eigenvalue ||                 Infra Red Intensities
  Mode   [cm**-1]  || [atomic units] [(debye/angs)**2] [(KM/mol)] [arbitrary]
 ------ ---------- || -------------- ----------------- ---------- -----------
    1       -2.534 ||    0.000875           0.020         0.853       0.484
    2       -1.823 ||    0.001371           0.032         1.337       0.758
    3        0.195 ||    0.000003           0.000         0.003       0.002
    4        0.555 ||    0.000147           0.003         0.143       0.081
    5        1.249 ||    0.000567           0.013         0.553       0.314
    6        2.327 ||    0.002774           0.064         2.704       1.533
    7      499.250 ||    0.000072           0.002         0.070       0.040
    8      499.305 ||    0.003118           0.072         3.039       1.723
    9      499.946 ||    0.000706           0.016         0.688       0.390
   10      923.481 ||    0.015144           0.349        14.763       8.369
   11      923.583 ||    0.109712           2.531       106.952      60.631
   12      952.667 ||    0.012700           0.293        12.380       7.018
   13     1227.451 ||    0.034564           0.797        33.694      19.101
   14     1457.848 ||    0.006648           0.153         6.481       3.674
   15     1457.980 ||    0.096428           2.225        94.003      53.290
   16     2092.772 ||    0.038313           0.884        37.350      21.173
   17     2342.887 ||    0.001721           0.040         1.678       0.951
   18     2343.278 ||    0.000849           0.020         0.827       0.469
 ----------------------------------------------------------------------------



 
 
        Vibrational analysis via the FX method 
  --- with translations and rotations projected out ---
  --- via the Eckart algorithm                      ---
 Projected Nuclear Hessian trans-rot subspace norm:2.5146E-34
                         (should be close to zero!) 


From the projected analysis 
The Zero-Point Energy (Kcal/mol) =          21.76535256

 center of mass
 --------------
 x =   0.00000566 y =   0.00000254 z =  -0.00002272

 moments of inertia (a.u.)
 ------------------
         188.148156146746           0.003716666652          -0.006310383962
           0.003716666652         188.165783285384           0.000058794055
          -0.006310383962           0.000058794055         376.313937802792

 Rotational Constants
 --------------------
 A=   0.319963 cm-1  (  0.460345 K)
 B=   0.319930 cm-1  (  0.460298 K)
 C=   0.159973 cm-1  (  0.230161 K)


 Temperature                      =   298.15K

 Zero-Point correction to Energy  =   21.748 kcal/mol  (  0.034658 au)
 Thermal correction to Energy     =   24.054 kcal/mol  (  0.038333 au)
 Thermal correction to Enthalpy   =   24.647 kcal/mol  (  0.039277 au)

 Total Entropy                    =   64.682 cal/mol-K
   - Translational                =   38.179 cal/mol-K (mol. weight =  60.0187)
   - Rotational                   =   24.092 cal/mol-K (symmetry #  =        1)
   - Vibrational                  =    2.411 cal/mol-K

 Cv (constant volume heat capacity) =   11.455 cal/mol-K
   - Translational                  =    2.979 cal/mol-K
   - Rotational                     =    2.979 cal/mol-K
   - Vibrational                    =    5.496 cal/mol-K



          -------------------------------------------------
          NORMAL MODE EIGENVECTORS IN CARTESIAN COORDINATES
          -------------------------------------------------
             (Projected Frequencies expressed in cm-1)

                    1           2           3           4           5           6
 
 P.Frequency        0.00        0.00        0.00        0.00        0.00        0.00
 
           1     0.14148     0.00000     0.00000     0.09507     0.00000    -0.03215
           2    -0.11048     0.00000     0.00000     0.08971     0.00000    -0.00430
           3     0.00000     0.00029     0.00176     0.00000     0.22525     0.00000
           4     0.12304    -0.00003     0.00002     0.09376     0.00001    -0.00822
           5    -0.04533     0.00000    -0.00002     0.09436     0.00002    -0.08879
           6     0.00000     0.12449    -0.03666     0.00000     0.13731     0.00000
           7     0.00369     0.00000     0.00000     0.08525     0.00000     0.14655
           8    -0.11672     0.00000     0.00000     0.08927     0.00000     0.00378
           9     0.00000    -0.00012     0.22523     0.00000    -0.00344     0.00000
          10     0.06934    -0.00002     0.00001     0.08993     0.00001     0.06142
          11    -0.13331     0.00000    -0.00002     0.08808     0.00002     0.02531
          12     0.00000    -0.03677     0.13903     0.00000     0.12251     0.00000
          13     0.06719     0.00000     0.00000     0.08978     0.00000     0.06420
          14     0.00574     0.00000     0.00000     0.09800     0.00000    -0.15502
          15     0.00000     0.22525    -0.00159     0.00000    -0.00196     0.00000
          16     0.02000    -0.00003     0.00001     0.08641     0.00001     0.12541
          17    -0.04283     0.00000    -0.00002     0.09454     0.00002    -0.09204
          18     0.00000     0.13768     0.12304     0.00000    -0.03995     0.00000

                    7           8           9          10          11          12
 
 P.Frequency      499.25      499.31      499.96      923.49      923.62      952.70
 
           1    -0.12158    -0.05261    -0.02722    -0.00002     0.00000     0.04850
           2    -0.07131     0.12213    -0.09345    -0.00001    -0.00002     0.05301
           3     0.00000     0.00000     0.00000    -0.01959    -0.02503    -0.00002
           4    -0.12724    -0.00731    -0.20789    -0.00015    -0.00003    -0.36023
           5     0.04315     0.05813    -0.20256     0.00015    -0.00003    -0.32216
           6    -0.00015    -0.00008     0.00003     0.79949    -0.05677     0.00049
           7     0.09808    -0.07008    -0.08628     0.00001     0.00002     0.02162
           8    -0.06431    -0.10871     0.09539    -0.00002     0.00000    -0.06847
           9     0.00000    -0.00001     0.00000     0.03146    -0.00447    -0.00002
          10    -0.01767    -0.11952    -0.06022    -0.00009     0.00016    -0.09871
          11     0.00136    -0.04409     0.29242    -0.00005     0.00014     0.47297
          12     0.00001     0.00017     0.00004    -0.35041     0.72111     0.00030
          13     0.02711     0.12933     0.11321     0.00002    -0.00004    -0.07012
          14     0.12907    -0.00980    -0.00094     0.00001     0.00001     0.01549
          15     0.00000     0.00001     0.00000    -0.01187     0.02946    -0.00003
          16     0.07679     0.00177     0.27376    -0.00002     0.00013     0.45889
          17     0.07908    -0.08229    -0.10866     0.00013     0.00016    -0.15148
          18     0.00015    -0.00009     0.00001    -0.44913    -0.66368     0.00050

                   13          14          15          16          17          18
 
 P.Frequency     1227.45     1457.85     1457.98     2092.77     2342.89     2343.27
 
           1    -0.00003     0.03168     0.00350     0.00461    -0.02181    -0.01974
           2    -0.00004    -0.02294    -0.00588    -0.00196    -0.00223    -0.01580
           3    -0.02972     0.00000     0.00000     0.00000     0.00000    -0.00001
           4     0.00025    -0.19508    -0.17963    -0.37898     0.52697     0.53606
           5     0.00028     0.54605     0.51302     0.43181     0.20582     0.18210
           6     0.56048    -0.00014    -0.00009    -0.00004     0.00010     0.00006
           7    -0.00001     0.02378    -0.02750    -0.00402    -0.00780    -0.00586
           8     0.00005     0.00805    -0.01382    -0.00300     0.01166    -0.02981
           9    -0.02973     0.00000     0.00000     0.00000     0.00000     0.00001
          10     0.00010    -0.74778     0.22694     0.56346    -0.05359     0.12874
          11    -0.00037     0.13975    -0.03907     0.11231    -0.20167     0.76195
          12     0.56013     0.00014    -0.00007    -0.00003     0.00000    -0.00010
          13     0.00005     0.00089    -0.00516    -0.00063    -0.02680    -0.00067
          14    -0.00001    -0.01428    -0.03667     0.00501     0.01682    -0.01077
          15    -0.02974     0.00000     0.00000     0.00000     0.00001     0.00000
          16    -0.00040    -0.11949     0.50246    -0.18355     0.58988    -0.16975
          17     0.00008    -0.13582     0.58880    -0.54491    -0.49903     0.11880
          18     0.56068    -0.00003     0.00019    -0.00005    -0.00007     0.00004



 ----------------------------------------------------------------------------
 Normal Eigenvalue ||    Projected Derivative Dipole Moments (debye/angs)
  Mode   [cm**-1]  ||      [d/dqX]             [d/dqY]           [d/dqZ]
 ------ ---------- || ------------------ ------------------ -----------------
    1        0.000 ||      -0.107              -0.071             0.000
    2        0.000 ||       0.000               0.000            -0.125
    3        0.000 ||       0.000               0.000             0.242
    4        0.000 ||      -0.008              -0.005             0.000
    5        0.000 ||       0.000               0.000            -0.119
    6        0.000 ||       0.138               0.092             0.000
    7      499.250 ||       0.032              -0.025             0.000
    8      499.305 ||      -0.201              -0.179             0.000
    9      499.957 ||       0.126               0.002             0.000
   10      923.487 ||       0.000               0.000            -1.079
   11      923.619 ||       0.000               0.000            -1.310
   12      952.700 ||       0.502               0.202             0.001
   13     1227.451 ||       0.000               0.000             0.893
   14     1457.849 ||      -0.262              -0.298             0.000
   15     1457.978 ||       1.171               0.922             0.000
   16     2092.769 ||      -0.516              -0.786             0.000
   17     2342.887 ||       0.177              -0.092             0.000
   18     2343.274 ||      -0.138               0.024             0.000
 ----------------------------------------------------------------------------



  
  
 ----------------------------------------------------------------------------
 Normal Eigenvalue ||           Projected Infra Red Intensities
  Mode   [cm**-1]  || [atomic units] [(debye/angs)**2] [(KM/mol)] [arbitrary]
 ------ ---------- || -------------- ----------------- ---------- -----------
    1        0.000 ||    0.000712           0.016         0.694       0.394
    2        0.000 ||    0.000679           0.016         0.662       0.375
    3        0.000 ||    0.002530           0.058         2.466       1.398
    4        0.000 ||    0.000004           0.000         0.004       0.002
    5        0.000 ||    0.000618           0.014         0.602       0.341
    6        0.000 ||    0.001198           0.028         1.167       0.662
    7      499.250 ||    0.000071           0.002         0.069       0.039
    8      499.305 ||    0.003134           0.072         3.056       1.732
    9      499.957 ||    0.000690           0.016         0.672       0.381
   10      923.487 ||    0.050477           1.165        49.208      27.896
   11      923.619 ||    0.074374           1.716        72.504      41.102
   12      952.700 ||    0.012705           0.293        12.386       7.021
   13     1227.451 ||    0.034566           0.797        33.697      19.103
   14     1457.849 ||    0.006819           0.157         6.648       3.769
   15     1457.978 ||    0.096249           2.221        93.828      53.191
   16     2092.769 ||    0.038315           0.884        37.351      21.174
   17     2342.887 ||    0.001724           0.040         1.681       0.953
   18     2343.274 ||    0.000846           0.020         0.825       0.468
 ----------------------------------------------------------------------------



 vib:animation  F

 Task  times  cpu:       92.5s     wall:       96.1s
 
 
                                NWChem Input Module
                                -------------------
 
 
 Summary of allocated global arrays
-----------------------------------
  No active global arrays



                         GA Statistics for process    0
                         ------------------------------

       create   destroy   get      put      acc     scatter   gather  read&inc
calls: 7779     7779     1.98e+06 1.59e+05 1.56e+06 2433        0        0     
number of processes/call 1.00e+00 1.00e+00 1.00e+00 1.00e+00 0.00e+00
bytes total:             7.90e+08 5.10e+07 4.86e+08 1.47e+07 0.00e+00 0.00e+00
bytes remote:            0.00e+00 0.00e+00 0.00e+00 0.00e+00 0.00e+00 0.00e+00
Max memory consumed for GA by this process: 1656216 bytes
 
MA_summarize_allocated_blocks: starting scan ...
MA_summarize_allocated_blocks: scan completed: 0 heap blocks, 0 stack blocks
MA usage statistics:

	allocation statistics:
					      heap	     stack
					      ----	     -----
	current number of blocks	         0	         0
	maximum number of blocks	        24	        50
	current total bytes		         0	         0
	maximum total bytes		   8276464	  66229088
	maximum total K-bytes		      8277	     66230
	maximum total M-bytes		         9	        67



                                  ACKNOWLEDGEMENT
                                  ---------------

            Please use the following acknowledgement where appropriate 
            for results obtained with NWChem:

            High Performance Computational Chemistry Group, "NWChem, A
            Computational Chemistry Package for Parallel Computers, 
            Version 5.1.1" (2009), Pacific Northwest National Laboratory,
            Richland, Washington 99352-0999, USA.


                                     CITATION
                                     --------

          Please use the following citation when publishing results
          obtained with NWChem:

          E. J. Bylaska, W. A. de Jong, N. Govind, K. Kowalski, T. P. Straatsma,
          M. Valiev, D. Wang, E. Apra, T. L. Windus, J. Hammond, P. Nichols,
          S. Hirata, M. T. Hackler, Y. Zhao, P.-D. Fan, R. J. Harrison,
          M. Dupuis, D. M. A. Smith, J. Nieplocha, V. Tipparaju, M. Krishnan,
          A. Vazquez-Mayagoitia, Q. Wu, T. Van Voorhis, A. A. Auer, M. Nooijen,
          L. D. Crosby, E. Brown, G. Cisneros, G. I. Fann, H. Fruchtl,
          J. Garza, K. Hirao, R. Kendall, J. A. Nichols, K. Tsemekhman
          K. Wolinski, J. Anchell, D. Bernholdt, P. Borowski, T. Clark,
          D. Clerc, H. Dachsel, M. Deegan, K. Dyall, D. Elwood, E. Glendening
          M. Gutowski, A. Hess, J. Jaffe, B. Johnson, J. Ju, R. Kobayashi,
          R. Kutteh, Z. Lin, R. Littlefield, X. Long, B. Meng, T. Nakajima,
          S. Niu, L. Pollack, M. Rosing, G. Sandrone, M. Stave, H. Taylor,
          G. Thomas, J. van Lenthe, A. Wong, and Z. Zhang,
          "NWChem, A Computational Chemistry Package for Parallel Computers, 
          Version 5.1.1" (2009),
                      Pacific Northwest National Laboratory,
                      Richland, Washington 99352-0999, USA.



 Total times  cpu:      101.9s     wall:      107.7s
