 argument  1 = /home/edo/nwchem/nwchem-master/QA/tests/bsse_dft_trimer/bsse_dft_trimer.nw
  NWChem w/ OpenMP: maximum threads =    1



============================== echo of input deck ==============================
Title "FH-ClH-BrH-bsses"

Start FH-ClH-BrH-bsses

echo


geometry
F     -1.38995843    -1.56722829    -0.00008379
H     -0.35256333    -1.41900032    -0.00003648
Cl    -1.85390137     1.20144820    -0.00008815
H     -1.84508700    -0.28787015    -0.00009747
Br     1.31794608    -0.15266498     0.00004793
H      0.09998492     0.84537347    -0.00000141
end


basis "ao basis"
  H    library    3-21g
  F    library    3-21g
  Cl   library    3-21g
  Br   library    3-21g
  bqH  library H  3-21g
  bqF  library F  3-21g
  bqCl library Cl 3-21g
  bqBr library Br 3-21g
END

dft
 direct
 iterations 100
 grid fine
 convergence energy 1d-8
end

driver
clear
end

bsse
 mon uno 1 2
 mon dos 3 4
 mon tres 5 6
end

driver; tight;end

task dft optimize

task dft freq
================================================================================


                                         
                                         


              Northwest Computational Chemistry Package (NWChem) 6.8
              ------------------------------------------------------


                    Environmental Molecular Sciences Laboratory
                       Pacific Northwest National Laboratory
                                Richland, WA 99352

                              Copyright (c) 1994-2018
                       Pacific Northwest National Laboratory
                            Battelle Memorial Institute

             NWChem is an open-source computational chemistry package
                        distributed under the terms of the
                      Educational Community License (ECL) 2.0
             A copy of the license is included with this distribution
                              in the LICENSE.TXT file

                                  ACKNOWLEDGMENT
                                  --------------

            This software and its documentation were developed at the
            EMSL at Pacific Northwest National Laboratory, a multiprogram
            national laboratory, operated for the U.S. Department of Energy
            by Battelle under Contract Number DE-AC05-76RL01830. Support
            for this work was provided by the Department of Energy Office
            of Biological and Environmental Research, Office of Basic
            Energy Sciences, and the Office of Advanced Scientific Computing.


           Job information
           ---------------

    hostname        = durian
    program         = /home/edo/nwchem/nwchem-master/bin/LINUX64/nwchem
    date            = Wed Oct  2 23:41:31 2019

    compiled        = Wed_Oct_02_23:18:00_2019
    source          = /home/edo/nwchem/nwchem-master
    nwchem branch   = Development
    nwchem revision = nwchem_on_git-1221-g767bba738
    ga revision     = 5.7.0
    use scalapack   = T
    input           = /home/edo/nwchem/nwchem-master/QA/tests/bsse_dft_trimer/bsse_dft_trimer.nw
    prefix          = FH-ClH-BrH-bsses.
    data base       = ./FH-ClH-BrH-bsses.db
    status          = startup
    nproc           =        1
    time left       =     -1s



           Memory information
           ------------------

    heap     =   13107200 doubles =    100.0 Mbytes
    stack    =   13107197 doubles =    100.0 Mbytes
    global   =   26214400 doubles =    200.0 Mbytes (distinct from heap & stack)
    total    =   52428797 doubles =    400.0 Mbytes
    verify   = yes
    hardfail = no 


           Directory information
           ---------------------

  0 permanent = .
  0 scratch   = .




                                NWChem Input Module
                                -------------------


                                 FH-ClH-BrH-bsses
                                 ----------------

 Scaling coordinates for geometry "geometry" by  1.889725989
 (inverse scale =  0.529177249)

 CS  symmetry detected

          ------
          auto-z
          ------
  autoz: The atoms group into disjoint clusters
 cluster   1:    1    2
 cluster   2:    3    4
 cluster   3:    5    6
 Connecting clusters   1   2 via atoms    1    4 r = 1.36
 Connecting clusters   1   3 via atoms    2    5 r = 2.10
 Connecting clusters   2   3 via atoms    3    6 r = 1.99
  autoz: regenerating connections with new bonds
  no constraints, skipping    0.0000000000000000     
  no constraints, skipping    0.0000000000000000     


                             Geometry "geometry" -> ""
                             -------------------------

 Output coordinates in angstroms (scale by  1.889725989 to convert to a.u.)

  No.       Tag          Charge          X              Y              Z
 ---- ---------------- ---------- -------------- -------------- --------------
    1 F                    9.0000    -1.85549172     0.97527440     0.00000000
    2 H                    1.0000    -1.46389731     0.00325900     0.00000000
    3 Cl                  17.0000     0.72237987     2.08675568     0.00000000
    4 H                    1.0000    -0.72177393     1.72265868     0.00000000
    5 Br                  35.0000     0.16461706    -1.31664547     0.00000000
    6 H                    1.0000     0.84304170     0.10435774     0.00000000

      Atomic Mass 
      ----------- 

      F                 18.998400
      H                  1.007825
      Cl                34.968850
      Br                79.916500


 Effective nuclear repulsion energy (a.u.)     225.1723823453

            Nuclear Dipole moment (a.u.) 
            ----------------------------
        X                 Y               Z
 ---------------- ---------------- ----------------
     0.0000000000    -0.0000000000     0.0000000000

      Symmetry information
      --------------------

 Group name             Cs        
 Group number              2
 Group order               2
 No. of unique centers     6

      Symmetry unique atoms

     1    2    3    4    5    6



                                Z-matrix (autoz)
                                -------- 

 Units are Angstrom for bonds and degrees for angles

      Type          Name      I     J     K     L     M      Value
      ----------- --------  ----- ----- ----- ----- ----- ----------
    1 Stretch                  1     4                       1.35790
    2 Stretch                  1     2                       1.04793
    3 Stretch                  2     5                       2.09624
    4 Stretch                  3     6                       1.98607
    5 Stretch                  3     4                       1.48934
    6 Stretch                  5     6                       1.57465
    7 Bend                     1     4     3               160.75620
    8 Bend                     1     2     5               150.96758
    9 Bend                     2     5     6                76.49642
   10 Bend                     2     1     4               101.45124
   11 Bend                     3     6     5               150.99585
   12 Bend                     4     3     6                79.33271
   13 Torsion                  1     4     3     6           0.00000
   14 Torsion                  1     2     5     6           0.00000
   15 Torsion                  2     5     6     3           0.00000
   16 Torsion                  2     1     4     3           0.00000
   17 Torsion                  4     1     2     5           0.00000
   18 Torsion                  4     3     6     5          -0.00000


            XYZ format geometry
            -------------------
     6
 geometry
 F                    -1.85549172     0.97527440     0.00000000
 H                    -1.46389731     0.00325900     0.00000000
 Cl                    0.72237987     2.08675568     0.00000000
 H                    -0.72177393     1.72265868     0.00000000
 Br                    0.16461706    -1.31664547     0.00000000
 H                     0.84304170     0.10435774     0.00000000

 ==============================================================================
                                internuclear distances
 ------------------------------------------------------------------------------
       center one      |      center two      | atomic units |  angstroms
 ------------------------------------------------------------------------------
    6 H                |   5 Br               |     2.97565  |     1.57465
 ------------------------------------------------------------------------------
                         number of included internuclear distances:          1
 ==============================================================================



                      Basis "ao basis" -> "" (cartesian)
                      -----
  H (Hydrogen)
  ------------
            Exponent  Coefficients 
       -------------- ---------------------------------------------------------
  1 S  5.44717800E+00  0.156285
  1 S  8.24547000E-01  0.904691

  2 S  1.83192000E-01  1.000000

  F (Fluorine)
  ------------
            Exponent  Coefficients 
       -------------- ---------------------------------------------------------
  1 S  4.13801000E+02  0.058548
  1 S  6.22446000E+01  0.349308
  1 S  1.34340000E+01  0.709632

  2 S  9.77759000E+00 -0.407327
  2 S  2.08617000E+00  1.223140

  3 P  9.77759000E+00  0.246680
  3 P  2.08617000E+00  0.852321

  4 S  4.82383000E-01  1.000000

  5 P  4.82383000E-01  1.000000

  Cl (Chlorine)
  -------------
            Exponent  Coefficients 
       -------------- ---------------------------------------------------------
  1 S  1.37640000E+03  0.064583
  1 S  2.07857000E+02  0.380363
  1 S  4.51554000E+01  0.678190

  2 S  6.08014000E+01 -0.098764
  2 S  1.39765000E+01  0.051134
  2 S  3.88710000E+00  0.991337

  3 P  6.08014000E+01  0.108598
  3 P  1.39765000E+01  0.458682
  3 P  3.88710000E+00  0.601962

  4 S  1.35299000E+00 -0.222401
  4 S  5.26955000E-01  1.182520

  5 P  1.35299000E+00  0.219216
  5 P  5.26955000E-01  0.822321

  6 S  1.66714000E-01  1.000000

  7 P  1.66714000E-01  1.000000

  Br (Bromine)
  ------------
            Exponent  Coefficients 
       -------------- ---------------------------------------------------------
  1 S  6.10328990E+03  0.062418
  1 S  9.23697430E+02  0.372041
  1 S  2.02520310E+02  0.685873

  2 S  2.70601500E+02 -0.112149
  2 S  5.82535700E+01  0.093145
  2 S  1.84693300E+01  0.961679

  3 P  2.70601500E+02  0.147751
  3 P  5.82535700E+01  0.601056
  3 P  1.84693300E+01  0.412870

  4 S  1.97614200E+01 -0.293870
  4 S  6.82175200E+00  0.280266
  4 S  2.29162900E+00  0.902036

  5 P  1.97614200E+01  0.025007
  5 P  6.82175200E+00  0.486610
  5 P  2.29162900E+00  0.582423

  6 S  2.13120600E+00 -0.651803
  6 S  4.99354000E-01  1.336012

  7 P  2.13120600E+00  0.028708
  7 P  4.99354000E-01  0.984070

  8 S  1.64764000E-01  1.000000

  9 P  1.64764000E-01  1.000000

 10 D  3.39650970E+01  0.149667
 10 D  8.90083100E+00  0.511748
 10 D  2.42843600E+00  0.575915

  bqH
  ---
            Exponent  Coefficients 
       -------------- ---------------------------------------------------------
  1 S  5.44717800E+00  0.156285
  1 S  8.24547000E-01  0.904691

  2 S  1.83192000E-01  1.000000

  bqF
  ---
            Exponent  Coefficients 
       -------------- ---------------------------------------------------------
  1 S  4.13801000E+02  0.058548
  1 S  6.22446000E+01  0.349308
  1 S  1.34340000E+01  0.709632

  2 S  9.77759000E+00 -0.407327
  2 S  2.08617000E+00  1.223140

  3 P  9.77759000E+00  0.246680
  3 P  2.08617000E+00  0.852321

  4 S  4.82383000E-01  1.000000

  5 P  4.82383000E-01  1.000000

  bqCl
  ----
            Exponent  Coefficients 
       -------------- ---------------------------------------------------------
  1 S  1.37640000E+03  0.064583
  1 S  2.07857000E+02  0.380363
  1 S  4.51554000E+01  0.678190

  2 S  6.08014000E+01 -0.098764
  2 S  1.39765000E+01  0.051134
  2 S  3.88710000E+00  0.991337

  3 P  6.08014000E+01  0.108598
  3 P  1.39765000E+01  0.458682
  3 P  3.88710000E+00  0.601962

  4 S  1.35299000E+00 -0.222401
  4 S  5.26955000E-01  1.182520

  5 P  1.35299000E+00  0.219216
  5 P  5.26955000E-01  0.822321

  6 S  1.66714000E-01  1.000000

  7 P  1.66714000E-01  1.000000

  bqBr
  ----
            Exponent  Coefficients 
       -------------- ---------------------------------------------------------
  1 S  6.10328990E+03  0.062418
  1 S  9.23697430E+02  0.372041
  1 S  2.02520310E+02  0.685873

  2 S  2.70601500E+02 -0.112149
  2 S  5.82535700E+01  0.093145
  2 S  1.84693300E+01  0.961679

  3 P  2.70601500E+02  0.147751
  3 P  5.82535700E+01  0.601056
  3 P  1.84693300E+01  0.412870

  4 S  1.97614200E+01 -0.293870
  4 S  6.82175200E+00  0.280266
  4 S  2.29162900E+00  0.902036

  5 P  1.97614200E+01  0.025007
  5 P  6.82175200E+00  0.486610
  5 P  2.29162900E+00  0.582423

  6 S  2.13120600E+00 -0.651803
  6 S  4.99354000E-01  1.336012

  7 P  2.13120600E+00  0.028708
  7 P  4.99354000E-01  0.984070

  8 S  1.64764000E-01  1.000000

  9 P  1.64764000E-01  1.000000

 10 D  3.39650970E+01  0.149667
 10 D  8.90083100E+00  0.511748
 10 D  2.42843600E+00  0.575915



 Summary of "ao basis" -> "" (cartesian)
 ------------------------------------------------------------------------------
       Tag                 Description            Shells   Functions and Types
 ---------------- ------------------------------  ------  ---------------------
 H                           3-21g                   2        2   2s
 F                           3-21g                   5        9   3s2p
 Cl                          3-21g                   7       13   4s3p
 Br                          3-21g                  10       23   5s4p1d
 bqH                         3-21g                   2        2   2s
 bqF                         3-21g                   5        9   3s2p
 bqCl                        3-21g                   7       13   4s3p
 bqBr                        3-21g                  10       23   5s4p1d



  Deleted DRIVER restart files 



                     Input BSSE Module - Counter Poise Approach
                   --------------------------------------------


    supermolecule geometry name = geometry                                          
             number of monomers =    3
             total multiplicity =    1 to    1
                   total charge =    0

        atoms for each monomer  

              monomer     uno        :   1  2
              monomer     dos        :   3  4
              monomer     tres       :   5  6


                           NWChem Geometry Optimization
                           ----------------------------




                                 FH-ClH-BrH-bsses


  no constraints, skipping    0.0000000000000000     
 maximum gradient threshold         (gmax) =   0.000015
 rms gradient threshold             (grms) =   0.000010
 maximum cartesian step threshold   (xmax) =   0.000060
 rms cartesian step threshold       (xrms) =   0.000040
 fixed trust radius                (trust) =   0.300000
 maximum step size to saddle      (sadstp) =   0.100000
 energy precision                  (eprec) =   5.0D-06
 maximum number of steps          (nptopt) =   20
 initial hessian option           (inhess) =    0
 line search option               (linopt) =    1
 hessian update option            (modupd) =    1
 saddle point option              (modsad) =    0
 initial eigen-mode to follow     (moddir) =    0
 initial variable to follow       (vardir) =    0
 follow first negative mode     (firstneg) =    T
 apply conjugacy                    (opcg) =    F
 source of zmatrix                         =   autoz   


          -------------------
          Energy Minimization
          -------------------


 Names of Z-matrix variables 
    1              2              3              4              5         
    6              7              8              9             10         
   11             12             13             14             15         
   16             17             18         

 Variables with the same non-blank name are constrained to be equal


 Using diagonal initial Hessian 
 Scaling for Hessian diagonals: bonds = 1.00  angles = 0.25  torsions = 0.10

          --------
          Step   0
          --------


                         Geometry "geometry" -> "geometry"
                         ---------------------------------

 Output coordinates in angstroms (scale by  1.889725989 to convert to a.u.)

  No.       Tag          Charge          X              Y              Z
 ---- ---------------- ---------- -------------- -------------- --------------
    1 F                    9.0000    -1.85549172     0.97527440     0.00000000
    2 H                    1.0000    -1.46389731     0.00325900     0.00000000
    3 Cl                  17.0000     0.72237987     2.08675568     0.00000000
    4 H                    1.0000    -0.72177393     1.72265868     0.00000000
    5 Br                  35.0000     0.16461706    -1.31664547     0.00000000
    6 H                    1.0000     0.84304170     0.10435774     0.00000000

      Atomic Mass 
      ----------- 

      F                 18.998400
      H                  1.007825
      Cl                34.968850
      Br                79.916500


 Effective nuclear repulsion energy (a.u.)     225.1723823453

            Nuclear Dipole moment (a.u.) 
            ----------------------------
        X                 Y               Z
 ---------------- ---------------- ----------------
     0.0000000000    -0.0000000000     0.0000000000

      Symmetry information
      --------------------

 Group name             Cs        
 Group number              2
 Group order               2
 No. of unique centers     6

      Symmetry unique atoms

     1    2    3    4    5    6



                        BSSE Correction to Energy Gradient
                        ----------------------------------



                                 NWChem DFT Module
                                 -----------------


                                 FH-ClH-BrH-bsses




 Summary of "ao basis" -> "ao basis" (cartesian)
 ------------------------------------------------------------------------------
       Tag                 Description            Shells   Functions and Types
 ---------------- ------------------------------  ------  ---------------------
 H                           3-21g                   2        2   2s
 F                           3-21g                   5        9   3s2p
 Cl                          3-21g                   7       13   4s3p
 Br                          3-21g                  10       23   5s4p1d
 bqH                         3-21g                   2        2   2s
 bqF                         3-21g                   5        9   3s2p
 bqCl                        3-21g                   7       13   4s3p
 bqBr                        3-21g                  10       23   5s4p1d


      Symmetry analysis of basis
      --------------------------

        a'         40
        a"         11

  Caching 1-el integrals 
  itol2e modified to match energy
  convergence criterion.
  tol_rho modified to match energy
  convergence criterion.

            General Information
            -------------------
          SCF calculation type: DFT
          Wavefunction type:  closed shell.
          No. of atoms     :     6
          No. of electrons :    64
           Alpha electrons :    32
            Beta electrons :    32
          Charge           :     0
          Spin multiplicity:     1
          Use of symmetry is: on ; symmetry adaption is: on 
          Maximum number of iterations: 100
          This is a Direct SCF calculation.
          AO basis - number of functions:    51
                     number of shells:    28
          Convergence on energy requested:  1.00D-08
          Convergence on density requested:  1.00D-05
          Convergence on gradient requested:  5.00D-04

              XC Information
              --------------
                        Slater Exchange Functional  1.000 local    
                      VWN V Correlation Functional  1.000 local    

             Grid Information
             ----------------
          Grid used for XC integration:  fine      
          Radial quadrature: Mura-Knowles        
          Angular quadrature: Lebedev. 
          Tag              B.-S. Rad. Rad. Pts. Rad. Cut. Ang. Pts.
          ---              ---------- --------- --------- ---------
          F                   0.50       70           8.0       590
          H                   0.35       60           9.0       590
          Cl                  1.00      123          10.0       770
          Br                  1.15      140          10.0       974
          Grid pruning is: on 
          Number of quadrature shells:   513
          Spatial weights used:  Erf1

          Convergence Information
          -----------------------
          Convergence aids based upon iterative change in 
          total energy or number of iterations. 
          Levelshifting, if invoked, occurs when the 
          HOMO/LUMO gap drops below (HL_TOL):  1.00D-02
          DIIS, if invoked, will attempt to extrapolate 
          using up to (NFOCK): 10 stored Fock matrices.

                    Damping( 0%)  Levelshifting(0.5)       DIIS
                  --------------- ------------------- ---------------
          dE  on:    start            ASAP                start   
          dE off:    2 iters        100 iters           100 iters 


      Screening Tolerance Information
      -------------------------------
          Density screening/tol_rho:  1.00D-11
          AO Gaussian exp screening on grid/accAOfunc:  18
          CD Gaussian exp screening on grid/accCDfunc:  20
          XC Gaussian exp screening on grid/accXCfunc:  20
          Schwarz screening/accCoul:  1.00D-09


      Superposition of Atomic Density Guess
      -------------------------------------

 Sum of atomic energies:       -3117.67276120

      Non-variational initial energy
      ------------------------------

 Total energy =   -3117.751842
 1-e energy   =   -4792.709154
 2-e energy   =    1449.784930
 HOMO         =      -0.378211
 LUMO         =       0.104182


      Symmetry analysis of molecular orbitals - initial
      -------------------------------------------------

  Numbering of irreducible representations: 

     1 a'          2 a"      

  Orbital symmetries:

     1 a'          2 a'          3 a'          4 a'          5 a'      
     6 a"          7 a'          8 a'          9 a'         10 a'      
    11 a'         12 a"         13 a'         14 a'         15 a"      
    16 a'         17 a'         18 a"         19 a'         20 a"      
    21 a'         22 a'         23 a'         24 a'         25 a'      
    26 a"         27 a'         28 a'         29 a"         30 a'      
    31 a'         32 a"         33 a'         34 a'         35 a'      
    36 a'         37 a"         38 a'         39 a'         40 a"      
    41 a'         42 a'      

   Time after variat. SCF:      0.4
   Time prior to 1st pass:      0.4

 Grid_pts file          = ./FH-ClH-BrH-bsses.gridpts.0
 Record size in doubles =  12289        No. of grid_pts per rec  =   3070
 Max. records in memory =    180        Max. recs in file   = *********

 Grid integrated density:      64.000006408681
 Requested integration accuracy:   0.10E-06

           Memory utilization after 1st SCF pass: 
           Heap Space remaining (MW):        4.60             4600592
          Stack Space remaining (MW):       13.11            13106756

   convergence    iter        energy       DeltaE   RMS-Dens  Diis-err    time
 ---------------- ----- ----------------- --------- --------- ---------  ------
 d= 0,ls=0.0,diis     1  -3115.0771193857 -3.34D+03  2.15D-02  1.35D+00     1.3
 d= 0,ls=0.0,diis     2  -3115.1035665329 -2.64D-02  1.35D-02  4.69D-01     1.9
 d= 0,ls=0.0,diis     3  -3115.1293102736 -2.57D-02  5.67D-03  3.06D-01     2.5
 d= 0,ls=0.0,diis     4  -3115.1507309797 -2.14D-02  2.20D-03  8.05D-03     3.1
 d= 0,ls=0.0,diis     5  -3115.1520876558 -1.36D-03  5.06D-04  8.87D-04     3.8
  Resetting Diis
 d= 0,ls=0.0,diis     6  -3115.1521859920 -9.83D-05  1.85D-04  3.97D-05     4.4
 d= 0,ls=0.0,diis     7  -3115.1521931551 -7.16D-06  1.02D-04  3.11D-06     5.1
 d= 0,ls=0.0,diis     8  -3115.1521923323  8.23D-07  6.25D-05  8.06D-06     5.7
 d= 0,ls=0.0,diis     9  -3115.1521936859 -1.35D-06  4.52D-06  5.90D-08     6.4
 d= 0,ls=0.0,diis    10  -3115.1521936910 -5.14D-09  1.44D-06  1.27D-08     7.0


         Total DFT energy =    -3115.152193691014
      One electron energy =    -4793.131346728553
           Coulomb energy =     1578.150359516307
    Exchange-Corr. energy =     -125.343588824024
 Nuclear repulsion energy =      225.172382345255

 Numeric. integr. density =       64.000002163039

     Total iterative time =      6.6s



                  Occupations of the irreducible representations
                  ----------------------------------------------

                     irrep           alpha         beta
                     --------     --------     --------
                     a'               24.0         24.0
                     a"                8.0          8.0


                       DFT Final Molecular Orbital Analysis
                       ------------------------------------

 Vector    1  Occ=2.000000D+00  E=-4.768795D+02  Symmetry=a'
              MO Center=  1.6D-01, -1.3D+00, -3.0D-32, r^2= 7.3D-04
   Bfn.  Coefficient  Atom+Function         Bfn.  Coefficient  Atom+Function  
  ----- ------------  ---------------      ----- ------------  ---------------
    27      0.983234  5 Br s                 28      0.056871  5 Br s          

 Vector    2  Occ=2.000000D+00  E=-9.958902D+01  Symmetry=a'
              MO Center=  7.2D-01,  2.1D+00, -1.3D-21, r^2= 3.2D-03
   Bfn.  Coefficient  Atom+Function         Bfn.  Coefficient  Atom+Function  
  ----- ------------  ---------------      ----- ------------  ---------------
    12      0.985349  3 Cl s                 13      0.055065  3 Cl s          

 Vector    3  Occ=2.000000D+00  E=-6.133487D+01  Symmetry=a'
              MO Center=  1.6D-01, -1.3D+00,  1.1D-17, r^2= 1.3D-02
   Bfn.  Coefficient  Atom+Function         Bfn.  Coefficient  Atom+Function  
  ----- ------------  ---------------      ----- ------------  ---------------
    28      1.019339  5 Br s                 27     -0.331270  5 Br s          
    32      0.095134  5 Br s          

 Vector    4  Occ=2.000000D+00  E=-5.507781D+01  Symmetry=a'
              MO Center=  1.6D-01, -1.3D+00, -7.1D-17, r^2= 9.6D-03
   Bfn.  Coefficient  Atom+Function         Bfn.  Coefficient  Atom+Function  
  ----- ------------  ---------------      ----- ------------  ---------------
    30      0.876598  5 Br py                29      0.434895  5 Br px         
    34      0.051104  5 Br py                33      0.025280  5 Br px         

 Vector    5  Occ=2.000000D+00  E=-5.507531D+01  Symmetry=a'
              MO Center=  1.6D-01, -1.3D+00, -1.2D-16, r^2= 9.6D-03
   Bfn.  Coefficient  Atom+Function         Bfn.  Coefficient  Atom+Function  
  ----- ------------  ---------------      ----- ------------  ---------------
    29      0.876622  5 Br px                30     -0.434866  5 Br py         
    33      0.051029  5 Br px                34     -0.025389  5 Br py         

 Vector    6  Occ=2.000000D+00  E=-5.507374D+01  Symmetry=a"
              MO Center=  1.6D-01, -1.3D+00,  1.9D-16, r^2= 9.6D-03
   Bfn.  Coefficient  Atom+Function         Bfn.  Coefficient  Atom+Function  
  ----- ------------  ---------------      ----- ------------  ---------------
    31      0.978616  5 Br pz                35      0.056785  5 Br pz         

 Vector    7  Occ=2.000000D+00  E=-2.400282D+01  Symmetry=a'
              MO Center= -1.9D+00,  9.8D-01,  1.1D-20, r^2= 1.2D-02
   Bfn.  Coefficient  Atom+Function         Bfn.  Coefficient  Atom+Function  
  ----- ------------  ---------------      ----- ------------  ---------------
     1      0.980152  1 F  s                  2      0.106094  1 F  s          
     6     -0.038101  1 F  s          

 Vector    8  Occ=2.000000D+00  E=-9.061974D+00  Symmetry=a'
              MO Center=  7.2D-01,  2.1D+00,  3.3D-16, r^2= 6.7D-02
   Bfn.  Coefficient  Atom+Function         Bfn.  Coefficient  Atom+Function  
  ----- ------------  ---------------      ----- ------------  ---------------
    13      0.972408  3 Cl s                 12     -0.305567  3 Cl s          
    17      0.170245  3 Cl s                 21     -0.085364  3 Cl s          

 Vector    9  Occ=2.000000D+00  E=-8.310901D+00  Symmetry=a'
              MO Center=  1.6D-01, -1.3D+00,  6.1D-18, r^2= 1.0D-01
   Bfn.  Coefficient  Atom+Function         Bfn.  Coefficient  Atom+Function  
  ----- ------------  ---------------      ----- ------------  ---------------
    32      1.085491  5 Br s                 28     -0.480688  5 Br s          
    27      0.132157  5 Br s                 36      0.053957  5 Br s          

 Vector   10  Occ=2.000000D+00  E=-6.934374D+00  Symmetry=a'
              MO Center=  7.3D-01,  2.1D+00,  4.4D-16, r^2= 5.9D-02
   Bfn.  Coefficient  Atom+Function         Bfn.  Coefficient  Atom+Function  
  ----- ------------  ---------------      ----- ------------  ---------------
    14      0.949402  3 Cl px                15      0.194884  3 Cl py         
    18      0.092122  3 Cl px                22     -0.034608  3 Cl px         

 Vector   11  Occ=2.000000D+00  E=-6.928750D+00  Symmetry=a'
              MO Center=  7.2D-01,  2.1D+00, -1.7D-16, r^2= 5.9D-02
   Bfn.  Coefficient  Atom+Function         Bfn.  Coefficient  Atom+Function  
  ----- ------------  ---------------      ----- ------------  ---------------
    15      0.949560  3 Cl py                14     -0.195194  3 Cl px         
    19      0.092018  3 Cl py                23     -0.032893  3 Cl py         

 Vector   12  Occ=2.000000D+00  E=-6.924533D+00  Symmetry=a"
              MO Center=  7.2D-01,  2.1D+00, -6.0D-16, r^2= 5.9D-02
   Bfn.  Coefficient  Atom+Function         Bfn.  Coefficient  Atom+Function  
  ----- ------------  ---------------      ----- ------------  ---------------
    16      0.969927  3 Cl pz                20      0.091376  3 Cl pz         
    24     -0.027221  3 Cl pz         

 Vector   13  Occ=2.000000D+00  E=-6.170934D+00  Symmetry=a'
              MO Center=  1.6D-01, -1.3D+00, -5.1D-17, r^2= 1.1D-01
   Bfn.  Coefficient  Atom+Function         Bfn.  Coefficient  Atom+Function  
  ----- ------------  ---------------      ----- ------------  ---------------
    34      0.933552  5 Br py                33      0.487602  5 Br px         
    30     -0.385213  5 Br py                29     -0.201193  5 Br px         
    38      0.042232  5 Br py         

 Vector   14  Occ=2.000000D+00  E=-6.161771D+00  Symmetry=a'
              MO Center=  1.7D-01, -1.3D+00,  9.6D-14, r^2= 1.1D-01
   Bfn.  Coefficient  Atom+Function         Bfn.  Coefficient  Atom+Function  
  ----- ------------  ---------------      ----- ------------  ---------------
    33      0.933932  5 Br px                34     -0.487630  5 Br py         
    29     -0.385321  5 Br px                30      0.201193  5 Br py         
    37      0.041449  5 Br px         

 Vector   15  Occ=2.000000D+00  E=-6.156725D+00  Symmetry=a"
              MO Center=  1.6D-01, -1.3D+00, -9.6D-14, r^2= 1.1D-01
   Bfn.  Coefficient  Atom+Function         Bfn.  Coefficient  Atom+Function  
  ----- ------------  ---------------      ----- ------------  ---------------
    35      1.053870  5 Br pz                31     -0.434766  5 Br pz         
    39      0.045936  5 Br pz         

 Vector   16  Occ=2.000000D+00  E=-2.369618D+00  Symmetry=a'
              MO Center=  1.6D-01, -1.3D+00,  5.9D-18, r^2= 1.1D-01
   Bfn.  Coefficient  Atom+Function         Bfn.  Coefficient  Atom+Function  
  ----- ------------  ---------------      ----- ------------  ---------------
    45      1.320871  5 Br dxy               47      0.643334  5 Br dyy        
    49     -0.350438  5 Br dzz               44     -0.296496  5 Br dxx        
    51      0.056086  6 H  s                 40     -0.032501  5 Br s          
    21     -0.027108  3 Cl s                 42     -0.026179  5 Br py         

 Vector   17  Occ=2.000000D+00  E=-2.366526D+00  Symmetry=a'
              MO Center=  1.6D-01, -1.3D+00,  7.7D-17, r^2= 1.1D-01
   Bfn.  Coefficient  Atom+Function         Bfn.  Coefficient  Atom+Function  
  ----- ------------  ---------------      ----- ------------  ---------------
    45      1.010394  5 Br dxy               47     -0.708845  5 Br dyy        
    44      0.697708  5 Br dxx        

 Vector   18  Occ=2.000000D+00  E=-2.362865D+00  Symmetry=a"
              MO Center=  1.6D-01, -1.3D+00,  5.3D-17, r^2= 1.1D-01
   Bfn.  Coefficient  Atom+Function         Bfn.  Coefficient  Atom+Function  
  ----- ------------  ---------------      ----- ------------  ---------------
    48      1.537147  5 Br dyz               46      0.798201  5 Br dxz        

 Vector   19  Occ=2.000000D+00  E=-2.356352D+00  Symmetry=a"
              MO Center=  1.7D-01, -1.3D+00, -2.5D-16, r^2= 1.1D-01
   Bfn.  Coefficient  Atom+Function         Bfn.  Coefficient  Atom+Function  
  ----- ------------  ---------------      ----- ------------  ---------------
    46      1.537165  5 Br dxz               48     -0.798194  5 Br dyz        

 Vector   20  Occ=2.000000D+00  E=-2.356328D+00  Symmetry=a'
              MO Center=  1.6D-01, -1.3D+00, -2.7D-17, r^2= 1.1D-01
   Bfn.  Coefficient  Atom+Function         Bfn.  Coefficient  Atom+Function  
  ----- ------------  ---------------      ----- ------------  ---------------
    49      0.937480  5 Br dzz               44     -0.652176  5 Br dxx        
    45      0.480373  5 Br dxy               47     -0.282626  5 Br dyy        

 Vector   21  Occ=2.000000D+00  E=-1.112605D+00  Symmetry=a'
              MO Center= -1.8D+00,  8.7D-01, -7.9D-17, r^2= 4.1D-01
   Bfn.  Coefficient  Atom+Function         Bfn.  Coefficient  Atom+Function  
  ----- ------------  ---------------      ----- ------------  ---------------
     6      0.758633  1 F  s                  1     -0.244738  1 F  s          
     2      0.228996  1 F  s                 10      0.087581  2 H  s          
     7      0.063388  1 F  px                 8     -0.059076  1 F  py         
     3      0.057750  1 F  px                 4     -0.057422  1 F  py         
    25      0.036841  4 H  s                 26      0.034746  4 H  s          

 Vector   22  Occ=2.000000D+00  E=-7.650632D-01  Symmetry=a'
              MO Center=  4.4D-01,  1.4D+00,  4.1D-17, r^2= 2.1D+00
   Bfn.  Coefficient  Atom+Function         Bfn.  Coefficient  Atom+Function  
  ----- ------------  ---------------      ----- ------------  ---------------
    17      0.511952  3 Cl s                 21      0.420796  3 Cl s          
    13     -0.415221  3 Cl s                 40      0.225763  5 Br s          
    36      0.171085  5 Br s                 32     -0.150510  5 Br s          
    25      0.092609  4 H  s                 18     -0.087024  3 Cl px         
     6     -0.082790  1 F  s                 12      0.072655  3 Cl s          

 Vector   23  Occ=2.000000D+00  E=-7.392387D-01  Symmetry=a'
              MO Center=  2.2D-01, -5.5D-01, -1.3D-16, r^2= 2.5D+00
   Bfn.  Coefficient  Atom+Function         Bfn.  Coefficient  Atom+Function  
  ----- ------------  ---------------      ----- ------------  ---------------
    40      0.539410  5 Br s                 36      0.411577  5 Br s          
    32     -0.356512  5 Br s                 17     -0.243975  3 Cl s          
    21     -0.202406  3 Cl s                 13      0.196817  3 Cl s          
    28      0.138583  5 Br s                 50      0.075555  6 H  s          
    38      0.073514  5 Br py                42      0.056267  5 Br py         

 Vector   24  Occ=2.000000D+00  E=-5.224988D-01  Symmetry=a'
              MO Center= -1.5D+00,  9.3D-01, -1.3D-16, r^2= 1.5D+00
   Bfn.  Coefficient  Atom+Function         Bfn.  Coefficient  Atom+Function  
  ----- ------------  ---------------      ----- ------------  ---------------
     4      0.423204  1 F  py                 8      0.402889  1 F  py         
    26      0.246409  4 H  s                 11     -0.221350  2 H  s          
    10     -0.202904  2 H  s                 21     -0.184917  3 Cl s          
     6      0.172110  1 F  s                 25      0.109608  4 H  s          
    17     -0.093673  3 Cl s                 18     -0.089034  3 Cl px         

 Vector   25  Occ=2.000000D+00  E=-4.523466D-01  Symmetry=a'
              MO Center= -1.0D+00,  1.2D+00, -2.2D-16, r^2= 2.7D+00
   Bfn.  Coefficient  Atom+Function         Bfn.  Coefficient  Atom+Function  
  ----- ------------  ---------------      ----- ------------  ---------------
     7      0.386923  1 F  px                 3      0.367993  1 F  px         
     6     -0.275408  1 F  s                 18     -0.215637  3 Cl px         
    26      0.209432  4 H  s                 17     -0.177860  3 Cl s          
    25      0.167939  4 H  s                 21     -0.166443  3 Cl s          
    22     -0.133292  3 Cl px                13      0.128825  3 Cl s          

 Vector   26  Occ=2.000000D+00  E=-4.204852D-01  Symmetry=a'
              MO Center=  3.8D-01, -4.1D-01, -1.5D-16, r^2= 2.9D+00
   Bfn.  Coefficient  Atom+Function         Bfn.  Coefficient  Atom+Function  
  ----- ------------  ---------------      ----- ------------  ---------------
    51      0.369977  6 H  s                 38      0.309455  5 Br py         
    40     -0.288863  5 Br s                 50      0.231771  6 H  s          
    42      0.218661  5 Br py                34     -0.208589  5 Br py         
    19     -0.185587  3 Cl py                37      0.179946  5 Br px         
    41      0.131091  5 Br px                32      0.125977  5 Br s          

 Vector   27  Occ=2.000000D+00  E=-3.608233D-01  Symmetry=a"
              MO Center= -1.8D+00,  9.8D-01, -4.0D-16, r^2= 4.9D-01
   Bfn.  Coefficient  Atom+Function         Bfn.  Coefficient  Atom+Function  
  ----- ------------  ---------------      ----- ------------  ---------------
     9      0.602527  1 F  pz                 5      0.549048  1 F  pz         
    24      0.057085  3 Cl pz                43      0.043740  5 Br pz         
    20      0.035836  3 Cl pz         

 Vector   28  Occ=2.000000D+00  E=-3.351018D-01  Symmetry=a'
              MO Center= -2.8D-01,  1.6D+00, -1.0D-15, r^2= 2.9D+00
   Bfn.  Coefficient  Atom+Function         Bfn.  Coefficient  Atom+Function  
  ----- ------------  ---------------      ----- ------------  ---------------
    18      0.471635  3 Cl px                 7      0.386120  1 F  px         
    22      0.358181  3 Cl px                 3      0.347038  1 F  px         
    14     -0.219701  3 Cl px                 8      0.122116  1 F  py         
     4      0.114777  1 F  py                25     -0.094050  4 H  s          
    17      0.079898  3 Cl s                 19      0.068356  3 Cl py         

 Vector   29  Occ=2.000000D+00  E=-3.027667D-01  Symmetry=a'
              MO Center=  3.7D-02, -7.6D-01,  4.3D-16, r^2= 3.0D+00
   Bfn.  Coefficient  Atom+Function         Bfn.  Coefficient  Atom+Function  
  ----- ------------  ---------------      ----- ------------  ---------------
    41      0.497934  5 Br px                37      0.453352  5 Br px         
    33     -0.308381  5 Br px                 8     -0.174133  1 F  py         
    19      0.171325  3 Cl py                23      0.157750  3 Cl py         
    42     -0.155558  5 Br py                 4     -0.146326  1 F  py         
    38     -0.129640  5 Br py                11     -0.107904  2 H  s          

 Vector   30  Occ=2.000000D+00  E=-2.914601D-01  Symmetry=a'
              MO Center=  5.2D-01,  1.0D+00, -1.2D-16, r^2= 4.1D+00
   Bfn.  Coefficient  Atom+Function         Bfn.  Coefficient  Atom+Function  
  ----- ------------  ---------------      ----- ------------  ---------------
    19      0.515296  3 Cl py                23      0.436913  3 Cl py         
    42      0.346826  5 Br py                38      0.311488  5 Br py         
    15     -0.242147  3 Cl py                34     -0.208811  5 Br py         
    30      0.067612  5 Br py                 8      0.067169  1 F  py         
     4      0.059517  1 F  py                18     -0.050848  3 Cl px         

 Vector   31  Occ=2.000000D+00  E=-2.891733D-01  Symmetry=a"
              MO Center=  6.1D-01,  1.5D+00,  1.2D-15, r^2= 2.8D+00
   Bfn.  Coefficient  Atom+Function         Bfn.  Coefficient  Atom+Function  
  ----- ------------  ---------------      ----- ------------  ---------------
    20      0.552837  3 Cl pz                24      0.481293  3 Cl pz         
    16     -0.261210  3 Cl pz                43      0.247406  5 Br pz         
    39      0.200227  5 Br pz                35     -0.139712  5 Br pz         
     9     -0.062425  1 F  pz                 5     -0.061462  1 F  pz         
    31      0.045358  5 Br pz         

 Vector   32  Occ=2.000000D+00  E=-2.769178D-01  Symmetry=a"
              MO Center=  2.5D-01, -7.6D-01,  1.2D-15, r^2= 3.0D+00
   Bfn.  Coefficient  Atom+Function         Bfn.  Coefficient  Atom+Function  
  ----- ------------  ---------------      ----- ------------  ---------------
    43      0.560169  5 Br pz                39      0.483310  5 Br pz         
    35     -0.330710  5 Br pz                20     -0.256725  3 Cl pz         
    24     -0.207887  3 Cl pz                16      0.119683  3 Cl pz         
    31      0.107225  5 Br pz         

 Vector   33  Occ=0.000000D+00  E=-4.037191D-02  Symmetry=a'
              MO Center=  5.3D-01, -1.6D-01,  6.4D-17, r^2= 3.0D+00
   Bfn.  Coefficient  Atom+Function         Bfn.  Coefficient  Atom+Function  
  ----- ------------  ---------------      ----- ------------  ---------------
    51      1.186648  6 H  s                 42     -0.638994  5 Br py         
    40     -0.432806  5 Br s                 41     -0.397783  5 Br px         
    23      0.316839  3 Cl py                50      0.286889  6 H  s          
    38     -0.253030  5 Br py                19      0.237111  3 Cl py         
    37     -0.201427  5 Br px                34      0.174308  5 Br py         

 Vector   34  Occ=0.000000D+00  E=-5.604018D-06  Symmetry=a'
              MO Center= -8.3D-01,  5.8D-01, -1.6D-17, r^2= 3.2D+00
   Bfn.  Coefficient  Atom+Function         Bfn.  Coefficient  Atom+Function  
  ----- ------------  ---------------      ----- ------------  ---------------
    11      0.779458  2 H  s                 26      0.659824  4 H  s          
     6     -0.592030  1 F  s                 22      0.352116  3 Cl px         
    42     -0.287026  5 Br py                 7     -0.265334  1 F  px         
    51      0.258425  6 H  s                 18      0.239331  3 Cl px         
    21     -0.215635  3 Cl s                 17     -0.198998  3 Cl s          

 Vector   35  Occ=0.000000D+00  E= 5.934818D-02  Symmetry=a'
              MO Center= -8.3D-01,  1.1D+00, -2.8D-18, r^2= 3.0D+00
   Bfn.  Coefficient  Atom+Function         Bfn.  Coefficient  Atom+Function  
  ----- ------------  ---------------      ----- ------------  ---------------
    26      1.048708  4 H  s                 11     -0.744670  2 H  s          
    22      0.510322  3 Cl px                 8     -0.442913  1 F  py         
     4     -0.319480  1 F  py                21     -0.315919  3 Cl s          
    18      0.281974  3 Cl px                25      0.274724  4 H  s          
    17     -0.199531  3 Cl s                 10     -0.183392  2 H  s          

 Vector   36  Occ=0.000000D+00  E= 4.867315D-01  Symmetry=a'
              MO Center=  1.0D+00,  2.4D+00,  2.1D-16, r^2= 2.2D+00
   Bfn.  Coefficient  Atom+Function         Bfn.  Coefficient  Atom+Function  
  ----- ------------  ---------------      ----- ------------  ---------------
    17      1.399314  3 Cl s                 21     -1.367128  3 Cl s          
    19      0.581099  3 Cl py                23     -0.550498  3 Cl py         
    18      0.476403  3 Cl px                22     -0.353981  3 Cl px         
    13     -0.322534  3 Cl s                 40      0.315774  5 Br s          
    36     -0.300483  5 Br s                 15     -0.171726  3 Cl py         

 Vector   37  Occ=0.000000D+00  E= 5.020640D-01  Symmetry=a"
              MO Center=  5.6D-01,  1.1D+00, -1.8D-16, r^2= 4.4D+00
   Bfn.  Coefficient  Atom+Function         Bfn.  Coefficient  Atom+Function  
  ----- ------------  ---------------      ----- ------------  ---------------
    20      1.033374  3 Cl pz                24     -0.989888  3 Cl pz         
    39      0.763608  5 Br pz                43     -0.641941  5 Br pz         
    16     -0.302900  3 Cl pz                35     -0.267849  5 Br pz         
    31      0.081538  5 Br pz                 5      0.039601  1 F  pz         

 Vector   38  Occ=0.000000D+00  E= 5.142257D-01  Symmetry=a'
              MO Center=  1.4D-01, -1.4D+00, -3.5D-17, r^2= 3.9D+00
   Bfn.  Coefficient  Atom+Function         Bfn.  Coefficient  Atom+Function  
  ----- ------------  ---------------      ----- ------------  ---------------
    42     -1.153806  5 Br py                38      1.114741  5 Br py         
    36     -0.850504  5 Br s                 40      0.639543  5 Br s          
    23      0.582688  3 Cl py                51      0.496654  6 H  s          
    19     -0.491150  3 Cl py                34     -0.379171  5 Br py         
    21     -0.336232  3 Cl s                 17      0.222760  3 Cl s          

 Vector   39  Occ=0.000000D+00  E= 5.555903D-01  Symmetry=a'
              MO Center=  8.0D-01,  1.1D+00,  2.9D-16, r^2= 5.1D+00
   Bfn.  Coefficient  Atom+Function         Bfn.  Coefficient  Atom+Function  
  ----- ------------  ---------------      ----- ------------  ---------------
    22      1.139551  3 Cl px                18     -0.893712  3 Cl px         
    41      0.778560  5 Br px                37     -0.745737  5 Br px         
    40      0.523422  5 Br s                 23     -0.461526  3 Cl py         
    19      0.441357  3 Cl py                36     -0.425087  5 Br s          
    26      0.377545  4 H  s                 51     -0.297313  6 H  s          

 Vector   40  Occ=0.000000D+00  E= 5.648960D-01  Symmetry=a"
              MO Center=  3.2D-01, -3.7D-01, -3.6D-16, r^2= 4.7D+00
   Bfn.  Coefficient  Atom+Function         Bfn.  Coefficient  Atom+Function  
  ----- ------------  ---------------      ----- ------------  ---------------
    39      1.249948  5 Br pz                43     -1.109574  5 Br pz         
    24      0.655367  3 Cl pz                20     -0.649549  3 Cl pz         
    35     -0.429215  5 Br pz                16      0.187293  3 Cl pz         
    31      0.130295  5 Br pz         

 Vector   41  Occ=0.000000D+00  E= 5.769699D-01  Symmetry=a'
              MO Center=  5.5D-01, -2.3D-01,  4.3D-17, r^2= 4.9D+00
   Bfn.  Coefficient  Atom+Function         Bfn.  Coefficient  Atom+Function  
  ----- ------------  ---------------      ----- ------------  ---------------
    41     -1.146784  5 Br px                37      1.121545  5 Br px         
    22      0.830623  3 Cl px                21     -0.659448  3 Cl s          
    40     -0.612772  5 Br s                 18     -0.581824  3 Cl px         
    36      0.503572  5 Br s                 17      0.439157  3 Cl s          
    42     -0.429579  5 Br py                26      0.399743  4 H  s          

 Vector   42  Occ=0.000000D+00  E= 6.346514D-01  Symmetry=a'
              MO Center=  1.2D-01,  5.6D-01,  5.8D-18, r^2= 3.7D+00
   Bfn.  Coefficient  Atom+Function         Bfn.  Coefficient  Atom+Function  
  ----- ------------  ---------------      ----- ------------  ---------------
    21      1.474425  3 Cl s                 40      1.240564  5 Br s          
    17     -1.106637  3 Cl s                 23     -1.004253  3 Cl py         
    36     -0.928313  5 Br s                 19      0.708861  3 Cl py         
    51     -0.690627  6 H  s                 26     -0.573681  4 H  s          
    22     -0.521421  3 Cl px                37      0.504689  5 Br px         

 Vector   43  Occ=0.000000D+00  E= 7.202192D-01  Symmetry=a'
              MO Center=  4.9D-02, -1.9D-01, -5.5D-16, r^2= 3.6D+00
   Bfn.  Coefficient  Atom+Function         Bfn.  Coefficient  Atom+Function  
  ----- ------------  ---------------      ----- ------------  ---------------
    40      1.589293  5 Br s                 36     -1.258924  5 Br s          
    42      1.246862  5 Br py                38     -0.973660  5 Br py         
    21     -0.877314  3 Cl s                 11     -0.774822  2 H  s          
    26      0.745579  4 H  s                 22      0.635290  3 Cl px         
    17      0.619210  3 Cl s                 23      0.548506  3 Cl py         

 Vector   44  Occ=0.000000D+00  E= 8.398601D-01  Symmetry=a'
              MO Center= -1.1D+00,  5.9D-01, -4.5D-17, r^2= 2.5D+00
   Bfn.  Coefficient  Atom+Function         Bfn.  Coefficient  Atom+Function  
  ----- ------------  ---------------      ----- ------------  ---------------
    26     -1.108122  4 H  s                 21      1.076124  3 Cl s          
    11     -1.047284  2 H  s                 10      0.974934  2 H  s          
    40      0.972469  5 Br s                 51     -0.730411  6 H  s          
    25      0.651732  4 H  s                 17     -0.588009  3 Cl s          
    36     -0.537441  5 Br s                 22     -0.455496  3 Cl px         

 Vector   45  Occ=0.000000D+00  E= 8.976874D-01  Symmetry=a'
              MO Center= -1.0D+00,  1.0D+00, -2.2D-18, r^2= 2.8D+00
   Bfn.  Coefficient  Atom+Function         Bfn.  Coefficient  Atom+Function  
  ----- ------------  ---------------      ----- ------------  ---------------
    26      1.713972  4 H  s                 11     -1.038256  2 H  s          
    25     -0.997584  4 H  s                 21     -0.865892  3 Cl s          
    10      0.790601  2 H  s                 51      0.427866  6 H  s          
    22      0.417580  3 Cl px                50     -0.306107  6 H  s          
    17      0.272948  3 Cl s                 38      0.234264  5 Br py         

 Vector   46  Occ=0.000000D+00  E= 9.915081D-01  Symmetry=a'
              MO Center=  8.4D-01,  3.5D-01, -4.7D-18, r^2= 2.2D+00
   Bfn.  Coefficient  Atom+Function         Bfn.  Coefficient  Atom+Function  
  ----- ------------  ---------------      ----- ------------  ---------------
    51      2.183040  6 H  s                 50     -1.259323  6 H  s          
    40     -0.998407  5 Br s                 21     -0.689611  3 Cl s          
    23      0.596119  3 Cl py                26     -0.506984  4 H  s          
    42     -0.460701  5 Br py                17      0.458141  3 Cl s          
    25      0.454726  4 H  s                 41     -0.429763  5 Br px         

 Vector   47  Occ=0.000000D+00  E= 1.660834D+00  Symmetry=a"
              MO Center= -1.9D+00,  9.8D-01,  4.2D-18, r^2= 6.0D-01
   Bfn.  Coefficient  Atom+Function         Bfn.  Coefficient  Atom+Function  
  ----- ------------  ---------------      ----- ------------  ---------------
     5      1.003265  1 F  pz                 9     -0.973509  1 F  pz         
    24      0.051732  3 Cl pz                20     -0.039779  3 Cl pz         
    43      0.035434  5 Br pz                39     -0.031728  5 Br pz         

 Vector   48  Occ=0.000000D+00  E= 1.778375D+00  Symmetry=a'
              MO Center= -1.9D+00,  1.0D+00, -9.6D-19, r^2= 7.1D-01
   Bfn.  Coefficient  Atom+Function         Bfn.  Coefficient  Atom+Function  
  ----- ------------  ---------------      ----- ------------  ---------------
     7     -1.040616  1 F  px                 3      0.967983  1 F  px         
    10      0.318460  2 H  s                  8      0.227226  1 F  py         
    25      0.185229  4 H  s                  4     -0.179085  1 F  py         
    11     -0.139857  2 H  s                  2     -0.108633  1 F  s          
    26      0.107800  4 H  s                 42      0.091913  5 Br py         

 Vector   49  Occ=0.000000D+00  E= 1.960782D+00  Symmetry=a'
              MO Center= -1.8D+00,  1.0D+00,  4.1D-18, r^2= 1.0D+00
   Bfn.  Coefficient  Atom+Function         Bfn.  Coefficient  Atom+Function  
  ----- ------------  ---------------      ----- ------------  ---------------
     8      1.288706  1 F  py                 4     -0.983784  1 F  py         
    26     -0.783597  4 H  s                 21      0.515631  3 Cl s          
    11      0.464152  2 H  s                 22     -0.334916  3 Cl px         
    10      0.263191  2 H  s                 40     -0.256541  5 Br s          
     7      0.251757  1 F  px                 3     -0.203151  1 F  px         

 Vector   50  Occ=0.000000D+00  E= 3.276608D+00  Symmetry=a'
              MO Center= -1.7D+00,  9.1D-01, -1.3D-19, r^2= 8.5D-01
   Bfn.  Coefficient  Atom+Function         Bfn.  Coefficient  Atom+Function  
  ----- ------------  ---------------      ----- ------------  ---------------
     6     -1.721328  1 F  s                  2      1.567049  1 F  s          
    26      0.644742  4 H  s                 21     -0.482640  3 Cl s          
    11      0.445915  2 H  s                 40     -0.359937  5 Br s          
    22      0.286912  3 Cl px                 7     -0.271941  1 F  px         
    42     -0.217852  5 Br py                17      0.197009  3 Cl s          

 Vector   51  Occ=0.000000D+00  E= 2.362934D+01  Symmetry=a'
              MO Center=  1.6D-01, -1.3D+00,  3.1D-19, r^2= 7.9D-01
   Bfn.  Coefficient  Atom+Function         Bfn.  Coefficient  Atom+Function  
  ----- ------------  ---------------      ----- ------------  ---------------
    32     10.894125  5 Br s                 44     -5.175773  5 Br dxx        
    47     -5.179007  5 Br dyy               49     -5.173028  5 Br dzz        
    36      2.423179  5 Br s                 40     -1.354891  5 Br s          
    28      1.033134  5 Br s                 51      0.329099  6 H  s          
    42     -0.268511  5 Br py                11      0.242900  2 H  s          


 center of mass
 --------------
 x =   0.02500964 y =  -0.16393786 z =   0.00000000

 moments of inertia (a.u.)
 ------------------
        1110.083834508705          -0.000000000000           0.000000000000
          -0.000000000000         318.536292943519           0.000000000000
           0.000000000000           0.000000000000        1428.620127452224

     Multipole analysis of the density
     ---------------------------------

     L   x y z        total         alpha         beta         nuclear
     -   - - -        -----         -----         ----         -------
     0   0 0 0     -0.000000    -32.000000    -32.000000     64.000000

     1   1 0 0     -0.590651     -0.295326     -0.295326      0.000000
     1   0 1 0     -0.470166     -0.235083     -0.235083     -0.000000
     1   0 0 1      0.000000      0.000000      0.000000      0.000000

     2   2 0 0    -28.744513    -93.256943    -93.256943    157.769374
     2   1 1 0     -0.984924     -1.552442     -1.552442      2.119959
     2   1 0 1      0.000000      0.000000      0.000000      0.000000
     2   0 2 0    -32.412032   -277.323433   -277.323433    522.234833
     2   0 1 1      0.000000      0.000000      0.000000      0.000000
     2   0 0 2    -29.207110    -14.603555    -14.603555      0.000000


            General Information
            -------------------
          SCF calculation type: DFT
          Wavefunction type:  closed shell.
          No. of atoms     :     6
          No. of electrons :    64
           Alpha electrons :    32
            Beta electrons :    32
          Charge           :     0
          Spin multiplicity:     1
          Use of symmetry is: on ; symmetry adaption is: on 
          Maximum number of iterations: 100
          This is a Direct SCF calculation.
          AO basis - number of functions:    51
                     number of shells:    28
          Convergence on energy requested:  1.00D-08
          Convergence on density requested:  1.00D-05
          Convergence on gradient requested:  5.00D-04

              XC Information
              --------------
                        Slater Exchange Functional  1.000 local    
                      VWN V Correlation Functional  1.000 local    

             Grid Information
             ----------------
          Grid used for XC integration:  fine      
          Radial quadrature: Mura-Knowles        
          Angular quadrature: Lebedev. 
          Tag              B.-S. Rad. Rad. Pts. Rad. Cut. Ang. Pts.
          ---              ---------- --------- --------- ---------
          F                   0.50       70           8.0       590
          H                   0.35       60           9.0       590
          Cl                  1.00      123          10.0       770
          Br                  1.15      140          10.0       974
          Grid pruning is: on 
          Number of quadrature shells:   513
          Spatial weights used:  Erf1

          Convergence Information
          -----------------------
          Convergence aids based upon iterative change in 
          total energy or number of iterations. 
          Levelshifting, if invoked, occurs when the 
          HOMO/LUMO gap drops below (HL_TOL):  1.00D-02
          DIIS, if invoked, will attempt to extrapolate 
          using up to (NFOCK): 10 stored Fock matrices.

                    Damping( 0%)  Levelshifting(0.5)       DIIS
                  --------------- ------------------- ---------------
          dE  on:    start            ASAP                start   
          dE off:    2 iters        100 iters           100 iters 


      Screening Tolerance Information
      -------------------------------
          Density screening/tol_rho:  1.00D-11
          AO Gaussian exp screening on grid/accAOfunc:  18
          CD Gaussian exp screening on grid/accCDfunc:  20
          XC Gaussian exp screening on grid/accXCfunc:  20
          Schwarz screening/accCoul:  1.00D-09



                            NWChem DFT Gradient Module
                            --------------------------


                                 FH-ClH-BrH-bsses



  charge          =   0.00
  wavefunction    = closed shell

  Using symmetry


                         DFT ENERGY GRADIENTS

    atom               coordinates                        gradient
                 x          y          z           x          y          z
   1 F      -3.506371   1.843001   0.000000   -0.006070  -0.000634   0.000000
   2 H      -2.766365   0.006159   0.000000   -0.002665  -0.002725   0.000000
   3 Cl      1.365100   3.943396   0.000000    0.002151   0.003811   0.000000
   4 H      -1.363955   3.255353   0.000000    0.002713   0.006282   0.000000
   5 Br      0.311081  -2.488099   0.000000    0.001945  -0.004669   0.000000
   6 H       1.593118   0.197208   0.000000    0.001926  -0.002064   0.000000

                 ----------------------------------------
                 |  Time  |  1-e(secs)   |  2-e(secs)   |
                 ----------------------------------------
                 |  CPU   |       0.00   |       1.35   |
                 ----------------------------------------
                 |  WALL  |       0.01   |       3.00   |
                 ----------------------------------------


                             Geometry "uno" -> "    "
                             ------------------------

 Output coordinates in angstroms (scale by  1.889725989 to convert to a.u.)

  No.       Tag          Charge          X              Y              Z
 ---- ---------------- ---------- -------------- -------------- --------------
    1 F                    9.0000    -1.85549172     0.97527440     0.00000000
    2 H                    1.0000    -1.46389731     0.00325900     0.00000000

      Atomic Mass 
      ----------- 

      F                 18.998400
      H                  1.007825


 Effective nuclear repulsion energy (a.u.)       0.0000000000

            Nuclear Dipole moment (a.u.) 
            ----------------------------
        X                 Y               Z
 ---------------- ---------------- ----------------
     0.0000000000     0.0000000000     0.0000000000



                             Geometry "dos" -> "    "
                             ------------------------

 Output coordinates in angstroms (scale by  1.889725989 to convert to a.u.)

  No.       Tag          Charge          X              Y              Z
 ---- ---------------- ---------- -------------- -------------- --------------
    1 Cl                  17.0000     0.72237987     2.08675568     0.00000000
    2 H                    1.0000    -0.72177393     1.72265868     0.00000000

      Atomic Mass 
      ----------- 

      Cl                34.968850
      H                  1.007825


 Effective nuclear repulsion energy (a.u.)       0.0000000000

            Nuclear Dipole moment (a.u.) 
            ----------------------------
        X                 Y               Z
 ---------------- ---------------- ----------------
     0.0000000000     0.0000000000     0.0000000000



                            Geometry "tres" -> "     "
                            --------------------------

 Output coordinates in angstroms (scale by  1.889725989 to convert to a.u.)

  No.       Tag          Charge          X              Y              Z
 ---- ---------------- ---------- -------------- -------------- --------------
    1 Br                  35.0000     0.16461706    -1.31664547     0.00000000
    2 H                    1.0000     0.84304170     0.10435774     0.00000000

      Atomic Mass 
      ----------- 

      Br                79.916500
      H                  1.007825


 Effective nuclear repulsion energy (a.u.)       0.0000000000

            Nuclear Dipole moment (a.u.) 
            ----------------------------
        X                 Y               Z
 ---------------- ---------------- ----------------
     0.0000000000     0.0000000000     0.0000000000


                                 NWChem DFT Module
                                 -----------------


                                 FH-ClH-BrH-bsses




 Summary of "ao basis" -> "ao basis" (cartesian)
 ------------------------------------------------------------------------------
       Tag                 Description            Shells   Functions and Types
 ---------------- ------------------------------  ------  ---------------------
 H                           3-21g                   2        2   2s
 F                           3-21g                   5        9   3s2p
 Cl                          3-21g                   7       13   4s3p
 Br                          3-21g                  10       23   5s4p1d
 bqH                         3-21g                   2        2   2s
 bqF                         3-21g                   5        9   3s2p
 bqCl                        3-21g                   7       13   4s3p
 bqBr                        3-21g                  10       23   5s4p1d


  Caching 1-el integrals 

            General Information
            -------------------
          SCF calculation type: DFT
          Wavefunction type:  closed shell.
          No. of atoms     :     2
          No. of electrons :    10
           Alpha electrons :     5
            Beta electrons :     5
          Charge           :     0
          Spin multiplicity:     1
          Use of symmetry is: off; symmetry adaption is: off
          Maximum number of iterations: 100
          This is a Direct SCF calculation.
          AO basis - number of functions:    11
                     number of shells:     7
          Convergence on energy requested:  1.00D-08
          Convergence on density requested:  1.00D-05
          Convergence on gradient requested:  5.00D-04

              XC Information
              --------------
                        Slater Exchange Functional  1.000 local    
                      VWN V Correlation Functional  1.000 local    

             Grid Information
             ----------------
          Grid used for XC integration:  fine      
          Radial quadrature: Mura-Knowles        
          Angular quadrature: Lebedev. 
          Tag              B.-S. Rad. Rad. Pts. Rad. Cut. Ang. Pts.
          ---              ---------- --------- --------- ---------
          F                   0.50       70           5.0       590
          H                   0.35       60           4.0       590
          Grid pruning is: on 
          Number of quadrature shells:   130
          Spatial weights used:  Erf1

          Convergence Information
          -----------------------
          Convergence aids based upon iterative change in 
          total energy or number of iterations. 
          Levelshifting, if invoked, occurs when the 
          HOMO/LUMO gap drops below (HL_TOL):  1.00D-02
          DIIS, if invoked, will attempt to extrapolate 
          using up to (NFOCK): 10 stored Fock matrices.

                    Damping( 0%)  Levelshifting(0.5)       DIIS
                  --------------- ------------------- ---------------
          dE  on:    start            ASAP                start   
          dE off:    2 iters        100 iters           100 iters 


      Screening Tolerance Information
      -------------------------------
          Density screening/tol_rho:  1.00D-11
          AO Gaussian exp screening on grid/accAOfunc:  18
          CD Gaussian exp screening on grid/accCDfunc:  20
          XC Gaussian exp screening on grid/accXCfunc:  20
          Schwarz screening/accCoul:  1.00D-09


      Superposition of Atomic Density Guess
      -------------------------------------

 Sum of atomic energies:         -99.35355516

      Non-variational initial energy
      ------------------------------

 Total energy =     -99.207822
 1-e energy   =    -148.120384
 2-e energy   =      44.367803
 HOMO         =      -0.581664
 LUMO         =       0.114496

   Time after variat. SCF:     11.1
   Time prior to 1st pass:     11.1

 Grid_pts file          = ./FH-ClH-BrH-bsses.gridpts.0
 Record size in doubles =  12289        No. of grid_pts per rec  =   3070
 Max. records in memory =     29        Max. recs in file   = *********


           Memory utilization after 1st SCF pass: 
           Heap Space remaining (MW):        6.46             6458000
          Stack Space remaining (MW):       13.11            13107012

   convergence    iter        energy       DeltaE   RMS-Dens  Diis-err    time
 ---------------- ----- ----------------- --------- --------- ---------  ------
 d= 0,ls=0.0,diis     1    -99.1615882741 -1.04D+02  7.73D-02  5.30D-01    11.2
 d= 0,ls=0.0,diis     2    -99.1259381781  3.57D-02  4.51D-02  9.27D-01    11.3
 d= 0,ls=0.0,diis     3    -99.2069636962 -8.10D-02  3.58D-03  2.53D-02    11.3
 d= 0,ls=0.0,diis     4    -99.2084627455 -1.50D-03  1.80D-03  7.11D-04    11.4
 d= 0,ls=0.0,diis     5    -99.2085708171 -1.08D-04  1.93D-05  7.79D-07    11.5
 d= 0,ls=0.0,diis     6    -99.2085708707 -5.36D-08  3.53D-06  7.30D-09    11.5
 d= 0,ls=0.0,diis     7    -99.2085708713 -5.87D-10  2.79D-07  6.35D-11    11.6


         Total DFT energy =      -99.208570871337
      One electron energy =     -149.051872209650
           Coulomb energy =       55.449347403355
    Exchange-Corr. energy =      -10.150804854680
 Nuclear repulsion energy =        4.544758789639

 Numeric. integr. density =        9.999999892690

     Total iterative time =      0.5s



                       DFT Final Molecular Orbital Analysis
                       ------------------------------------

 Vector    1  Occ=2.000000D+00  E=-2.387962D+01
              MO Center= -1.9D+00,  9.8D-01, -1.3D-14, r^2= 1.2D-02
   Bfn.  Coefficient  Atom+Function         Bfn.  Coefficient  Atom+Function  
  ----- ------------  ---------------      ----- ------------  ---------------
     1      0.979961  1 F  s                  2      0.104060  1 F  s          
     6     -0.032680  1 F  s          

 Vector    2  Occ=2.000000D+00  E=-9.916644D-01
              MO Center= -1.8D+00,  8.2D-01, -1.2D-11, r^2= 3.9D-01
   Bfn.  Coefficient  Atom+Function         Bfn.  Coefficient  Atom+Function  
  ----- ------------  ---------------      ----- ------------  ---------------
     6      0.761091  1 F  s                  1     -0.244839  1 F  s          
     2      0.227801  1 F  s                 10      0.100853  2 H  s          
     4     -0.083800  1 F  py                 8     -0.082229  1 F  py         
    11      0.052027  2 H  s                  3      0.033760  1 F  px         
     7      0.033127  1 F  px         

 Vector    3  Occ=2.000000D+00  E=-3.982267D-01
              MO Center= -1.8D+00,  8.4D-01, -1.8D-11, r^2= 6.9D-01
   Bfn.  Coefficient  Atom+Function         Bfn.  Coefficient  Atom+Function  
  ----- ------------  ---------------      ----- ------------  ---------------
     4      0.400633  1 F  py                 8      0.399477  1 F  py         
     6      0.362021  1 F  s                 10     -0.247239  2 H  s          
    11     -0.247709  2 H  s                  3     -0.161402  1 F  px         
     7     -0.160937  1 F  px                 1     -0.084474  1 F  s          
     2      0.070198  1 F  s          

 Vector    4  Occ=2.000000D+00  E=-2.487251D-01
              MO Center= -1.9D+00,  9.8D-01, -2.5D-12, r^2= 4.0D-01
   Bfn.  Coefficient  Atom+Function         Bfn.  Coefficient  Atom+Function  
  ----- ------------  ---------------      ----- ------------  ---------------
     7      0.524619  1 F  px                 3      0.469890  1 F  px         
     9      0.231616  1 F  pz                 8      0.211352  1 F  py         
     5      0.207454  1 F  pz                 4      0.189304  1 F  py         

 Vector    5  Occ=2.000000D+00  E=-2.487251D-01
              MO Center= -1.9D+00,  9.8D-01,  2.6D-11, r^2= 4.0D-01
   Bfn.  Coefficient  Atom+Function         Bfn.  Coefficient  Atom+Function  
  ----- ------------  ---------------      ----- ------------  ---------------
     9      0.565592  1 F  pz                 5      0.506589  1 F  pz         
     7     -0.214837  1 F  px                 3     -0.192425  1 F  px         
     8     -0.086551  1 F  py                 4     -0.077522  1 F  py         

 Vector    6  Occ=0.000000D+00  E= 2.146684D-02
              MO Center= -1.5D+00,  9.4D-02,  6.9D-12, r^2= 1.2D+00
   Bfn.  Coefficient  Atom+Function         Bfn.  Coefficient  Atom+Function  
  ----- ------------  ---------------      ----- ------------  ---------------
    11      1.002344  2 H  s                  6     -0.513184  1 F  s          
     8      0.452465  1 F  py                 4      0.318236  1 F  py         
    10      0.214190  2 H  s                  7     -0.182284  1 F  px         
     3     -0.128207  1 F  px                 1      0.070699  1 F  s          
     2     -0.048602  1 F  s          

 Vector    7  Occ=0.000000D+00  E= 8.308825D-01
              MO Center= -1.5D+00,  3.3D-03,  5.1D-12, r^2= 9.3D-01
   Bfn.  Coefficient  Atom+Function         Bfn.  Coefficient  Atom+Function  
  ----- ------------  ---------------      ----- ------------  ---------------
    10      1.266586  2 H  s                 11     -1.073813  2 H  s          
     4      0.240805  1 F  py                 6      0.192838  1 F  s          
     3     -0.097013  1 F  px                 8      0.055641  1 F  py         
     2     -0.033577  1 F  s          

 Vector    8  Occ=0.000000D+00  E= 1.764219D+00
              MO Center= -1.9D+00,  9.8D-01,  2.7D-11, r^2= 5.7D-01
   Bfn.  Coefficient  Atom+Function         Bfn.  Coefficient  Atom+Function  
  ----- ------------  ---------------      ----- ------------  ---------------
     5      0.941436  1 F  pz                 9     -0.906479  1 F  pz         
     3     -0.330859  1 F  px                 7      0.318574  1 F  px         
     4     -0.133293  1 F  py                 8      0.128343  1 F  py         

 Vector    9  Occ=0.000000D+00  E= 1.764219D+00
              MO Center= -1.9D+00,  9.8D-01, -1.9D-12, r^2= 5.7D-01
   Bfn.  Coefficient  Atom+Function         Bfn.  Coefficient  Atom+Function  
  ----- ------------  ---------------      ----- ------------  ---------------
     3      0.873235  1 F  px                 7     -0.840810  1 F  px         
     5      0.356700  1 F  pz                 4      0.351799  1 F  py         
     9     -0.343455  1 F  pz                 8     -0.338736  1 F  py         

 Vector   10  Occ=0.000000D+00  E= 1.936562D+00
              MO Center= -1.9D+00,  1.1D+00, -2.7D-11, r^2= 6.0D-01
   Bfn.  Coefficient  Atom+Function         Bfn.  Coefficient  Atom+Function  
  ----- ------------  ---------------      ----- ------------  ---------------
     8      1.078685  1 F  py                 4     -0.909703  1 F  py         
    10      0.455692  2 H  s                  7     -0.434568  1 F  px         
     3      0.366491  1 F  px                 2     -0.148199  1 F  s          
    11      0.052160  2 H  s                  1      0.036812  1 F  s          

 Vector   11  Occ=0.000000D+00  E= 3.111332D+00
              MO Center= -1.8D+00,  8.3D-01, -2.9D-12, r^2= 5.4D-01
   Bfn.  Coefficient  Atom+Function         Bfn.  Coefficient  Atom+Function  
  ----- ------------  ---------------      ----- ------------  ---------------
     2      1.507732  1 F  s                  6     -1.456691  1 F  s          
    11      0.323376  2 H  s                  8      0.299951  1 F  py         
    10      0.188642  2 H  s                  4     -0.133837  1 F  py         
     1     -0.131591  1 F  s                  7     -0.120841  1 F  px         
     3      0.053919  1 F  px         


 center of mass
 --------------
 x =  -3.46909269 y =   1.75046939 z =   0.00000000

 moments of inertia (a.u.)
 ------------------
           3.229096131660           1.300901161820           0.000000000000
           1.300901161820           0.524092118606           0.000000000000
           0.000000000000           0.000000000000           3.753188250266

     Multipole analysis of the density
     ---------------------------------

     L   x y z        total         alpha         beta         nuclear
     -   - - -        -----         -----         ----         -------
     0   0 0 0     -0.000000     -5.000000     -5.000000     10.000000

     1   1 0 0      0.297637     17.310670     17.310670    -34.323703
     1   0 1 0     -0.738793     -8.665982     -8.665982     16.593171
     1   0 0 1      0.000000      0.000000      0.000000      0.000000

     2   2 0 0     -5.744263    -62.024385    -62.024385    118.304507
     2   1 1 0      2.490944     30.334099     30.334099    -58.177255
     2   1 0 1     -0.000000     -0.000000     -0.000000      0.000000
     2   0 2 0     -5.032626    -17.801275    -17.801275     30.569925
     2   0 1 1      0.000000      0.000000      0.000000      0.000000
     2   0 0 2     -3.918108     -1.959054     -1.959054      0.000000


            General Information
            -------------------
          SCF calculation type: DFT
          Wavefunction type:  closed shell.
          No. of atoms     :     2
          No. of electrons :    10
           Alpha electrons :     5
            Beta electrons :     5
          Charge           :     0
          Spin multiplicity:     1
          Use of symmetry is: off; symmetry adaption is: off
          Maximum number of iterations: 100
          This is a Direct SCF calculation.
          AO basis - number of functions:    11
                     number of shells:     7
          Convergence on energy requested:  1.00D-08
          Convergence on density requested:  1.00D-05
          Convergence on gradient requested:  5.00D-04

              XC Information
              --------------
                        Slater Exchange Functional  1.000 local    
                      VWN V Correlation Functional  1.000 local    

             Grid Information
             ----------------
          Grid used for XC integration:  fine      
          Radial quadrature: Mura-Knowles        
          Angular quadrature: Lebedev. 
          Tag              B.-S. Rad. Rad. Pts. Rad. Cut. Ang. Pts.
          ---              ---------- --------- --------- ---------
          F                   0.50       70           5.0       590
          H                   0.35       60           4.0       590
          Grid pruning is: on 
          Number of quadrature shells:   130
          Spatial weights used:  Erf1

          Convergence Information
          -----------------------
          Convergence aids based upon iterative change in 
          total energy or number of iterations. 
          Levelshifting, if invoked, occurs when the 
          HOMO/LUMO gap drops below (HL_TOL):  1.00D-02
          DIIS, if invoked, will attempt to extrapolate 
          using up to (NFOCK): 10 stored Fock matrices.

                    Damping( 0%)  Levelshifting(0.5)       DIIS
                  --------------- ------------------- ---------------
          dE  on:    start            ASAP                start   
          dE off:    2 iters        100 iters           100 iters 


      Screening Tolerance Information
      -------------------------------
          Density screening/tol_rho:  1.00D-11
          AO Gaussian exp screening on grid/accAOfunc:  18
          CD Gaussian exp screening on grid/accCDfunc:  20
          XC Gaussian exp screening on grid/accXCfunc:  20
          Schwarz screening/accCoul:  1.00D-09



                            NWChem DFT Gradient Module
                            --------------------------


                                 FH-ClH-BrH-bsses



  charge          =   0.00
  wavefunction    = closed shell



                         DFT ENERGY GRADIENTS

    atom               coordinates                        gradient
                 x          y          z           x          y          z
   1 F      -3.506371   1.843001   0.000000   -0.018437   0.045764  -0.000000
   2 H      -2.766365   0.006159   0.000000    0.018437  -0.045764   0.000000

                 ----------------------------------------
                 |  Time  |  1-e(secs)   |  2-e(secs)   |
                 ----------------------------------------
                 |  CPU   |       0.00   |       0.01   |
                 ----------------------------------------
                 |  WALL  |       0.00   |       0.01   |
                 ----------------------------------------

                                 NWChem DFT Module
                                 -----------------


                                 FH-ClH-BrH-bsses




 Summary of "ao basis" -> "ao basis" (cartesian)
 ------------------------------------------------------------------------------
       Tag                 Description            Shells   Functions and Types
 ---------------- ------------------------------  ------  ---------------------
 H                           3-21g                   2        2   2s
[...]
   10      481.045 ||      -0.000               0.000             0.854
   11      614.103 ||       0.000              -0.000             0.099
   12      713.383 ||       0.657              -0.380             0.000
   13      769.027 ||      -0.000               0.000             0.112
   14      825.674 ||      -0.015              -0.073            -0.000
   15     1163.703 ||       0.006               0.109             0.000
   16     1399.895 ||       0.130              -0.106            -0.000
   17     1694.377 ||      -0.056              -0.144            -0.000
   18     2647.261 ||      -0.056              -0.026            -0.000
 ----------------------------------------------------------------------------



  
  
 ----------------------------------------------------------------------------
 Normal Eigenvalue ||                 Infra Red Intensities
  Mode   [cm**-1]  || [atomic units] [(debye/angs)**2] [(KM/mol)] [arbitrary]
 ------ ---------- || -------------- ----------------- ---------- -----------
    1       -3.271 ||    0.000046           0.001         0.045       0.134
    2       -1.897 ||    0.000001           0.000         0.001       0.003
    3       -1.285 ||    0.000076           0.002         0.074       0.221
    4       -0.887 ||    0.000107           0.002         0.104       0.312
    5        1.361 ||    0.000347           0.008         0.339       1.016
    6        6.149 ||    0.000023           0.001         0.022       0.067
    7      162.884 ||    0.000010           0.000         0.009       0.028
    8      227.331 ||    0.000051           0.001         0.049       0.148
    9      353.649 ||    0.000165           0.004         0.161       0.482
   10      481.045 ||    0.031628           0.730        30.833      92.505
   11      614.103 ||    0.000423           0.010         0.412       1.237
   12      713.383 ||    0.024950           0.576        24.322      72.971
   13      769.027 ||    0.000542           0.012         0.528       1.584
   14      825.674 ||    0.000239           0.006         0.233       0.700
   15     1163.703 ||    0.000521           0.012         0.508       1.524
   16     1399.895 ||    0.001217           0.028         1.187       3.560
   17     1694.377 ||    0.001033           0.024         1.007       3.020
   18     2647.261 ||    0.000166           0.004         0.162       0.487
 ----------------------------------------------------------------------------





        Vibrational analysis via the FX method 
  --- with translations and rotations projected out ---
  --- via the Eckart algorithm                      ---
 Projected Nuclear Hessian trans-rot subspace norm:1.8159D-34
                         (should be close to zero!) 

          --------------------------------------------------------
          MASS-WEIGHTED PROJECTED HESSIAN (Hartree/Bohr/Bohr/Kamu)
          --------------------------------------------------------


               1            2            3            4            5            6            7            8            9           10
   ----- ----- ----- ----- -----
    1    6.78315D+00
    2   -4.07279D+00  1.30598D+01
    3    2.27053D-06 -1.57639D-06  9.10484D-01
    4   -1.30250D+01  1.50385D+01 -2.56352D-06  5.32930D+01
    5    1.87987D+01 -4.76123D+01  2.40239D-06 -5.59563D+01  2.27587D+02
    6   -7.29694D-06  4.40855D-06 -2.89522D+00  1.37614D-05 -1.38623D-05  1.48951D+01
    7   -1.44930D+00 -1.45564D+00 -1.58478D-07 -1.76848D+00  2.09718D+00  4.72987D-07  3.23304D+00
    8   -5.36193D-01  1.28402D-01  1.95872D-07  6.24966D-01 -8.22032D-01 -4.70508D-07  1.13941D+00  1.37611D+00
    9    7.72830D-08  6.20821D-08  2.13163D-01 -4.80393D-07  5.51705D-07 -7.92708D-02 -4.06371D-08  1.48304D-07  2.40251D-01
   10   -6.12014D+00  4.68957D+00 -1.40492D-06  2.20136D+01 -2.53337D+01  7.23531D-06 -1.08888D+01 -3.59042D+00 -3.21517D-08  7.94525D+01
   11   -2.98442D-01 -2.67981D+00  2.06977D-06 -4.50261D+00 -2.54340D+01 -1.09895D-05 -9.58934D-01 -3.26348D+00  1.70304D-07  9.78908D+00
   12   -6.29130D-06  4.69211D-06 -3.04254D+00  2.82381D-06 -1.98593D-06  2.56834D+00  5.68992D-07 -1.07725D-06 -1.80258D+00  1.22222D-06
   13   -2.02557D-01  8.32245D-01 -3.72858D-07  6.57548D-02 -1.32841D+00 -1.87941D-08  1.48148D-01 -1.69062D-01  8.96804D-08 -1.35562D+00
   14    4.13640D-01 -3.66312D-01  1.82844D-08 -2.08330D-03 -6.35115D-01  1.55134D-06 -7.96356D-03 -5.00393D-01 -1.74047D-07 -4.10985D-01
   15    3.48381D-09  1.51103D-07  1.02799D-01 -9.58158D-07  1.08378D-06 -7.28830D-01 -1.58668D-08  6.13796D-08  5.55089D-02 -3.50981D-07
   16    3.50392D-02 -8.81631D-01 -1.63593D-06 -8.92359D+00 -8.53277D-01  8.06615D-06 -1.41346D+00  8.72925D-02 -3.82219D-07  1.31773D+00
   17   -1.34210D+00 -3.90483D+00  1.05557D-06 -8.49747D+00  1.50658D+01 -5.33195D-06 -1.45895D+00 -1.21962D-01 -3.15268D-07  1.99926D+01
   18    3.24388D-06 -3.96757D-06 -1.86381D-01  5.90696D-06 -7.48302D-06  2.06392D+00  2.67553D-08 -7.22826D-07 -9.53134D-01  9.57126D-07


              11           12           13           14           15           16           17           18
   ----- ----- ----- ----- -----
   11    5.17364D+01
   12   -1.81214D-06  1.99660D+01
   13   -6.88718D-01  1.93385D-06  4.77405D-01
   14   -2.07547D-01 -1.13672D-06  2.96142D-01  1.55242D+00
   15    6.31689D-07 -3.96902D-02  2.18820D-07 -3.12928D-07  8.26915D-02
   16    7.79076D+00  2.69710D-06 -2.95455D+00 -3.97305D+00 -5.61080D-07  4.20894D+01
   17    6.40424D+00 -1.06203D-07 -3.23753D+00 -8.44337D+00  5.34958D-08  3.17555D+01  7.13891D+01
   18   -2.81310D-06  1.64708D+00 -2.77300D-06  3.31779D-06 -7.41135D-01  3.58730D-06  2.23580D-06  9.31228D+00

 center of mass
 --------------
 x =   0.02500797 y =  -0.16397311 z =   0.00000000

 moments of inertia (a.u.)
 ------------------
        1110.135673338559           0.011203269378           0.000000000000
           0.011203269378         318.528757876363           0.000000000000
           0.000000000000           0.000000000000        1428.664431214923

 Rotational Constants
 --------------------
 A=   0.188994 cm-1  (  0.271915 K)
 B=   0.054228 cm-1  (  0.078020 K)
 C=   0.042137 cm-1  (  0.060625 K)


 Temperature                      =   298.15K
 frequency scaling parameter      =   1.0000

 Zero-Point correction to Energy  =   15.793 kcal/mol  (  0.025167 au)
 Thermal correction to Energy     =   18.939 kcal/mol  (  0.030182 au)
 Thermal correction to Enthalpy   =   19.531 kcal/mol  (  0.031125 au)

 Total Entropy                    =   75.818 cal/mol-K
   - Translational                =   40.636 cal/mol-K (mol. weight = 136.9072)
   - Rotational                   =   27.703 cal/mol-K (symmetry #  =        1)
   - Vibrational                  =    7.480 cal/mol-K

 Cv (constant volume heat capacity) =   15.994 cal/mol-K
   - Translational                  =    2.979 cal/mol-K
   - Rotational                     =    2.979 cal/mol-K
   - Vibrational                    =   10.035 cal/mol-K



          -------------------------------------------------
          NORMAL MODE EIGENVECTORS IN CARTESIAN COORDINATES
          -------------------------------------------------
             (Projected Frequencies expressed in cm-1)

                    1           2           3           4           5           6
 
 P.Frequency       -0.00       -0.00       -0.00       -0.00       -0.00       -0.00
 
           1    -0.09229    -0.03743    -0.01431     0.00000     0.00000     0.00000
           2    -0.08800     0.05743     0.07065     0.00000    -0.00000     0.00000
           3     0.00000    -0.00000    -0.00000    -0.00186    -0.00110    -0.22378
           4    -0.05377    -0.06619    -0.00721     0.00000    -0.00000     0.00000
           5    -0.07248     0.04584     0.07351     0.00000     0.00000     0.00000
           6    -0.00000     0.00000     0.00000    -0.02328     0.03951    -0.17230
           7    -0.13634    -0.00454    -0.02243    -0.00000     0.00000    -0.00000
           8     0.01417    -0.01885     0.08947     0.00000    -0.00000    -0.00000
           9     0.00000     0.00000     0.00000     0.16774    -0.00117    -0.00082
          10    -0.12191    -0.01532    -0.01977     0.00000    -0.00000     0.00000
          11    -0.04307     0.02388     0.07893    -0.00000    -0.00000    -0.00000
          12    -0.00000     0.00000     0.00000     0.08342    -0.01034    -0.12972
          13    -0.00145    -0.10525     0.00242    -0.00000    -0.00000    -0.00000
          14    -0.00794    -0.00235     0.08540    -0.00000    -0.00000    -0.00000
          15     0.00000     0.00000     0.00000     0.00023     0.11148    -0.00024
          16    -0.05777    -0.06320    -0.00795     0.00000     0.00000     0.00000
          17     0.01895    -0.02242     0.09035    -0.00000     0.00000    -0.00000
          18    -0.00000    -0.00000    -0.00000     0.09154     0.07127     0.04102

                    7           8           9          10          11          12
 
 P.Frequency      162.87      227.31      353.67      480.99      614.08      713.36
 
           1     0.00622    -0.11480    -0.16074    -0.00000     0.00000     0.00339
           2     0.05660     0.15270    -0.07959     0.00000     0.00000     0.00007
           3     0.00000     0.00000     0.00000    -0.02188     0.01827     0.00000
           4    -0.04056    -0.13625    -0.19410    -0.00000     0.00000     0.11592
           5     0.06377     0.15902    -0.05711     0.00000     0.00000     0.08331
           6     0.00000    -0.00000    -0.00000     0.25349    -0.84861     0.00000
           7    -0.00339    -0.01789     0.08928     0.00000    -0.00000    -0.02017
           8     0.12397    -0.05811     0.03268     0.00000     0.00000    -0.00340
           9    -0.00000    -0.00000    -0.00000     0.01480    -0.00690     0.00000
          10     0.06149    -0.01742     0.11767     0.00000     0.00000     0.13963
          11     0.08706     0.08777    -0.07110     0.00000    -0.00000    -0.05340
          12    -0.00000    -0.00000    -0.00000     0.06999     0.47042    -0.00000
          13    -0.00020     0.03698    -0.00048     0.00000    -0.00000    -0.00531
          14    -0.06834    -0.01359     0.00721    -0.00000    -0.00000     0.00784
          15    -0.00000    -0.00000    -0.00000     0.00663     0.00597    -0.00000
          16    -0.00473     0.00579     0.04711    -0.00000     0.00000     0.80108
          17    -0.09989    -0.03143    -0.07725    -0.00000    -0.00000    -0.53474
          18     0.00000     0.00000     0.00000    -0.95025    -0.20009    -0.00000

                   13          14          15          16          17          18
 
 P.Frequency      769.03      825.78     1163.70     1399.92     1694.45     2647.25
 
           1    -0.00000    -0.04883     0.02012     0.01483    -0.00625     0.01998
           2     0.00000    -0.01999    -0.03602     0.00025    -0.00888    -0.04442
           3    -0.04173    -0.00000     0.00000     0.00000    -0.00000     0.00000
           4    -0.00000     0.76482    -0.27956    -0.41579    -0.02532    -0.27743
           5     0.00000     0.21491     0.03990    -0.24920     0.05012     0.90969
           6     0.41958     0.00000    -0.00000    -0.00000    -0.00000    -0.00000
           7    -0.00000     0.01841    -0.00725     0.01524    -0.01194     0.00280
           8    -0.00000     0.00233    -0.01310     0.00375    -0.00435    -0.00003
           9    -0.01382    -0.00000     0.00000    -0.00000    -0.00000     0.00000
          10     0.00000    -0.32314     0.24168    -0.67818     0.53830    -0.16371
          11    -0.00000     0.42044     0.81087     0.26713     0.20898    -0.10526
          12     0.86148     0.00000    -0.00000    -0.00000     0.00000    -0.00000
          13    -0.00000    -0.00257     0.00130    -0.00138    -0.00457    -0.00058
          14     0.00000    -0.00558     0.00783    -0.00489    -0.00813    -0.00043
          15    -0.00252    -0.00000     0.00000     0.00000    -0.00000     0.00000
          16     0.00000     0.04340    -0.19286     0.39485     0.38167     0.01348
          17    -0.00000     0.10298    -0.33839     0.23520     0.70374     0.06813
          18     0.18463     0.00000    -0.00000    -0.00000     0.00000    -0.00000



 ----------------------------------------------------------------------------
 Normal Eigenvalue ||    Projected Derivative Dipole Moments (debye/angs)
  Mode   [cm**-1]  ||      [d/dqX]             [d/dqY]           [d/dqZ]
 ------ ---------- || ------------------ ------------------ -----------------
    1       -0.000 ||      -0.041               0.030             0.000
    2       -0.000 ||      -0.030               0.022            -0.000
    3       -0.000 ||      -0.007               0.006            -0.000
    4       -0.000 ||      -0.000               0.000             0.079
    5       -0.000 ||      -0.000              -0.000            -0.025
    6       -0.000 ||       0.000               0.000             0.055
    7      162.874 ||       0.011               0.010             0.000
    8      227.308 ||      -0.028               0.020             0.000
    9      353.673 ||       0.061              -0.005             0.000
   10      480.992 ||       0.000              -0.000             0.854
   11      614.078 ||       0.000              -0.000            -0.099
   12      713.359 ||       0.657              -0.380            -0.000
   13      769.033 ||       0.000              -0.000             0.112
   14      825.779 ||      -0.015              -0.073             0.000
   15     1163.698 ||       0.006               0.109            -0.000
   16     1399.916 ||       0.130              -0.106             0.000
   17     1694.455 ||      -0.056              -0.144             0.000
   18     2647.252 ||      -0.056              -0.026            -0.000
 ----------------------------------------------------------------------------



  
  
 ----------------------------------------------------------------------------
 Normal Eigenvalue ||           Projected Infra Red Intensities
  Mode   [cm**-1]  || [atomic units] [(debye/angs)**2] [(KM/mol)] [arbitrary]
 ------ ---------- || -------------- ----------------- ---------- -----------
    1       -0.000 ||    0.000110           0.003         0.108       0.323
    2       -0.000 ||    0.000061           0.001         0.060       0.180
    3       -0.000 ||    0.000004           0.000         0.004       0.011
    4       -0.000 ||    0.000268           0.006         0.261       0.784
    5       -0.000 ||    0.000027           0.001         0.026       0.078
    6       -0.000 ||    0.000130           0.003         0.127       0.380
    7      162.874 ||    0.000010           0.000         0.009       0.028
    8      227.308 ||    0.000051           0.001         0.049       0.148
    9      353.673 ||    0.000165           0.004         0.161       0.482
   10      480.992 ||    0.031628           0.730        30.832      92.503
   11      614.078 ||    0.000424           0.010         0.413       1.239
   12      713.359 ||    0.024950           0.576        24.322      72.973
   13      769.033 ||    0.000541           0.012         0.527       1.582
   14      825.779 ||    0.000239           0.006         0.233       0.699
   15     1163.698 ||    0.000521           0.012         0.508       1.523
   16     1399.916 ||    0.001217           0.028         1.187       3.560
   17     1694.455 ||    0.001033           0.024         1.007       3.020
   18     2647.252 ||    0.000166           0.004         0.162       0.487
 ----------------------------------------------------------------------------



 vib:animation  F

 Task  times  cpu:      109.2s     wall:      241.8s
 Summary of allocated global arrays
-----------------------------------
  No active global arrays



                         GA Statistics for process    0
                         ------------------------------

       create   destroy   get      put      acc     scatter   gather  read&inc
calls: 8353     8353     5.49e+06 2.55e+05 3.08e+06 1976        0     3.79e+04 
number of processes/call 1.18e+12 8.40e+12 2.27e+12 0.00e+00 0.00e+00
bytes total:             1.56e+09 1.51e+08 1.83e+09 4.75e+03 0.00e+00 3.03e+05
bytes remote:            0.00e+00 0.00e+00 0.00e+00 0.00e+00 0.00e+00 0.00e+00
Max memory consumed for GA by this process: 4202856 bytes
MA_summarize_allocated_blocks: starting scan ...
heap block 'gridpts', handle 117, address 0x55d09f853258:
	type of elements:		double precision
	number of elements:		6291456
	address of client space:	0x55d09f8532c0
	index for client space:		12675451
	total number of bytes:		50331760
MA_summarize_allocated_blocks: scan completed: 1 heap block, 0 stack blocks
MA usage statistics:

	allocation statistics:
					      heap	     stack
					      ----	     -----
	current number of blocks	         1	         0
	maximum number of blocks	        26	        55
	current total bytes		  50331760	         0
	maximum total bytes		  68054168	  82924104
	maximum total K-bytes		     68055	     82925
	maximum total M-bytes		        69	        83


                                NWChem Input Module
                                -------------------





                                     CITATION
                                     --------
                Please cite the following reference when publishing
                           results obtained with NWChem:

                 M. Valiev, E.J. Bylaska, N. Govind, K. Kowalski,
              T.P. Straatsma, H.J.J. van Dam, D. Wang, J. Nieplocha,
                        E. Apra, T.L. Windus, W.A. de Jong
                 "NWChem: a comprehensive and scalable open-source
                  solution for large scale molecular simulations"
                      Comput. Phys. Commun. 181, 1477 (2010)
                           doi:10.1016/j.cpc.2010.04.018

                                      AUTHORS
                                      -------
     E. Apra, E. J. Bylaska, N. Govind, K. Kowalski, M. Valiev, W. A. de Jong,
      T. P. Straatsma, H. J. J. van Dam, D. Wang, T. L. Windus, N. P. Bauman,
       A. Panyala, J. Hammond, J. Autschbach, K. Bhaskaran-Nair, J. Brabec,
    K. Lopata, S. A. Fischer, S. Krishnamoorthy, M. Jacquelin, W. Ma, M. Klemm,
       O. Villa, Y. Chen, V. Anisimov, F. Aquino, S. Hirata, M. T. Hackler,
           Eric Hermes, L. Jensen, J. E. Moore, J. C. Becca, V. Konjkov,
            D. Mejia-Rodriguez, T. Risthaus, M. Malagoli, A. Marenich,
   A. Otero-de-la-Roza, J. Mullin, P. Nichols, R. Peverati, J. Pittner, Y. Zhao,
        P.-D. Fan, A. Fonari, M. J. Williamson, R. J. Harrison, J. R. Rehr,
      M. Dupuis, D. Silverstein, D. M. A. Smith, J. Nieplocha, V. Tipparaju,
      M. Krishnan, B. E. Van Kuiken, A. Vazquez-Mayagoitia, M. Swart, Q. Wu,
   T. Van Voorhis, A. A. Auer, M. Nooijen, L. D. Crosby, E. Brown, G. Cisneros,
     G. I. Fann, H. Fruchtl, J. Garza, K. Hirao, R. A. Kendall, J. A. Nichols,
       K. Tsemekhman, K. Wolinski, J. Anchell, D. E. Bernholdt, P. Borowski,
       T. Clark, D. Clerc, H. Dachsel, M. J. O. Deegan, K. Dyall, D. Elwood,
      E. Glendening, M. Gutowski, A. C. Hess, J. Jaffe, B. G. Johnson, J. Ju,
        R. Kobayashi, R. Kutteh, Z. Lin, R. Littlefield, X. Long, B. Meng,
      T. Nakajima, S. Niu, L. Pollack, M. Rosing, K. Glaesemann, G. Sandrone,
      M. Stave, H. Taylor, G. Thomas, J. H. van Lenthe, A. T. Wong, Z. Zhang.
       Aggregate GFloating-point ops:   238.3    
        Aggregate GFLOPS (Real_time):  0.6545    
        Aggregate GFLOPS (Proc_time):   1.442    
                    Average   GFLOPS:  0.6545    
                    Max       GFLOPS:  0.6545    
                    Min       GFLOPS:  0.6545    

 Total times  cpu:      165.3s     wall:      364.1s
