 argument  1 = metagga_li4h4_1_m11_0.nw
All connections between all procs tested: SUCCESS
 


============================== echo of input deck ==============================
echo
start metagga_dat
geometry noautosym
   li        -0.91515825    -1.07210472    -0.90562941
   h         -0.91591765    -0.90670004     0.88759515
   h         -0.29962839     1.27515914    -0.28845749
   h          0.87878734    -0.89504261    -0.93360279
   li         1.22182214     0.75373418    -1.22261459
   li         0.87097426    -1.13269424     0.85448224
   li        -1.20238464     0.74087268     1.24480228
   h          0.36150521     1.23677562     0.36342460
end
charge +1

basis
  * library "6-311++G(2d,2p)"
end

dft
  direct
  odft
  mult 2
  xc xm11
  maxiter 100
end

driver
  clear
  maxiter 100
end

task dft optimize
task dft frequencies numerical
================================================================================


                                         
                                         
 
 
              Northwest Computational Chemistry Package (NWChem) 6.5
              ------------------------------------------------------
 
 
                    Environmental Molecular Sciences Laboratory
                       Pacific Northwest National Laboratory
                                Richland, WA 99352
 
                              Copyright (c) 1994-2013
                       Pacific Northwest National Laboratory
                            Battelle Memorial Institute
 
             NWChem is an open-source computational chemistry package
                        distributed under the terms of the
                      Educational Community License (ECL) 2.0
             A copy of the license is included with this distribution
                              in the LICENSE.TXT file
 
                                  ACKNOWLEDGMENT
                                  --------------

            This software and its documentation were developed at the
            EMSL at Pacific Northwest National Laboratory, a multiprogram
            national laboratory, operated for the U.S. Department of Energy
            by Battelle under Contract Number DE-AC05-76RL01830. Support
            for this work was provided by the Department of Energy Office
            of Biological and Environmental Research, Office of Basic
            Energy Sciences, and the Office of Advanced Scientific Computing.


           Job information
           ---------------

    hostname        = arcen
    program         = /home/d3y133/nwchem-dev/nwchem-dev-2015-01-16/bin/LINUX64/nwchem
    date            = Tue Feb  3 09:13:38 2015

    compiled        = Mon_Feb_02_10:11:44_2015
    source          = /home/d3y133/nwchem-dev/nwchem-dev-2015-01-16
    nwchem branch   = Development
    nwchem revision = 26704
    ga revision     = 10514
    input           = metagga_li4h4_1_m11_0.nw
    prefix          = metagga_dat.
    data base       = /home/d3y133/nwchem-dev/nwchem-trunk-nonwad/QA/scratchdir/metagga_dat.db
    status          = startup
    nproc           =        4
    time left       =     -1s



           Memory information
           ------------------

    heap     =   13107196 doubles =    100.0 Mbytes
    stack    =   13107201 doubles =    100.0 Mbytes
    global   =   26214400 doubles =    200.0 Mbytes (distinct from heap & stack)
    total    =   52428797 doubles =    400.0 Mbytes
    verify   = yes
    hardfail = no 


           Directory information
           ---------------------
 
  0 permanent = /home/d3y133/nwchem-dev/nwchem-trunk-nonwad/QA/scratchdir
  0 scratch   = /home/d3y133/nwchem-dev/nwchem-trunk-nonwad/QA/scratchdir
 
 
 
 
                                NWChem Input Module
                                -------------------
 
 

 Scaling coordinates for geometry "geometry" by  1.889725989
 (inverse scale =  0.529177249)


          ------
          auto-z
          ------
  autoz: excessive number of variables                    202
                    18

 AUTOZ failed to generate good internal coordinates.
 Cartesian coordinates will be used in optimizations.

 
 
                             Geometry "geometry" -> ""
                             -------------------------
 
 Output coordinates in angstroms (scale by  1.889725989 to convert to a.u.)
 
  No.       Tag          Charge          X              Y              Z
 ---- ---------------- ---------- -------------- -------------- --------------
    1 li                   3.0000    -0.91206494    -0.98333071    -0.90200947
    2 h                    1.0000    -0.91282434    -0.81792603     0.89121509
    3 h                    1.0000    -0.29653508     1.36393315    -0.28483755
    4 h                    1.0000     0.88188065    -0.80626860    -0.92998285
    5 li                   3.0000     1.22491545     0.84250819    -1.21899465
    6 li                   3.0000     0.87406757    -1.04392023     0.85810218
    7 li                   3.0000    -1.19929133     0.82964669     1.24842222
    8 h                    1.0000     0.36459852     1.32554963     0.36704454
 
      Atomic Mass 
      ----------- 
 
      li                 7.016000
      h                  1.007825
 

 Effective nuclear repulsion energy (a.u.)      23.7025735959

            Nuclear Dipole moment (a.u.) 
            ----------------------------
        X                 Y               Z
 ---------------- ---------------- ----------------
    -0.0000000000     0.0000000000     0.0000000000
 
 
            XYZ format geometry
            -------------------
     8
 geometry
 li                   -0.91206494    -0.98333071    -0.90200947
 h                    -0.91282434    -0.81792603     0.89121509
 h                    -0.29653508     1.36393315    -0.28483755
 h                     0.88188065    -0.80626860    -0.92998285
 li                    1.22491545     0.84250819    -1.21899465
 li                    0.87406757    -1.04392023     0.85810218
 li                   -1.19929133     0.82964669     1.24842222
 h                     0.36459852     1.32554963     0.36704454
 
 ==============================================================================
                                internuclear distances
 ------------------------------------------------------------------------------
       center one      |      center two      | atomic units |  angstroms
 ------------------------------------------------------------------------------
    5 li               |   4 h                |     3.22898  |     1.70870
    6 li               |   1 li               |     4.74014  |     2.50837
    7 li               |   2 h                |     3.23146  |     1.71002
 ------------------------------------------------------------------------------
                         number of included internuclear distances:          3
 ==============================================================================



  library name resolved from: environment
  library file name is: <
 /home/d3y133/nwchem-dev/nwchem-trunk-nonwad/QA/../src/basis/libraries/>
  


 Summary of "ao basis" -> "" (cartesian)
 ------------------------------------------------------------------------------
       Tag                 Description            Shells   Functions and Types
 ---------------- ------------------------------  ------  ---------------------
 *                      6-311++G(2d,2p)               on all atoms 


 
  Deleted DRIVER restart files 
 
 
 
                           NWChem Geometry Optimization
                           ----------------------------
 
 
 maximum gradient threshold         (gmax) =   0.000450
 rms gradient threshold             (grms) =   0.000300
 maximum cartesian step threshold   (xmax) =   0.001800
 rms cartesian step threshold       (xrms) =   0.001200
 fixed trust radius                (trust) =   0.300000
 maximum step size to saddle      (sadstp) =   0.100000
 energy precision                  (eprec) =   5.0D-06
 maximum number of steps          (nptopt) =  100
 initial hessian option           (inhess) =    0
 line search option               (linopt) =    1
 hessian update option            (modupd) =    1
 saddle point option              (modsad) =    0
 initial eigen-mode to follow     (moddir) =    0
 initial variable to follow       (vardir) =    0
 follow first negative mode     (firstneg) =    T
 apply conjugacy                    (opcg) =    F
 source of zmatrix                         =           


          -------------------
          Energy Minimization
          -------------------

 
 Using diagonal initial Hessian 

          --------
          Step   0
          --------
 
 
                         Geometry "geometry" -> "geometry"
                         ---------------------------------
 
 Output coordinates in angstroms (scale by  1.889725989 to convert to a.u.)
 
  No.       Tag          Charge          X              Y              Z
 ---- ---------------- ---------- -------------- -------------- --------------
    1 li                   3.0000    -0.91206494    -0.98333071    -0.90200947
    2 h                    1.0000    -0.91282434    -0.81792603     0.89121509
    3 h                    1.0000    -0.29653508     1.36393315    -0.28483755
    4 h                    1.0000     0.88188065    -0.80626860    -0.92998285
    5 li                   3.0000     1.22491545     0.84250819    -1.21899465
    6 li                   3.0000     0.87406757    -1.04392023     0.85810218
    7 li                   3.0000    -1.19929133     0.82964669     1.24842222
    8 h                    1.0000     0.36459852     1.32554963     0.36704454
 
      Atomic Mass 
      ----------- 
 
      li                 7.016000
      h                  1.007825
 

 Effective nuclear repulsion energy (a.u.)      23.7025735959

            Nuclear Dipole moment (a.u.) 
            ----------------------------
        X                 Y               Z
 ---------------- ---------------- ----------------
    -0.0000000000     0.0000000000     0.0000000000
 
 
                                 NWChem DFT Module
                                 -----------------
 
 
                      Basis "ao basis" -> "ao basis" (cartesian)
                      -----
  li (Lithium)
  ------------
            Exponent  Coefficients 
       -------------- ---------------------------------------------------------
  1 S  9.00460000E+02  0.002287
  1 S  1.34433000E+02  0.017635
  1 S  3.04365000E+01  0.087343
  1 S  8.62639000E+00  0.280977
  1 S  2.48332000E+00  0.658741
  1 S  3.03179000E-01  0.118712
 
  2 S  4.86890000E+00  0.093329
  2 S  8.56924000E-01  0.943045
  2 S  2.43227000E-01 -0.002798
 
  3 P  4.86890000E+00  0.032766
  3 P  8.56924000E-01  0.159792
  3 P  2.43227000E-01  0.885667
 
  4 S  6.35070000E-02  1.000000
 
  5 P  6.35070000E-02  1.000000
 
  6 S  2.43683000E-02  1.000000
 
  7 P  2.43683000E-02  1.000000
 
  8 S  7.40000000E-03  1.000000
 
  9 P  7.40000000E-03  1.000000
 
 10 D  4.00000000E-01  1.000000
 
 11 D  1.00000000E-01  1.000000
 
  h (Hydrogen)
  ------------
            Exponent  Coefficients 
       -------------- ---------------------------------------------------------
  1 S  3.38650000E+01  0.025494
  1 S  5.09479000E+00  0.190373
  1 S  1.15879000E+00  0.852161
 
  2 S  3.25840000E-01  1.000000
 
  3 S  1.02741000E-01  1.000000
 
  4 S  3.60000000E-02  1.000000
 
  5 P  1.50000000E+00  1.000000
 
  6 P  3.75000000E-01  1.000000
 


 Summary of "ao basis" -> "ao basis" (cartesian)
 ------------------------------------------------------------------------------
       Tag                 Description            Shells   Functions and Types
 ---------------- ------------------------------  ------  ---------------------
 li                     6-311++G(2d,2p)             11       29   5s4p2d
 h                      6-311++G(2d,2p)              6       10   4s2p




 Summary of "ao basis" -> "ao basis" (cartesian)
 ------------------------------------------------------------------------------
       Tag                 Description            Shells   Functions and Types
 ---------------- ------------------------------  ------  ---------------------
 li                     6-311++G(2d,2p)             11       29   5s4p2d
 h                      6-311++G(2d,2p)              6       10   4s2p


  Caching 1-el integrals 
 
            General Information
            -------------------
          SCF calculation type: DFT
          Wavefunction type:  spin polarized.
          No. of atoms     :     8
          No. of electrons :    15
           Alpha electrons :     8
            Beta electrons :     7
          Charge           :     1
          Spin multiplicity:     2
          Use of symmetry is: off; symmetry adaption is: off
          Maximum number of iterations: 100
          This is a Direct SCF calculation.
          AO basis - number of functions:   156
                     number of shells:    68
          Convergence on energy requested: 1.00D-06
          Convergence on density requested: 1.00D-05
          Convergence on gradient requested: 5.00D-04
 
              XC Information
              --------------
                     Hartree-Fock (Exact) Exchange  1.000          
                           M11 gradient correction  1.000          
 
             Grid Information
             ----------------
          Grid used for XC integration:  medium    
          Radial quadrature: Mura-Knowles        
          Angular quadrature: Lebedev. 
          Tag              B.-S. Rad. Rad. Pts. Rad. Cut. Ang. Pts.
          ---              ---------- --------- --------- ---------
          li                  1.45       49          24.0       434
          h                   0.35       45          17.0       434
          Grid pruning is: on 
          Number of quadrature shells:   376
          Spatial weights used:  Erf1
 
          Convergence Information
          -----------------------
          Convergence aids based upon iterative change in 
          total energy or number of iterations. 
          Levelshifting, if invoked, occurs when the 
          HOMO/LUMO gap drops below (HL_TOL): 1.00D-02
          DIIS, if invoked, will attempt to extrapolate 
          using up to (NFOCK): 10 stored Fock matrices.

                    Damping( 0%)  Levelshifting(0.5)       DIIS
                  --------------- ------------------- ---------------
          dE  on:    start            ASAP                start   
          dE off:    2 iters        100 iters           100 iters 

 
      Screening Tolerance Information
      -------------------------------
          Density screening/tol_rho: 1.00D-10
          AO Gaussian exp screening on grid/accAOfunc:  14
          CD Gaussian exp screening on grid/accCDfunc:  20
          XC Gaussian exp screening on grid/accXCfunc:  20
          Schwarz screening/accCoul: 1.00D-08

 
      Superposition of Atomic Density Guess
      -------------------------------------
 
 Sum of atomic energies:         -31.72729480

 Renormalizing density from      16.00 to     15
 
      Non-variational initial energy
      ------------------------------

 Total energy =     -30.284544
 1-e energy   =     -81.969354
 2-e energy   =      27.982236
 HOMO         =      -0.316863
 LUMO         =      -0.230633
 
   Time after variat. SCF:      0.4
   Time prior to 1st pass:      0.4

 Grid_pts file          = /home/d3y133/nwchem-dev/nwchem-trunk-nonwad/QA/scratchdir/metagga_dat.gridpts.0
 Record size in doubles =  12289        No. of grid_pts per rec  =   3070
 Max. records in memory =     16        Max. recs in file   = 253312716

 Grid integrated density:      14.999979286860
 Requested integration accuracy:   0.10E-05

           Memory utilization after 1st SCF pass: 
           Heap Space remaining (MW):       12.88            12881700
          Stack Space remaining (MW):       13.11            13105636

   convergence    iter        energy       DeltaE   RMS-Dens  Diis-err    time
 ---------------- ----- ----------------- --------- --------- ---------  ------
 d= 0,ls=0.0,diis     1    -35.4897550685 -5.92D+01  4.63D-03  5.91D-01     4.8
                                                     3.48D-03  5.93D-01
 d= 0,ls=0.0,diis     2    -35.6427258818 -1.53D-01  1.60D-03  4.75D-03     9.2
                                                     5.22D-04  4.16D-03
 d= 0,ls=0.0,diis     3    -35.6482245836 -5.50D-03  1.02D-03  6.65D-04    13.5
                                                     2.41D-04  2.21D-04
 d= 0,ls=0.0,diis     4    -35.6494713017 -1.25D-03  8.08D-04  1.93D-04    18.3
                                                     2.23D-04  3.38D-05
 d= 0,ls=0.0,diis     5    -35.6499131439 -4.42D-04  3.41D-04  3.32D-05    22.9
                                                     1.23D-04  5.26D-06
  Resetting Diis
 d= 0,ls=0.0,diis     6    -35.6499852592 -7.21D-05  7.48D-05  2.17D-06    27.7
                                                     2.26D-05  4.88D-07
 d= 0,ls=0.0,diis     7    -35.6499885782 -3.32D-06  2.15D-05  2.04D-07    32.4
                                                     4.90D-06  1.09D-07
 d= 0,ls=0.0,diis     8    -35.6499888057 -2.27D-07  2.14D-05  7.61D-08    37.1
                                                     4.39D-06  5.32D-08
 d= 0,ls=0.0,diis     9    -35.6499889709 -1.65D-07  5.85D-06  4.86D-09    41.7
                                                     3.19D-06  3.68D-09


         Total DFT energy =      -35.649988970853
      One electron energy =      -87.083086807895
           Coulomb energy =       40.756018034278
    Exchange-Corr. energy =      -13.025493793155
 Nuclear repulsion energy =       23.702573595919

 Numeric. integr. density =       14.999988015266

     Total iterative time =     41.3s


 
                    DFT Final Alpha Molecular Orbital Analysis
                    ------------------------------------------
 
 Vector    1  Occ=1.000000D+00  E=-2.977873D+00
              MO Center=  1.1D+00,  8.4D-01, -1.1D+00, r^2= 5.0D-01
   Bfn.  Coefficient  Atom+Function         Bfn.  Coefficient  Atom+Function  
  ----- ------------  ---------------      ----- ------------  ---------------
    60      0.681198  5 Li s                 61      0.347507  5 Li s          
 
 Vector    2  Occ=1.000000D+00  E=-2.977637D+00
              MO Center= -1.1D+00,  8.3D-01,  1.2D+00, r^2= 5.0D-01
   Bfn.  Coefficient  Atom+Function         Bfn.  Coefficient  Atom+Function  
  ----- ------------  ---------------      ----- ------------  ---------------
   118      0.681254  7 Li s                119      0.347509  7 Li s          
 
 Vector    3  Occ=1.000000D+00  E=-2.971728D+00
              MO Center= -7.5D-01, -9.9D-01, -7.4D-01, r^2= 6.5D-01
   Bfn.  Coefficient  Atom+Function         Bfn.  Coefficient  Atom+Function  
  ----- ------------  ---------------      ----- ------------  ---------------
     1      0.660046  1 Li s                  2      0.336760  1 Li s          
    89      0.211169  6 Li s          
 
 Vector    4  Occ=1.000000D+00  E=-2.970938D+00
              MO Center=  7.1D-01, -1.0D+00,  6.9D-01, r^2= 6.4D-01
   Bfn.  Coefficient  Atom+Function         Bfn.  Coefficient  Atom+Function  
  ----- ------------  ---------------      ----- ------------  ---------------
    89      0.660337  6 Li s                 90      0.336522  6 Li s          
     1     -0.211984  1 Li s          
 
 Vector    5  Occ=1.000000D+00  E=-8.830542D-01
              MO Center=  3.2D-02,  1.3D+00,  3.9D-02, r^2= 9.3D-01
   Bfn.  Coefficient  Atom+Function         Bfn.  Coefficient  Atom+Function  
  ----- ------------  ---------------      ----- ------------  ---------------
    41      0.293589  3 H  s                148      0.293731  8 H  s          
    40      0.194579  3 H  s                147      0.194777  8 H  s          
 
 Vector    6  Occ=1.000000D+00  E=-6.513078D-01
              MO Center= -1.8D-02, -6.9D-01, -1.2D-02, r^2= 2.4D+00
   Bfn.  Coefficient  Atom+Function         Bfn.  Coefficient  Atom+Function  
  ----- ------------  ---------------      ----- ------------  ---------------
    31      0.276861  2 H  s                 51      0.275166  4 H  s          
    32      0.224783  2 H  s                 52      0.223740  4 H  s          
     6      0.202121  1 Li s                 94      0.200123  6 Li s          
    30      0.152040  2 H  s                 50      0.151139  4 H  s          
 
 Vector    7  Occ=1.000000D+00  E=-6.047902D-01
              MO Center= -1.0D-02, -7.5D-01, -2.3D-02, r^2= 2.6D+00
   Bfn.  Coefficient  Atom+Function         Bfn.  Coefficient  Atom+Function  
  ----- ------------  ---------------      ----- ------------  ---------------
    31      0.299722  2 H  s                 51     -0.301144  4 H  s          
    52     -0.211128  4 H  s                 32      0.209983  2 H  s          
    50     -0.164270  4 H  s                 30      0.163449  2 H  s          
 
 Vector    8  Occ=1.000000D+00  E=-4.269037D-01
              MO Center=  2.5D-02,  1.1D+00,  3.2D-02, r^2= 2.8D+00
   Bfn.  Coefficient  Atom+Function         Bfn.  Coefficient  Atom+Function  
  ----- ------------  ---------------      ----- ------------  ---------------
    42      0.601425  3 H  s                149     -0.604356  8 H  s          
    41      0.284009  3 H  s                148     -0.284717  8 H  s          
   102      0.215552  6 Li s                 14     -0.209392  1 Li s          
    94     -0.170818  6 Li s                  6      0.163013  1 Li s          
 
 Vector    9  Occ=0.000000D+00  E=-1.196232D-01
              MO Center= -6.7D-03,  6.3D-01, -7.6D-03, r^2= 1.4D+01
   Bfn.  Coefficient  Atom+Function         Bfn.  Coefficient  Atom+Function  
  ----- ------------  ---------------      ----- ------------  ---------------
    98      0.499772  6 Li s                 10      0.497182  1 Li s          
    14      0.479979  1 Li s                102      0.458907  6 Li s          
   131     -0.384516  7 Li s                 73     -0.381662  5 Li s          
    33     -0.235624  2 H  s                 53     -0.236104  4 H  s          
    65      0.158566  5 Li s                123      0.158056  7 Li s          
 
 Vector   10  Occ=0.000000D+00  E=-1.017138D-01
              MO Center=  2.3D-02,  1.5D+00,  1.9D-02, r^2= 1.4D+01
   Bfn.  Coefficient  Atom+Function         Bfn.  Coefficient  Atom+Function  
  ----- ------------  ---------------      ----- ------------  ---------------
    73      1.132431  5 Li s                131     -1.129475  7 Li s          
    69      0.669775  5 Li s                127     -0.668582  7 Li s          
    65      0.399371  5 Li s                123     -0.398124  7 Li s          
    33      0.292861  2 H  s                 53     -0.290487  4 H  s          
 
 Vector   11  Occ=0.000000D+00  E=-9.631294D-02
              MO Center= -1.3D-01, -1.3D+00, -1.3D-01, r^2= 1.4D+01
   Bfn.  Coefficient  Atom+Function         Bfn.  Coefficient  Atom+Function  
  ----- ------------  ---------------      ----- ------------  ---------------
    14      2.437517  1 Li s                102     -2.339285  6 Li s          
   150      0.724555  8 H  s                 43     -0.710598  3 H  s          
    10      0.402123  1 Li s                 98     -0.361515  6 Li s          
     6      0.322673  1 Li s                149      0.323425  8 H  s          
    42     -0.315720  3 H  s                 94     -0.297620  6 Li s          
 
 Vector   12  Occ=0.000000D+00  E=-9.320477D-02
              MO Center=  5.6D-02, -1.8D+00,  5.4D-02, r^2= 1.4D+01
   Bfn.  Coefficient  Atom+Function         Bfn.  Coefficient  Atom+Function  
  ----- ------------  ---------------      ----- ------------  ---------------
   102      1.192155  6 Li s                131     -1.041164  7 Li s          
    73     -1.028722  5 Li s                 14      0.977605  1 Li s          
    98      0.275777  6 Li s                 10      0.248624  1 Li s          
    94      0.233717  6 Li s                123     -0.217876  7 Li s          
    65     -0.215751  5 Li s                  6      0.209971  1 Li s          
 
 Vector   13  Occ=0.000000D+00  E=-7.863838D-02
              MO Center=  5.6D-03,  2.0D-01,  3.8D-03, r^2= 1.5D+01
   Bfn.  Coefficient  Atom+Function         Bfn.  Coefficient  Atom+Function  
  ----- ------------  ---------------      ----- ------------  ---------------
    70      0.232250  5 Li px               128     -0.227894  7 Li px         
   130     -0.226461  7 Li pz                72      0.223694  5 Li pz         
   124     -0.183804  7 Li px                66      0.182158  5 Li px         
    13      0.179225  1 Li pz                68      0.178940  5 Li pz         
   101     -0.179526  6 Li pz               126     -0.177459  7 Li pz         
 
 Vector   14  Occ=0.000000D+00  E=-7.549075D-02
              MO Center=  1.4D-02,  1.4D-01,  2.4D-02, r^2= 1.7D+01
   Bfn.  Coefficient  Atom+Function         Bfn.  Coefficient  Atom+Function  
  ----- ------------  ---------------      ----- ------------  ---------------
   131      1.483866  7 Li s                 73      1.463205  5 Li s          
   102     -1.404987  6 Li s                 14     -1.297792  1 Li s          
    98     -0.835249  6 Li s                 10     -0.823307  1 Li s          
   127      0.571306  7 Li s                 69      0.563797  5 Li s          
    12     -0.443044  1 Li py               100     -0.423372  6 Li py         
 
 Vector   15  Occ=0.000000D+00  E=-5.797357D-02
              MO Center=  5.8D-02,  1.8D+00,  8.4D-03, r^2= 3.4D+01
   Bfn.  Coefficient  Atom+Function         Bfn.  Coefficient  Atom+Function  
  ----- ------------  ---------------      ----- ------------  ---------------
    14      1.747537  1 Li s                102      1.727577  6 Li s          
   131     -1.727682  7 Li s                 73     -1.704247  5 Li s          
    75      0.592101  5 Li py               133      0.589300  7 Li py         
    43     -0.335186  3 H  s                 98      0.335558  6 Li s          
    71      0.318983  5 Li py               129      0.318231  7 Li py         
 
 Vector   16  Occ=0.000000D+00  E=-5.601332D-02
              MO Center= -6.3D-02, -1.9D+00, -2.4D-02, r^2= 3.9D+01
   Bfn.  Coefficient  Atom+Function         Bfn.  Coefficient  Atom+Function  
  ----- ------------  ---------------      ----- ------------  ---------------
    73      2.451402  5 Li s                131     -2.425030  7 Li s          
    69      0.731631  5 Li s                127     -0.730809  7 Li s          
    33     -0.409164  2 H  s                 53      0.409184  4 H  s          
    15     -0.393120  1 Li px                17      0.394405  1 Li pz         
   105      0.388579  6 Li pz               103     -0.385312  6 Li px         
 
 Vector   17  Occ=0.000000D+00  E=-5.396426D-02
              MO Center= -1.7D-02,  2.1D+00, -4.4D-03, r^2= 4.3D+01
   Bfn.  Coefficient  Atom+Function         Bfn.  Coefficient  Atom+Function  
  ----- ------------  ---------------      ----- ------------  ---------------
    14      6.409418  1 Li s                102     -6.433757  6 Li s          
    10      1.426717  1 Li s                 98     -1.420908  6 Li s          
    15      0.705170  1 Li px               103      0.703113  6 Li px         
   105      0.695745  6 Li pz                17      0.692024  1 Li pz         
   132      0.538964  7 Li px                74      0.533513  5 Li px         
 
 Vector   18  Occ=0.000000D+00  E=-4.972878D-02
              MO Center=  6.4D-02,  5.9D-01,  6.7D-02, r^2= 6.5D+01
   Bfn.  Coefficient  Atom+Function         Bfn.  Coefficient  Atom+Function  
  ----- ------------  ---------------      ----- ------------  ---------------
    73      1.317682  5 Li s                131      1.296521  7 Li s          
   103      0.624259  6 Li px               105      0.615969  6 Li pz         
    15     -0.610002  1 Li px                17     -0.600241  1 Li pz         
   102     -0.599719  6 Li s                 14     -0.332627  1 Li s          
   104     -0.312020  6 Li py                98     -0.274321  6 Li s          
 
 Vector   19  Occ=0.000000D+00  E=-4.218667D-02
              MO Center= -2.5D-01, -3.8D+00, -2.6D-01, r^2= 5.7D+01
   Bfn.  Coefficient  Atom+Function         Bfn.  Coefficient  Atom+Function  
  ----- ------------  ---------------      ----- ------------  ---------------
    14     22.819488  1 Li s                102    -22.187153  6 Li s          
    15      3.174140  1 Li px                17      3.187599  1 Li pz         
   103      2.994799  6 Li px               105      2.972939  6 Li pz         
   104     -2.625407  6 Li py                16      2.509925  1 Li py         
    10      0.999856  1 Li s                 98     -0.931239  6 Li s          
 
 Vector   20  Occ=0.000000D+00  E=-4.215929D-02
              MO Center=  9.9D-02,  3.6D+00,  1.3D-02, r^2= 6.2D+01
   Bfn.  Coefficient  Atom+Function         Bfn.  Coefficient  Atom+Function  
  ----- ------------  ---------------      ----- ------------  ---------------
    73      9.343141  5 Li s                131     -9.130053  7 Li s          
    74     -1.872250  5 Li px               134      1.829383  7 Li pz         
    76      1.801348  5 Li pz               132     -1.799120  7 Li px         
    75     -1.764251  5 Li py               133      1.713947  7 Li py         
    14     -1.074262  1 Li s                102      0.863211  6 Li s          
 
 Vector   21  Occ=0.000000D+00  E=-4.166197D-02
              MO Center= -2.3D-02, -3.9D+00,  1.7D-02, r^2= 5.9D+01
   Bfn.  Coefficient  Atom+Function         Bfn.  Coefficient  Atom+Function  
  ----- ------------  ---------------      ----- ------------  ---------------
   102     13.451939  6 Li s                131    -13.164396  7 Li s          
    73    -12.886195  5 Li s                 14     12.357367  1 Li s          
   104      2.989827  6 Li py                16      2.810339  1 Li py         
   134      1.718942  7 Li pz               132     -1.658122  7 Li px         
    74      1.646702  5 Li px                76     -1.640058  5 Li pz         
 
 Vector   22  Occ=0.000000D+00  E=-3.741160D-02
              MO Center= -4.7D-03, -1.1D-01, -9.4D-04, r^2= 6.9D+01
   Bfn.  Coefficient  Atom+Function         Bfn.  Coefficient  Atom+Function  
  ----- ------------  ---------------      ----- ------------  ---------------
   105      0.972509  6 Li pz                17     -0.959837  1 Li pz         
    15      0.930000  1 Li px               103     -0.917078  6 Li px         
    74     -0.751632  5 Li px               132      0.723142  7 Li px         
   134      0.712721  7 Li pz                76     -0.687607  5 Li pz         
 
 Vector   23  Occ=0.000000D+00  E=-3.661725D-02
              MO Center=  6.2D-02,  1.1D+00,  8.9D-02, r^2= 7.0D+01
   Bfn.  Coefficient  Atom+Function         Bfn.  Coefficient  Atom+Function  
  ----- ------------  ---------------      ----- ------------  ---------------
   102      3.553724  6 Li s                131     -2.655704  7 Li s          
    73     -2.585854  5 Li s                 14      1.967413  1 Li s          
    75      1.308205  5 Li py               133      1.312678  7 Li py         
   103     -1.178929  6 Li px               105     -1.127717  6 Li pz         
    15      0.994769  1 Li px                17      0.945125  1 Li pz         
 
 Vector   24  Occ=0.000000D+00  E=-3.216298D-02
              MO Center= -1.8D-02, -3.3D-01,  1.8D-03, r^2= 6.9D+01
   Bfn.  Coefficient  Atom+Function         Bfn.  Coefficient  Atom+Function  
  ----- ------------  ---------------      ----- ------------  ---------------
   131    -13.762188  7 Li s                 73     13.530912  5 Li s          
   133      5.274158  7 Li py                75     -5.225580  5 Li py         
    17      3.632437  1 Li pz                15     -3.562372  1 Li px         
   105      3.571780  6 Li pz               103     -3.533764  6 Li px         
    76     -0.900396  5 Li pz               132      0.849280  7 Li px         
 
 Vector   25  Occ=0.000000D+00  E=-3.102969D-02
              MO Center=  5.0D-01, -2.7D-01, -4.7D-01, r^2= 7.4D+01
   Bfn.  Coefficient  Atom+Function         Bfn.  Coefficient  Atom+Function  
  ----- ------------  ---------------      ----- ------------  ---------------
   102    -10.053912  6 Li s                 14      9.875157  1 Li s          
   103      7.063341  6 Li px                17      6.847791  1 Li pz         
    74     -4.663570  5 Li px                76     -4.567217  5 Li pz         
    16     -4.413310  1 Li py               104      4.156738  6 Li py         
    99      0.520094  6 Li px                13      0.508729  1 Li pz         
 
 Vector   26  Occ=0.000000D+00  E=-3.101561D-02
              MO Center= -4.6D-01, -2.4D-01,  5.1D-01, r^2= 7.4D+01
   Bfn.  Coefficient  Atom+Function         Bfn.  Coefficient  Atom+Function  
  ----- ------------  ---------------      ----- ------------  ---------------
   102     -9.138163  6 Li s                 14      9.036899  1 Li s          
   105      7.114899  6 Li pz                15      6.893467  1 Li px         
   132     -4.720190  7 Li px               134     -4.668490  7 Li pz         
    16     -4.000499  1 Li py               104      3.774628  6 Li py         
    74      0.908621  5 Li px                76      0.904088  5 Li pz         
 
 Vector   27  Occ=0.000000D+00  E=-2.789448D-02
              MO Center=  2.0D-02,  8.0D-01,  6.2D-03, r^2= 7.4D+01
   Bfn.  Coefficient  Atom+Function         Bfn.  Coefficient  Atom+Function  
  ----- ------------  ---------------      ----- ------------  ---------------
    73    -35.705370  5 Li s                102     35.764350  6 Li s          
   131    -35.691284  7 Li s                 14     35.065026  1 Li s          
    75      6.410833  5 Li py               133      6.358806  7 Li py         
   104      4.770319  6 Li py                16      4.547089  1 Li py         
   134      3.491881  7 Li pz                74      3.408093  5 Li px         
 
 Vector   28  Occ=0.000000D+00  E=-2.631491D-02
              MO Center=  2.1D-03, -1.5D+00, -7.3D-02, r^2= 7.8D+01
   Bfn.  Coefficient  Atom+Function         Bfn.  Coefficient  Atom+Function  
  ----- ------------  ---------------      ----- ------------  ---------------
    73     42.651472  5 Li s                131    -42.671580  7 Li s          
   134      6.248537  7 Li pz                74     -6.173411  5 Li px         
    76      6.153517  5 Li pz               132     -6.059788  7 Li px         
    15     -2.706772  1 Li px                17      2.694611  1 Li pz         
   103     -2.706121  6 Li px                75     -2.690121  5 Li py         
 
 Vector   29  Occ=0.000000D+00  E=-2.360052D-02
              MO Center= -9.7D-01,  6.9D-01, -9.1D-01, r^2= 7.0D+01
   Bfn.  Coefficient  Atom+Function         Bfn.  Coefficient  Atom+Function  
  ----- ------------  ---------------      ----- ------------  ---------------
    14     54.084945  1 Li s                102    -46.864534  6 Li s          
    15      6.892897  1 Li px                17      6.775763  1 Li pz         
   103      4.362770  6 Li px               105      4.246805  6 Li pz         
    16      4.089800  1 Li py                73     -3.315953  5 Li s          
   131     -2.826755  7 Li s                132      2.682994  7 Li px         
 
 Vector   30  Occ=0.000000D+00  E=-2.350127D-02
              MO Center=  9.8D-01,  1.4D+00,  1.0D+00, r^2= 7.7D+01
   Bfn.  Coefficient  Atom+Function         Bfn.  Coefficient  Atom+Function  
  ----- ------------  ---------------      ----- ------------  ---------------
   102    -87.942109  6 Li s                 14     84.447358  1 Li s          
   103     10.119346  6 Li px               105      9.961407  6 Li pz         
    15      8.931419  1 Li px                17      8.827738  1 Li pz         
   104     -6.301280  6 Li py                16      4.327507  1 Li py         
    74      3.734148  5 Li px               134      3.736283  7 Li pz         
 
 Vector   31  Occ=0.000000D+00  E=-1.592838D-02
              MO Center=  3.4D-02, -8.4D-01,  1.9D-02, r^2= 7.1D+01
   Bfn.  Coefficient  Atom+Function         Bfn.  Coefficient  Atom+Function  
  ----- ------------  ---------------      ----- ------------  ---------------
   102     60.488473  6 Li s                131    -58.398359  7 Li s          
    73    -57.974578  5 Li s                 14     56.961550  1 Li s          
   104     10.119316  6 Li py                16      9.505529  1 Li py         
    75      7.785624  5 Li py               133      7.780001  7 Li py         
   134      5.867141  7 Li pz                74      5.729787  5 Li px         
 
 Vector   32  Occ=0.000000D+00  E=-1.306666D-02
              MO Center= -1.3D-01, -2.0D+00, -1.4D-01, r^2= 5.6D+01
   Bfn.  Coefficient  Atom+Function         Bfn.  Coefficient  Atom+Function  
  ----- ------------  ---------------      ----- ------------  ---------------
    14     76.937651  1 Li s                102    -74.575279  6 Li s          
    15      9.202255  1 Li px                17      9.216991  1 Li pz         
   103      8.773606  6 Li px               105      8.696975  6 Li pz         
   104     -6.326940  6 Li py                16      6.080244  1 Li py         
    43      4.210611  3 H  s                150     -4.210699  8 H  s          
 
 Vector   33  Occ=0.000000D+00  E=-1.073749D-02
              MO Center=  1.6D-02,  1.6D+00,  3.8D-02, r^2= 7.0D+01
   Bfn.  Coefficient  Atom+Function         Bfn.  Coefficient  Atom+Function  
  ----- ------------  ---------------      ----- ------------  ---------------
   131    -64.194527  7 Li s                 73     63.863679  5 Li s          
    75     -8.759269  5 Li py               133      8.737608  7 Li py         
   134      7.772407  7 Li pz                74     -7.637756  5 Li px         
    76      7.418546  5 Li pz               132     -7.407708  7 Li px         
   103     -5.212680  6 Li px                15     -5.160989  1 Li px         
 
 Vector   34  Occ=0.000000D+00  E=-6.865364D-03
              MO Center=  1.3D-02,  2.8D-01, -2.9D-02, r^2= 5.1D+01
   Bfn.  Coefficient  Atom+Function         Bfn.  Coefficient  Atom+Function  
  ----- ------------  ---------------      ----- ------------  ---------------
   131     -6.411755  7 Li s                 73      6.298897  5 Li s          
    69     -4.526613  5 Li s                127      4.383296  7 Li s          
    53      3.243005  4 H  s                 33     -3.192409  2 H  s          
    76      2.845308  5 Li pz               132     -2.806759  7 Li px         
   134      2.788174  7 Li pz                74     -2.745385  5 Li px         
 
 Vector   35  Occ=0.000000D+00  E=-5.496153D-03
              MO Center=  1.3D-02,  5.8D-01,  4.3D-02, r^2= 5.1D+01
   Bfn.  Coefficient  Atom+Function         Bfn.  Coefficient  Atom+Function  
  ----- ------------  ---------------      ----- ------------  ---------------
   127      7.618201  7 Li s                 69      7.530766  5 Li s          
    33     -3.921997  2 H  s                 53     -3.876050  4 H  s          
    10     -2.705071  1 Li s                 43     -2.638107  3 H  s          
    98     -2.600477  6 Li s                150     -2.612338  8 H  s          
    71     -2.314144  5 Li py               129     -2.301509  7 Li py         
 
 Vector   36  Occ=0.000000D+00  E= 8.416241D-04
              MO Center=  6.1D-02, -2.8D-01, -5.5D-02, r^2= 4.7D+01
   Bfn.  Coefficient  Atom+Function         Bfn.  Coefficient  Atom+Function  
  ----- ------------  ---------------      ----- ------------  ---------------
    17      4.820715  1 Li pz               103      4.745605  6 Li px         
   105     -4.031781  6 Li pz                15     -3.948032  1 Li px         
    74     -3.388285  5 Li px                76     -3.383415  5 Li pz         
   132      3.057105  7 Li px               134      3.022594  7 Li pz         
    13     -2.194107  1 Li pz                99     -2.118818  6 Li px         
 
 Vector   37  Occ=0.000000D+00  E= 1.108103D-03
              MO Center= -6.4D-02, -4.8D-01,  5.6D-02, r^2= 4.8D+01
   Bfn.  Coefficient  Atom+Function         Bfn.  Coefficient  Atom+Function  
  ----- ------------  ---------------      ----- ------------  ---------------
    14     18.653418  1 Li s                102    -18.567714  6 Li s          
   105      5.280924  6 Li pz                15      5.175310  1 Li px         
    16     -4.692825  1 Li py               103      4.628992  6 Li px         
    17      4.366069  1 Li pz               104      4.355194  6 Li py         
    12      2.649790  1 Li py               132     -2.486328  7 Li px         
 
 Vector   38  Occ=0.000000D+00  E= 2.463663D-03
              MO Center=  4.2D-03, -4.2D-01, -9.0D-03, r^2= 4.4D+01
   Bfn.  Coefficient  Atom+Function         Bfn.  Coefficient  Atom+Function  
  ----- ------------  ---------------      ----- ------------  ---------------
    10     13.089680  1 Li s                 98     12.509787  6 Li s          
    69    -11.177259  5 Li s                102    -11.045448  6 Li s          
   127    -10.890531  7 Li s                131      9.455798  7 Li s          
    73      9.127296  5 Li s                 14     -7.177293  1 Li s          
    33     -4.300257  2 H  s                 53     -4.225261  4 H  s          
 
 Vector   39  Occ=0.000000D+00  E= 3.406097D-03
              MO Center=  4.8D-03,  5.4D-01,  2.7D-02, r^2= 4.0D+01
   Bfn.  Coefficient  Atom+Function         Bfn.  Coefficient  Atom+Function  
  ----- ------------  ---------------      ----- ------------  ---------------
   127    -10.590315  7 Li s                 69     10.070108  5 Li s          
    73      8.811165  5 Li s                131     -8.651203  7 Li s          
   129      3.888502  7 Li py                71     -3.801201  5 Li py         
    76      2.510129  5 Li pz                74     -2.462314  5 Li px         
   134      2.456853  7 Li pz               132     -2.426834  7 Li px         
 
 Vector   40  Occ=0.000000D+00  E= 1.173204D-02
              MO Center=  1.4D-02,  1.8D-01,  1.7D-02, r^2= 4.6D+01
   Bfn.  Coefficient  Atom+Function         Bfn.  Coefficient  Atom+Function  
  ----- ------------  ---------------      ----- ------------  ---------------
   102   -108.937553  6 Li s                 14    108.355521  1 Li s          
    98    -22.286192  6 Li s                 10     21.836057  1 Li s          
    15     12.227996  1 Li px                17     12.092485  1 Li pz         
   103     12.016367  6 Li px               105     11.823863  6 Li pz         
   104     -7.818906  6 Li py                16      6.907573  1 Li py         
 
 Vector   41  Occ=0.000000D+00  E= 2.073457D-02
              MO Center= -3.4D-02, -1.3D+00, -3.1D-02, r^2= 3.4D+01
   Bfn.  Coefficient  Atom+Function         Bfn.  Coefficient  Atom+Function  
  ----- ------------  ---------------      ----- ------------  ---------------
   102     19.549905  6 Li s                131    -17.828430  7 Li s          
    73    -17.710706  5 Li s                 14     16.548940  1 Li s          
    69     -3.662278  5 Li s                127     -3.638231  7 Li s          
    75      3.219783  5 Li py               133      3.229182  7 Li py         
    98      2.554342  6 Li s                100      2.446215  6 Li py         
 
 Vector   42  Occ=0.000000D+00  E= 2.396383D-02
              MO Center= -5.8D-04,  1.2D-01, -4.7D-03, r^2= 3.6D+01
   Bfn.  Coefficient  Atom+Function         Bfn.  Coefficient  Atom+Function  
  ----- ------------  ---------------      ----- ------------  ---------------
   128     -0.918131  7 Li px                70      0.897454  5 Li px         
    72      0.895141  5 Li pz               130     -0.859475  7 Li pz         
    13      0.737349  1 Li pz                99      0.722638  6 Li px         
    11     -0.702937  1 Li px               101     -0.696383  6 Li pz         
   134      0.639825  7 Li pz                74     -0.598874  5 Li px         
 
 Vector   43  Occ=0.000000D+00  E= 3.806425D-02
              MO Center=  1.1D-02,  2.4D-01,  1.6D-02, r^2= 3.0D+01
   Bfn.  Coefficient  Atom+Function         Bfn.  Coefficient  Atom+Function  
  ----- ------------  ---------------      ----- ------------  ---------------
    14     59.131794  1 Li s                102    -58.207748  6 Li s          
    10     12.738199  1 Li s                 98    -12.589745  6 Li s          
   150     -7.485117  8 H  s                 43      7.393475  3 H  s          
    15      6.158597  1 Li px                17      6.124005  1 Li pz         
   103      5.956510  6 Li px               105      5.876989  6 Li pz         
 
 Vector   44  Occ=0.000000D+00  E= 4.564205D-02
              MO Center=  3.4D-02,  9.8D-01,  4.2D-04, r^2= 3.1D+01
   Bfn.  Coefficient  Atom+Function         Bfn.  Coefficient  Atom+Function  
  ----- ------------  ---------------      ----- ------------  ---------------
    73     33.089896  5 Li s                131    -31.998011  7 Li s          
    69     -7.389807  5 Li s                127      7.004575  7 Li s          
    33     -5.100302  2 H  s                 53      4.990349  4 H  s          
    74     -4.697171  5 Li px                76      4.654624  5 Li pz         
   134      4.629470  7 Li pz               132     -4.506953  7 Li px         
 
 Vector   45  Occ=0.000000D+00  E= 4.609805D-02
              MO Center=  1.9D-02,  7.0D-01,  2.0D-02, r^2= 3.4D+01
   Bfn.  Coefficient  Atom+Function         Bfn.  Coefficient  Atom+Function  
  ----- ------------  ---------------      ----- ------------  ---------------
   131    -28.298765  7 Li s                 14     27.496369  1 Li s          
    73    -26.946141  5 Li s                102     26.894037  6 Li s          
   127      8.394014  7 Li s                 69      8.025997  5 Li s          
    10     -7.353176  1 Li s                 98     -7.334923  6 Li s          
   133      4.283517  7 Li py                75      4.223841  5 Li py         
 
 Vector   46  Occ=0.000000D+00  E= 5.272681D-02
              MO Center= -2.6D-03, -9.0D-01, -1.5D-02, r^2= 3.5D+01
   Bfn.  Coefficient  Atom+Function         Bfn.  Coefficient  Atom+Function  
  ----- ------------  ---------------      ----- ------------  ---------------
   102     23.181502  6 Li s                 14     21.415238  1 Li s          
   131    -21.070434  7 Li s                 73    -20.818135  5 Li s          
    69    -13.413135  5 Li s                127    -13.463671  7 Li s          
    33      7.584727  2 H  s                 53      7.608550  4 H  s          
   104      4.450770  6 Li py                16      4.129790  1 Li py         
 
 Vector   47  Occ=0.000000D+00  E= 5.566575D-02
              MO Center=  3.2D-02,  2.3D-01, -2.1D-02, r^2= 3.0D+01
   Bfn.  Coefficient  Atom+Function         Bfn.  Coefficient  Atom+Function  
  ----- ------------  ---------------      ----- ------------  ---------------
   131    -30.240319  7 Li s                 73     29.797873  5 Li s          
    33     -6.311316  2 H  s                 53      6.317622  4 H  s          
    69      4.892791  5 Li s                127     -4.634031  7 Li s          
   133      4.327341  7 Li py                75     -4.290691  5 Li py         
   134      3.244978  7 Li pz                74     -3.136182  5 Li px         
 
 Vector   48  Occ=0.000000D+00  E= 5.771107D-02
              MO Center= -2.2D-02,  1.4D+00,  7.8D-02, r^2= 3.0D+01
   Bfn.  Coefficient  Atom+Function         Bfn.  Coefficient  Atom+Function  
  ----- ------------  ---------------      ----- ------------  ---------------
    43      6.424827  3 H  s                150      6.014186  8 H  s          
    73      5.725965  5 Li s                102     -5.277860  6 Li s          
   131      5.268483  7 Li s                 14     -4.900362  1 Li s          
   127     -3.936749  7 Li s                 69     -3.673147  5 Li s          
   129     -1.735933  7 Li py                71     -1.715133  5 Li py         
 
 Vector   49  Occ=0.000000D+00  E= 6.738547D-02
              MO Center=  1.6D-02, -4.0D-01,  1.2D-02, r^2= 3.0D+01
   Bfn.  Coefficient  Atom+Function         Bfn.  Coefficient  Atom+Function  
  ----- ------------  ---------------      ----- ------------  ---------------
   102    -32.504308  6 Li s                 14     32.179753  1 Li s          
    10    -28.973346  1 Li s                 98     29.081358  6 Li s          
    11     -5.104219  1 Li px                13     -5.030958  1 Li pz         
    99     -5.021484  6 Li px               101     -4.925932  6 Li pz         
    15      3.512165  1 Li px                17      3.487482  1 Li pz         
 
 Vector   50  Occ=0.000000D+00  E= 7.542450D-02
              MO Center= -9.0D-03, -5.8D-01, -2.0D-02, r^2= 2.1D+01
   Bfn.  Coefficient  Atom+Function         Bfn.  Coefficient  Atom+Function  
  ----- ------------  ---------------      ----- ------------  ---------------
    14     16.310649  1 Li s                102    -14.634346  6 Li s          
   150     -7.990897  8 H  s                 43      7.601586  3 H  s          
    10     -5.340953  1 Li s                 98      4.718918  6 Li s          
   100      2.338874  6 Li py                12     -2.325555  1 Li py         
    16      2.106913  1 Li py               104     -1.963254  6 Li py         
 
 Vector   51  Occ=0.000000D+00  E= 7.730709D-02
              MO Center= -3.0D-02, -1.1D+00, -3.5D-02, r^2= 2.5D+01
   Bfn.  Coefficient  Atom+Function         Bfn.  Coefficient  Atom+Function  
  ----- ------------  ---------------      ----- ------------  ---------------
   131    -14.027192  7 Li s                 73     13.864366  5 Li s          
   127      8.050409  7 Li s                 69     -7.821543  5 Li s          
    53     -5.607335  4 H  s                 33      5.538597  2 H  s          
    11      2.428026  1 Li px                13     -2.422349  1 Li pz         
    99      2.408065  6 Li px               101     -2.386047  6 Li pz         
 
 Vector   52  Occ=0.000000D+00  E= 8.088846D-02
              MO Center= -3.3D-03,  2.1D-01, -8.8D-03, r^2= 2.8D+01
   Bfn.  Coefficient  Atom+Function         Bfn.  Coefficient  Atom+Function  
  ----- ------------  ---------------      ----- ------------  ---------------
    69     22.966744  5 Li s                127     23.005721  7 Li s          
    14     21.368276  1 Li s                 73    -21.306609  5 Li s          
   102     21.280283  6 Li s                131    -21.236880  7 Li s          
    98    -16.057523  6 Li s                 10    -15.815552  1 Li s          
    43    -10.044739  3 H  s                150     -8.926726  8 H  s          
 
 Vector   53  Occ=0.000000D+00  E= 8.917635D-02
              MO Center= -5.0D-03, -2.0D-01, -1.0D-02, r^2= 2.1D+01
   Bfn.  Coefficient  Atom+Function         Bfn.  Coefficient  Atom+Function  
  ----- ------------  ---------------      ----- ------------  ---------------
    13     -2.245209  1 Li pz                99     -2.221431  6 Li px         
   101      2.228498  6 Li pz               103      2.222708  6 Li px         
    17      2.198430  1 Li pz               105     -2.182554  6 Li pz         
    11      2.157816  1 Li px                15     -2.087016  1 Li px         
    72      1.680395  5 Li pz               128     -1.684292  7 Li px         
 
 Vector   54  Occ=0.000000D+00  E= 9.465862D-02
              MO Center= -3.2D-02, -3.0D-01, -1.5D-02, r^2= 2.1D+01
   Bfn.  Coefficient  Atom+Function         Bfn.  Coefficient  Atom+Function  
  ----- ------------  ---------------      ----- ------------  ---------------
    14     21.872882  1 Li s                102    -21.382202  6 Li s          
    15      3.791449  1 Li px               103      3.738984  6 Li px         
   105      3.743025  6 Li pz                10     -3.694013  1 Li s          
    17      3.691085  1 Li pz                98      3.287267  6 Li s          
    12      2.316332  1 Li py               100     -2.258537  6 Li py         
 
 Vector   55  Occ=0.000000D+00  E= 1.020050D-01
              MO Center= -6.4D-02, -4.7D-01,  5.0D-02, r^2= 1.6D+01
   Bfn.  Coefficient  Atom+Function         Bfn.  Coefficient  Atom+Function  
  ----- ------------  ---------------      ----- ------------  ---------------
    53      9.418290  4 H  s                 33      9.303540  2 H  s          
    98     -6.421767  6 Li s                 10     -6.346074  1 Li s          
    43     -4.223179  3 H  s                127      3.832561  7 Li s          
   150     -3.586541  8 H  s                 69      3.159170  5 Li s          
    67      2.561752  5 Li py               125      2.544475  7 Li py         
 
 Vector   56  Occ=0.000000D+00  E= 1.021192D-01
              MO Center=  6.4D-02, -3.1D-01, -5.6D-02, r^2= 2.3D+01
   Bfn.  Coefficient  Atom+Function         Bfn.  Coefficient  Atom+Function  
  ----- ------------  ---------------      ----- ------------  ---------------
    73     19.353164  5 Li s                131    -19.384542  7 Li s          
    69     -6.061993  5 Li s                127      5.642340  7 Li s          
   134      3.024902  7 Li pz                74     -2.982128  5 Li px         
    76      2.929967  5 Li pz               132     -2.872695  7 Li px         
    32      2.282585  2 H  s                 52     -2.278140  4 H  s          
 
 Vector   57  Occ=0.000000D+00  E= 1.113896D-01
              MO Center=  8.1D-04,  5.2D-01,  1.5D-02, r^2= 1.7D+01
   Bfn.  Coefficient  Atom+Function         Bfn.  Coefficient  Atom+Function  
  ----- ------------  ---------------      ----- ------------  ---------------
   127     -6.569687  7 Li s                 69      6.310612  5 Li s          
    53     -3.829084  4 H  s                 33      3.735095  2 H  s          
    73      3.721836  5 Li s                131     -3.737640  7 Li s          
   129      2.987891  7 Li py                71     -2.967284  5 Li py         
   125     -2.058146  7 Li py                67      2.011494  5 Li py         
 
 Vector   58  Occ=0.000000D+00  E= 1.276320D-01
              MO Center=  1.1D-02, -4.9D-01,  4.7D-03, r^2= 1.7D+01
   Bfn.  Coefficient  Atom+Function         Bfn.  Coefficient  Atom+Function  
  ----- ------------  ---------------      ----- ------------  ---------------
   102      7.081905  6 Li s                 73     -6.372006  5 Li s          
   131     -6.367776  7 Li s                 69     -6.093551  5 Li s          
    14      6.056436  1 Li s                127     -6.086715  7 Li s          
    33      5.407368  2 H  s                 53      5.425568  4 H  s          
    43      5.254463  3 H  s                150      5.173928  8 H  s          
 
 Vector   59  Occ=0.000000D+00  E= 1.400230D-01
              MO Center= -4.5D-03, -3.1D-01, -4.8D-03, r^2= 2.1D+01
   Bfn.  Coefficient  Atom+Function         Bfn.  Coefficient  Atom+Function  
  ----- ------------  ---------------      ----- ------------  ---------------
    14     58.162928  1 Li s                102    -58.282579  6 Li s          
    98    -11.386858  6 Li s                 10     11.224703  1 Li s          
    15      6.340052  1 Li px                17      6.272109  1 Li pz         
   103      6.213253  6 Li px               105      6.106317  6 Li pz         
     6     -5.868144  1 Li s                 94      5.845958  6 Li s          
 
 Vector   60  Occ=0.000000D+00  E= 1.552583D-01
              MO Center=  9.7D-04,  4.7D-01,  9.2D-03, r^2= 1.9D+01
   Bfn.  Coefficient  Atom+Function         Bfn.  Coefficient  Atom+Function  
  ----- ------------  ---------------      ----- ------------  ---------------
   131     -8.035615  7 Li s                 73     -7.881085  5 Li s          
    14      7.826097  1 Li s                102      7.831304  6 Li s          
   123      6.265490  7 Li s                 65      6.214077  5 Li s          
   126     -4.496847  7 Li pz                66     -4.390596  5 Li px         
    68      4.401743  5 Li pz               124      4.365490  7 Li px         
 
 Vector   61  Occ=0.000000D+00  E= 2.027994D-01
              MO Center= -1.1D-02, -5.9D-01, -1.2D-02, r^2= 1.4D+01
   Bfn.  Coefficient  Atom+Function         Bfn.  Coefficient  Atom+Function  
  ----- ------------  ---------------      ----- ------------  ---------------
   102     11.478020  6 Li s                 14     10.677287  1 Li s          
   131    -10.718487  7 Li s                 73    -10.661147  5 Li s          
    69     -9.564617  5 Li s                127     -9.596807  7 Li s          
    98      5.123123  6 Li s                 10      5.018114  1 Li s          
    43      4.020998  3 H  s                150      3.790749  8 H  s          
 
 Vector   62  Occ=0.000000D+00  E= 2.168735D-01
              MO Center=  1.4D-02,  6.4D-01,  6.6D-03, r^2= 9.9D+00
   Bfn.  Coefficient  Atom+Function         Bfn.  Coefficient  Atom+Function  
  ----- ------------  ---------------      ----- ------------  ---------------
    84      0.844135  5 Li dxy              145     -0.830255  7 Li dyz        
   142     -0.801160  7 Li dxy               87      0.785017  5 Li dyz        
    88      0.542643  5 Li dzz              141     -0.537830  7 Li dxx        
    83     -0.506931  5 Li dxx              146      0.501920  7 Li dzz        
     9      0.340489  1 Li pz                97     -0.340529  6 Li pz         
 
 Vector   63  Occ=0.000000D+00  E= 2.340320D-01
              MO Center= -2.5D-02, -5.7D-01, -3.7D-02, r^2= 1.1D+01
   Bfn.  Coefficient  Atom+Function         Bfn.  Coefficient  Atom+Function  
  ----- ------------  ---------------      ----- ------------  ---------------
    14     13.556287  1 Li s                102    -13.441470  6 Li s          
    94      3.331323  6 Li s                  6     -3.265920  1 Li s          
    43      3.038693  3 H  s                150     -2.958098  8 H  s          
   149     -2.742151  8 H  s                 42      2.688919  3 H  s          
    97     -2.478514  6 Li pz                 7     -2.399757  1 Li px         
 
 Vector   64  Occ=0.000000D+00  E= 2.352447D-01
              MO Center= -1.6D-02, -3.3D-01, -9.1D-03, r^2= 1.1D+01
   Bfn.  Coefficient  Atom+Function         Bfn.  Coefficient  Atom+Function  
  ----- ------------  ---------------      ----- ------------  ---------------
    95      0.970040  6 Li px                 9      0.947503  1 Li pz         
    97     -0.738313  6 Li pz                 7     -0.717877  1 Li px         
   102      0.679150  6 Li s                 14     -0.631983  1 Li s          
    28     -0.621586  1 Li dyz               25      0.593670  1 Li dxy        
   142     -0.584336  7 Li dxy              113     -0.569490  6 Li dxy        
 
 Vector   65  Occ=0.000000D+00  E= 2.380997D-01
              MO Center=  1.2D-02,  5.1D-01,  6.2D-03, r^2= 1.2D+01
   Bfn.  Coefficient  Atom+Function         Bfn.  Coefficient  Atom+Function  
  ----- ------------  ---------------      ----- ------------  ---------------
    73      8.837390  5 Li s                131     -8.836863  7 Li s          
    33     -4.827623  2 H  s                 53      4.842004  4 H  s          
    32     -2.586656  2 H  s                 52      2.559584  4 H  s          
    65     -2.198700  5 Li s                123      2.168943  7 Li s          
    67      1.942629  5 Li py               125     -1.941017  7 Li py         
 
 Vector   66  Occ=0.000000D+00  E= 2.562102D-01
              MO Center= -5.1D-03,  1.2D-01,  5.0D-03, r^2= 1.6D+01
   Bfn.  Coefficient  Atom+Function         Bfn.  Coefficient  Atom+Function  
  ----- ------------  ---------------      ----- ------------  ---------------
   131    -12.152766  7 Li s                 14     12.044751  1 Li s          
    73    -12.030350  5 Li s                102     11.746532  6 Li s          
    69      7.750823  5 Li s                127      7.782552  7 Li s          
   123      6.955240  7 Li s                 65      6.898593  5 Li s          
    43     -5.376040  3 H  s                150     -5.003742  8 H  s          
 
 Vector   67  Occ=0.000000D+00  E= 2.600266D-01
              MO Center= -8.9D-03, -3.0D-01, -5.7D-03, r^2= 1.3D+01
   Bfn.  Coefficient  Atom+Function         Bfn.  Coefficient  Atom+Function  
  ----- ------------  ---------------      ----- ------------  ---------------
   131    -12.118833  7 Li s                 73     11.867664  5 Li s          
    53      4.674615  4 H  s                 33     -4.611126  2 H  s          
   123      2.674892  7 Li s                 52      2.656665  4 H  s          
    65     -2.620852  5 Li s                 32     -2.509480  2 H  s          
    67      2.354848  5 Li py               125     -2.319406  7 Li py         
 
 Vector   68  Occ=0.000000D+00  E= 2.697955D-01
              MO Center= -6.3D-02, -2.9D-01, -6.5D-02, r^2= 1.1D+01
   Bfn.  Coefficient  Atom+Function         Bfn.  Coefficient  Atom+Function  
  ----- ------------  ---------------      ----- ------------  ---------------
    14      8.875463  1 Li s                 32      7.286679  2 H  s          
    52      7.203928  4 H  s                 10     -7.078993  1 Li s          
    98     -6.742452  6 Li s                 69      5.677095  5 Li s          
   127      5.653853  7 Li s                 73     -4.662470  5 Li s          
   131     -4.580291  7 Li s                 33      3.935304  2 H  s          
 
 Vector   69  Occ=0.000000D+00  E= 2.723643D-01
              MO Center=  6.8D-02, -9.6D-01,  6.4D-02, r^2= 1.6D+01
   Bfn.  Coefficient  Atom+Function         Bfn.  Coefficient  Atom+Function  
  ----- ------------  ---------------      ----- ------------  ---------------
   102    -36.875042  6 Li s                 14     35.812746  1 Li s          
    94     10.220777  6 Li s                  6     -9.640949  1 Li s          
    95     -6.597964  6 Li px                97     -6.456178  6 Li pz         
     7     -6.232717  1 Li px                 9     -6.139322  1 Li pz         
    15      3.818403  1 Li px               103      3.813758  6 Li px         
 
 Vector   70  Occ=0.000000D+00  E= 2.948889D-01
              MO Center=  1.2D-02,  4.5D-01, -4.5D-03, r^2= 1.3D+01
   Bfn.  Coefficient  Atom+Function         Bfn.  Coefficient  Atom+Function  
  ----- ------------  ---------------      ----- ------------  ---------------
    73     14.064352  5 Li s                131    -14.112383  7 Li s          
   127     -4.108201  7 Li s                 69      4.083158  5 Li s          
    97     -2.398769  6 Li pz                95      2.359916  6 Li px         
     9     -2.281543  1 Li pz                 7      2.266483  1 Li px         
    52     -1.996076  4 H  s                125     -1.991303  7 Li py         
 
 Vector   71  Occ=0.000000D+00  E= 2.962542D-01
              MO Center= -3.7D-03, -4.9D-02,  6.3D-03, r^2= 1.2D+01
   Bfn.  Coefficient  Atom+Function         Bfn.  Coefficient  Atom+Function  
  ----- ------------  ---------------      ----- ------------  ---------------
    69     10.296228  5 Li s                127     10.280493  7 Li s          
    10     -4.832264  1 Li s                 98     -4.742093  6 Li s          
    43     -4.488780  3 H  s                150     -4.113268  8 H  s          
    33     -3.240872  2 H  s                 53     -3.236628  4 H  s          
   123      2.643669  7 Li s                 65      2.628077  5 Li s          
 
 Vector   72  Occ=0.000000D+00  E= 2.974655D-01
              MO Center=  6.7D-03, -5.8D-01, -2.1D-03, r^2= 1.1D+01
   Bfn.  Coefficient  Atom+Function         Bfn.  Coefficient  Atom+Function  
  ----- ------------  ---------------      ----- ------------  ---------------
   127     -1.303575  7 Li s                 24      1.223312  1 Li dxx        
    29     -1.172571  1 Li dzz              112      1.128161  6 Li dxx        
   117     -1.084066  6 Li dzz              131     -1.076528  7 Li s          
    73      0.943357  5 Li s                 69     -0.783189  5 Li s          
     7      0.693689  1 Li px                 9     -0.671170  1 Li pz         
 
 Vector   73  Occ=0.000000D+00  E= 3.185579D-01
              MO Center=  8.1D-03,  4.1D-01, -1.6D-04, r^2= 1.4D+01
   Bfn.  Coefficient  Atom+Function         Bfn.  Coefficient  Atom+Function  
  ----- ------------  ---------------      ----- ------------  ---------------
   131    -12.597141  7 Li s                 73     12.525879  5 Li s          
    65     -4.237090  5 Li s                123      4.201342  7 Li s          
    69     -3.780386  5 Li s                 67      3.716228  5 Li py         
   125     -3.734245  7 Li py               127      3.719230  7 Li s          
   126     -3.510196  7 Li pz                66      3.487017  5 Li px         
 
 Vector   74  Occ=0.000000D+00  E= 3.244190D-01
              MO Center= -2.3D-01,  1.4D-01, -2.2D-01, r^2= 1.3D+01
   Bfn.  Coefficient  Atom+Function         Bfn.  Coefficient  Atom+Function  
  ----- ------------  ---------------      ----- ------------  ---------------
    14     10.652699  1 Li s                 73     -4.669723  5 Li s          
   131     -4.611851  7 Li s                  6     -4.358446  1 Li s          
    65      3.538098  5 Li s                123      3.527182  7 Li s          
     8     -3.131531  1 Li py                10     -3.101669  1 Li s          
   150      2.901025  8 H  s                126     -2.806308  7 Li pz         
 
 Vector   75  Occ=0.000000D+00  E= 3.254988D-01
              MO Center=  2.3D-01,  1.7D-01,  2.4D-01, r^2= 1.2D+01
   Bfn.  Coefficient  Atom+Function         Bfn.  Coefficient  Atom+Function  
  ----- ------------  ---------------      ----- ------------  ---------------
   102     15.267198  6 Li s                 14    -10.852916  1 Li s          
    94     -4.977779  6 Li s                 43      4.413618  3 H  s          
    98     -3.938548  6 Li s                150     -3.399191  8 H  s          
    95      3.293022  6 Li px                97      3.184590  6 Li pz         
   114     -2.438604  6 Li dxz                6      2.383739  1 Li s          
 
 Vector   76  Occ=0.000000D+00  E= 3.490266D-01
              MO Center= -1.5D-02, -1.7D-01, -1.2D-02, r^2= 1.0D+01
   Bfn.  Coefficient  Atom+Function         Bfn.  Coefficient  Atom+Function  
  ----- ------------  ---------------      ----- ------------  ---------------
    98    -11.028024  6 Li s                 10     10.715451  1 Li s          
   102      6.401712  6 Li s                 14     -5.222578  1 Li s          
   149      4.484098  8 H  s                 42     -3.617363  3 H  s          
    11      2.230508  1 Li px                13      2.201695  1 Li pz         
    99      2.144449  6 Li px                96     -2.105537  6 Li py         
 
 Vector   77  Occ=0.000000D+00  E= 3.590754D-01
              MO Center=  1.9D-02,  7.7D-01,  1.6D-02, r^2= 1.1D+01
   Bfn.  Coefficient  Atom+Function         Bfn.  Coefficient  Atom+Function  
  ----- ------------  ---------------      ----- ------------  ---------------
    14      8.265411  1 Li s                 73     -7.415968  5 Li s          
   131     -7.429652  7 Li s                102      6.816124  6 Li s          
   127      6.360759  7 Li s                 69      6.273435  5 Li s          
    43     -5.339214  3 H  s                150     -5.286673  8 H  s          
    10     -4.282395  1 Li s                 42      3.482856  3 H  s          
 
 Vector   78  Occ=0.000000D+00  E= 3.657526D-01
              MO Center=  1.5D-02,  5.5D-01, -4.3D-02, r^2= 1.3D+01
   Bfn.  Coefficient  Atom+Function         Bfn.  Coefficient  Atom+Function  
  ----- ------------  ---------------      ----- ------------  ---------------
    32      7.890614  2 H  s                 52     -7.894111  4 H  s          
    67     -3.680640  5 Li py                73     -3.637212  5 Li s          
   125      3.441279  7 Li py               123     -3.383812  7 Li s          
    65      3.252937  5 Li s                131      3.147069  7 Li s          
   127     -1.780790  7 Li s                  9     -1.663359  1 Li pz         
 
 Vector   79  Occ=0.000000D+00  E= 3.711669D-01
              MO Center= -4.4D-02,  8.7D-02,  4.5D-02, r^2= 1.4D+01
   Bfn.  Coefficient  Atom+Function         Bfn.  Coefficient  Atom+Function  
  ----- ------------  ---------------      ----- ------------  ---------------
   102      8.379047  6 Li s                 73     -7.328002  5 Li s          
   131     -7.274454  7 Li s                 14      7.060787  1 Li s          
    43      6.685401  3 H  s                127     -5.809321  7 Li s          
   150      5.788396  8 H  s                 69     -5.748548  5 Li s          
    42      5.399219  3 H  s                149      5.119105  8 H  s          
 
 Vector   80  Occ=0.000000D+00  E= 3.739744D-01
              MO Center= -1.1D-01, -3.2D-01,  1.1D-01, r^2= 1.4D+01
   Bfn.  Coefficient  Atom+Function         Bfn.  Coefficient  Atom+Function  
  ----- ------------  ---------------      ----- ------------  ---------------
    14      8.848251  1 Li s                102     -8.132191  6 Li s          
     8     -4.743216  1 Li py                96      4.495650  6 Li py         
   124     -3.099479  7 Li px               150      3.111741  8 H  s          
   126     -2.638917  7 Li pz                12      2.379567  1 Li py         
    68     -2.298683  5 Li pz               100     -2.225922  6 Li py         
 
 Vector   81  Occ=0.000000D+00  E= 3.756320D-01
              MO Center=  1.2D-01, -1.5D-01, -1.0D-01, r^2= 1.3D+01
   Bfn.  Coefficient  Atom+Function         Bfn.  Coefficient  Atom+Function  
  ----- ------------  ---------------      ----- ------------  ---------------
     9      3.570501  1 Li pz                95      3.517034  6 Li px         
    97     -3.119545  6 Li pz                 7     -3.022712  1 Li px         
    66     -2.848384  5 Li px                68     -2.693037  5 Li pz         
   124      2.060429  7 Li px                13     -1.925724  1 Li pz         
    99     -1.906247  6 Li px               126      1.915027  7 Li pz         
 
 Vector   82  Occ=0.000000D+00  E= 4.008974D-01
              MO Center=  6.4D-03, -1.9D-01, -1.5D-02, r^2= 1.1D+01
   Bfn.  Coefficient  Atom+Function         Bfn.  Coefficient  Atom+Function  
  ----- ------------  ---------------      ----- ------------  ---------------
   131     -5.654460  7 Li s                 73      5.533412  5 Li s          
   127      4.367848  7 Li s                 69     -4.278125  5 Li s          
    65     -1.805252  5 Li s                123      1.784805  7 Li s          
   129     -1.635363  7 Li py                67     -1.603644  5 Li py         
    71      1.601350  5 Li py               125      1.599426  7 Li py         
 
 Vector   83  Occ=0.000000D+00  E= 4.118134D-01
              MO Center=  2.1D-03,  1.1D-01,  9.3D-04, r^2= 1.2D+01
   Bfn.  Coefficient  Atom+Function         Bfn.  Coefficient  Atom+Function  
  ----- ------------  ---------------      ----- ------------  ---------------
    69      4.924522  5 Li s                127      4.819535  7 Li s          
    43     -3.371890  3 H  s                149     -3.263821  8 H  s          
    10     -3.135792  1 Li s                102      3.145837  6 Li s          
    98     -3.129673  6 Li s                 42     -2.887571  3 H  s          
   150     -2.681081  8 H  s                 73     -2.266119  5 Li s          
 
 Vector   84  Occ=0.000000D+00  E= 4.217142D-01
              MO Center=  2.9D-02,  1.7D-01,  2.4D-02, r^2= 1.1D+01
   Bfn.  Coefficient  Atom+Function         Bfn.  Coefficient  Atom+Function  
  ----- ------------  ---------------      ----- ------------  ---------------
    14     18.606437  1 Li s                102    -18.375080  6 Li s          
    98     -6.825596  6 Li s                 10      6.476127  1 Li s          
    42     -3.520546  3 H  s                149      3.287708  8 H  s          
   150     -2.386763  8 H  s                 15      2.241630  1 Li px         
    17      2.218259  1 Li pz               103      2.174753  6 Li px         
 
 Vector   85  Occ=0.000000D+00  E= 4.351995D-01
              MO Center= -5.0D-02, -8.1D-01, -1.6D-02, r^2= 8.6D+00
   Bfn.  Coefficient  Atom+Function         Bfn.  Coefficient  Atom+Function  
  ----- ------------  ---------------      ----- ------------  ---------------
    14      5.489784  1 Li s                 73     -5.042188  5 Li s          
   131     -4.595638  7 Li s                102      4.270657  6 Li s          
    98     -4.103395  6 Li s                 32     -3.917125  2 H  s          
    33      3.872095  2 H  s                 53      3.573452  4 H  s          
    52     -3.077092  4 H  s                 10     -2.555644  1 Li s          
 
 Vector   86  Occ=0.000000D+00  E= 4.386605D-01
              MO Center=  1.5D-01, -5.6D-02,  5.0D-02, r^2= 1.0D+01
   Bfn.  Coefficient  Atom+Function         Bfn.  Coefficient  Atom+Function  
  ----- ------------  ---------------      ----- ------------  ---------------
    52     -6.286196  4 H  s                 32      5.999444  2 H  s          
   131     -4.494914  7 Li s                 73      4.046625  5 Li s          
    53      2.599039  4 H  s                127      2.387662  7 Li s          
     9     -2.302197  1 Li pz                33     -2.253325  2 H  s          
    69     -2.251071  5 Li s                  7      2.037516  1 Li px         
 
 Vector   87  Occ=0.000000D+00  E= 4.392559D-01
              MO Center=  4.5D-02, -1.6D-02, -2.6D-01, r^2= 9.2D+00
   Bfn.  Coefficient  Atom+Function         Bfn.  Coefficient  Atom+Function  
  ----- ------------  ---------------      ----- ------------  ---------------
    52      2.346731  4 H  s                 66      1.995686  5 Li px         
    32     -1.943008  2 H  s                131      1.709794  7 Li s          
   126     -1.571884  7 Li pz                95     -1.542647  6 Li px         
   113     -1.378784  6 Li dxy              116      1.359411  6 Li dyz        
    68      1.350091  5 Li pz                87     -1.339237  5 Li dyz        
 
 Vector   88  Occ=0.000000D+00  E= 4.396940D-01
              MO Center= -1.6D-01,  5.5D-01,  1.9D-01, r^2= 8.5D+00
   Bfn.  Coefficient  Atom+Function         Bfn.  Coefficient  Atom+Function  
  ----- ------------  ---------------      ----- ------------  ---------------
    10      7.829681  1 Li s                149     -7.238170  8 H  s          
    42      7.140096  3 H  s                 98     -6.942060  6 Li s          
   102     -5.082161  6 Li s                 14      4.046078  1 Li s          
   150      3.327340  8 H  s                 43     -2.740708  3 H  s          
    11      2.068117  1 Li px                13      2.038671  1 Li pz         
 
 Vector   89  Occ=0.000000D+00  E= 4.563444D-01
              MO Center= -1.3D-03,  3.9D-01,  4.1D-03, r^2= 1.0D+01
   Bfn.  Coefficient  Atom+Function         Bfn.  Coefficient  Atom+Function  
  ----- ------------  ---------------      ----- ------------  ---------------
   127      6.536311  7 Li s                 69      6.468493  5 Li s          
    98     -4.753618  6 Li s                 10     -4.558383  1 Li s          
    43     -3.033557  3 H  s                150     -2.987507  8 H  s          
    14      2.279145  1 Li s                 42      2.116765  3 H  s          
     8      2.054050  1 Li py                96      2.024512  6 Li py         
 
 Vector   90  Occ=0.000000D+00  E= 4.653411D-01
              MO Center=  1.7D-03,  7.2D-02,  4.2D-03, r^2= 8.9D+00
   Bfn.  Coefficient  Atom+Function         Bfn.  Coefficient  Atom+Function  
  ----- ------------  ---------------      ----- ------------  ---------------
   102     -5.250886  6 Li s                 14      5.133487  1 Li s          
    43      3.895589  3 H  s                150     -3.442865  8 H  s          
    94     -1.440075  6 Li s                  6      1.401856  1 Li s          
    68      1.352831  5 Li pz                96     -1.352809  6 Li py         
   124      1.342635  7 Li px                 8      1.243075  1 Li py         
 
 Vector   91  Occ=0.000000D+00  E= 4.859008D-01
              MO Center=  2.2D-02,  2.1D-02, -1.6D-02, r^2= 8.2D+00
   Bfn.  Coefficient  Atom+Function         Bfn.  Coefficient  Atom+Function  
  ----- ------------  ---------------      ----- ------------  ---------------
    52      6.866050  4 H  s                 32     -6.175963  2 H  s          
    73      4.707690  5 Li s                131     -4.168164  7 Li s          
    67      3.163215  5 Li py                33     -3.025648  2 H  s          
   125     -2.972930  7 Li py                53      2.375044  4 H  s          
    86     -2.274745  5 Li dyy              144      2.189662  7 Li dyy        
 
 Vector   92  Occ=0.000000D+00  E= 4.871392D-01
              MO Center= -1.9D-02, -4.6D-01,  1.7D-02, r^2= 8.4D+00
   Bfn.  Coefficient  Atom+Function         Bfn.  Coefficient  Atom+Function  
  ----- ------------  ---------------      ----- ------------  ---------------
    32      5.173461  2 H  s                 53     -4.789869  4 H  s          
    33     -4.449488  2 H  s                 52      4.285540  4 H  s          
    69      4.229842  5 Li s                127      4.239553  7 Li s          
   131      4.059175  7 Li s                 14     -3.973234  1 Li s          
   102     -3.854837  6 Li s                 73      3.488106  5 Li s          
 
 Vector   93  Occ=0.000000D+00  E= 4.886330D-01
              MO Center= -7.4D-02, -3.4D-01, -4.9D-02, r^2= 1.0D+01
   Bfn.  Coefficient  Atom+Function         Bfn.  Coefficient  Atom+Function  
  ----- ------------  ---------------      ----- ------------  ---------------
     7      3.624368  1 Li px                 9     -3.604781  1 Li pz         
    95     -3.368828  6 Li px                97      3.347785  6 Li pz         
    25      2.238217  1 Li dxy               28     -2.217959  1 Li dyz        
   113     -2.140697  6 Li dxy              116      2.123543  6 Li dyz        
    29     -1.822093  1 Li dzz               24      1.778808  1 Li dxx        
 
 Vector   94  Occ=0.000000D+00  E= 4.957724D-01
              MO Center=  5.2D-02, -4.0D-01,  3.9D-02, r^2= 1.0D+01
   Bfn.  Coefficient  Atom+Function         Bfn.  Coefficient  Atom+Function  
  ----- ------------  ---------------      ----- ------------  ---------------
   131     -4.226645  7 Li s                 73      4.156920  5 Li s          
    69     -3.081829  5 Li s                127      2.984562  7 Li s          
    67     -2.945763  5 Li py               125      2.890926  7 Li py         
    97      2.490437  6 Li pz                95     -2.450804  6 Li px         
   123     -2.422584  7 Li s                 65      2.389708  5 Li s          
 
 Vector   95  Occ=0.000000D+00  E= 5.115782D-01
              MO Center= -2.0D-02, -5.1D-01, -2.2D-02, r^2= 9.0D+00
   Bfn.  Coefficient  Atom+Function         Bfn.  Coefficient  Atom+Function  
  ----- ------------  ---------------      ----- ------------  ---------------
[...]


              11           12           13           14           15           16           17           18           19           20
   ----- ----- ----- ----- -----
   11    6.46531D+01
   12   -9.33548D+00  5.05024D+01
   13   -2.27278D+00  3.81179D-01  4.08260D+00
   14   -1.67871D+01  3.32075D+00  8.03719D-01  8.62648D+00
   15    1.41428D+00 -3.23143D+00 -2.20205D+00 -4.72112D-01  4.28841D+00
   16   -9.25803D-01  1.67661D+00  4.10114D-01 -2.58653D-01  1.61951D-01  7.20330D+00
   17   -3.71243D+00  1.15936D+00 -1.28589D-01 -4.90106D-01  8.46202D-01 -9.28909D-01  2.41717D+00
   18    1.91361D+00 -1.05683D+01 -1.87542D-01  7.92339D-01 -3.82542D-01  9.37038D-01 -9.30539D-01  7.15937D+00
   19   -7.21421D-01  3.27643D-01 -3.83335D-01  1.04406D-01  1.24455D-01 -3.92849D-01  8.53216D-01  1.74132D-01  4.21820D+00
   20   -4.72496D-01  6.11342D-01  2.06510D-02  5.77198D-02  8.90518D-02  7.89275D-01 -4.75014D-01 -2.63575D-01 -4.75406D-01  8.61083D+00
   21    4.80313D-01  1.76818D-01 -1.42283D-01  2.47245D-02 -3.79392D-01 -1.65593D-01 -1.48555D-01  4.00389D-01 -2.21643D+00  8.21177D-01
   22    8.64745D+00  2.75201D+00  6.30369D-01 -4.86512D-01  1.24751D+00 -3.42927D-01 -1.82489D+00  2.05903D+00 -7.22876D+00 -4.12989D+00
   23   -3.10375D+00 -6.00921D+00  1.17503D+00 -1.62074D+00 -1.11577D+00 -3.36858D-01  1.55668D+00 -3.19116D-01 -1.13508D+00 -1.64309D+00
   24    3.92873D+00 -2.92744D-01  3.73278D+00 -4.02616D+00 -7.32688D+00  2.05566D+00 -1.78939D+00 -4.53920D-01  1.38395D+00 -4.35930D-01


              21           22           23           24
   ----- ----- ----- ----- -----
   21    4.16156D+00
   22    3.83731D+00  9.92996D+01
   23    1.20631D+00  5.62945D+00  2.83053D+01
   24    5.69351D-01  3.43914D+01  5.33434D+00  9.84880D+01

 center of mass
 --------------
 x =   0.00027315 y =  -0.09487722 z =   0.00006877

 moments of inertia (a.u.)
 ------------------
         184.278745345249          -0.857893896327          31.059396039180
          -0.857893896327         186.382600558271          -0.659899129188
          31.059396039180          -0.659899129188         183.270977660511

 Rotational Constants
 --------------------
 A=   0.394210 cm-1  (  0.567168 K)
 B=   0.323062 cm-1  (  0.464803 K)
 C=   0.280159 cm-1  (  0.403077 K)


 Temperature                      =   298.15K
 frequency scaling parameter      =   1.0000

 Zero-Point correction to Energy  =   24.042 kcal/mol  (  0.038314 au)
 Thermal correction to Energy     =   27.734 kcal/mol  (  0.044197 au)
 Thermal correction to Enthalpy   =   28.326 kcal/mol  (  0.045141 au)

 Total Entropy                    =   70.316 cal/mol-K
   - Translational                =   36.314 cal/mol-K (mol. weight =  32.0953)
   - Rotational                   =   23.319 cal/mol-K (symmetry #  =        1)
   - Vibrational                  =   10.683 cal/mol-K

 Cv (constant volume heat capacity) =   19.817 cal/mol-K
   - Translational                  =    2.979 cal/mol-K
   - Rotational                     =    2.979 cal/mol-K
   - Vibrational                    =   13.859 cal/mol-K



          -------------------------------------------------
          NORMAL MODE EIGENVECTORS IN CARTESIAN COORDINATES
          -------------------------------------------------
             (Projected Frequencies expressed in cm-1)

                    1           2           3           4           5           6
 
 P.Frequency       -0.00        0.00        0.00        0.00        0.00        0.00
 
           1    -0.04580     0.01827     0.21087    -0.07239     0.05307     0.06067
           2     0.17773     0.13650    -0.08098    -0.03978     0.05089     0.01030
           3    -0.01086    -0.09496    -0.00022     0.18546     0.12160    -0.02136
           4     0.01391     0.04365     0.19480     0.10941    -0.01738    -0.02367
           5     0.10491     0.03538    -0.07620     0.06667     0.05874     0.16448
           6    -0.00139    -0.08239    -0.00096     0.17430     0.11994    -0.04098
           7     0.22591    -0.07499     0.08087    -0.05211    -0.01387     0.04770
           8     0.08727     0.12786    -0.04702     0.00836     0.06463     0.05964
           9     0.08005     0.03248    -0.00646    -0.02713     0.13331    -0.20565
          10    -0.02306     0.00776     0.19925    -0.08114     0.05075     0.06439
          11    -0.00657     0.21478     0.01119    -0.01065     0.08217    -0.00573
          12    -0.03835    -0.11678     0.00386    -0.01364     0.18711     0.04482
          13     0.14612    -0.06800     0.11348    -0.13693     0.03058     0.08775
          14    -0.02939     0.24235     0.02688    -0.01990     0.08666    -0.02944
          15     0.02491    -0.02905    -0.00060    -0.14668     0.19137    -0.08400
          16    -0.01709     0.05470     0.20975     0.10868    -0.01024    -0.02292
          17    -0.07804     0.11391     0.01548     0.09500     0.08982     0.14757
          18    -0.05015    -0.13287     0.00473     0.00676     0.18748     0.06902
          19     0.19482    -0.02072     0.10763     0.11411    -0.05918    -0.02826
          20     0.11744     0.00602    -0.08823     0.08197     0.05579     0.19478
          21     0.07358     0.01625    -0.00696     0.10087     0.10288    -0.19702
          22     0.23543    -0.06182     0.08080     0.01215    -0.03618     0.01805
          23    -0.00335     0.11986    -0.01284     0.05611     0.07843     0.10827
          24     0.06587     0.01870    -0.00469    -0.09007     0.15669    -0.17308

                    7           8           9          10          11          12
 
 P.Frequency      105.79      254.72      333.64      349.32      399.40      430.88
 
           1     0.04657     0.01306    -0.06744    -0.14925     0.09149     0.06970
           2     0.17465    -0.10366    -0.14988    -0.00262    -0.00247    -0.12304
           3     0.04820     0.01125    -0.06551     0.15085    -0.09451     0.06912
           4     0.07911     0.04492    -0.02876     0.07082     0.07568    -0.03782
           5    -0.00742     0.04530     0.01156    -0.00920     0.15358     0.05145
           6     0.08641    -0.01113    -0.03182     0.07640    -0.06614     0.03768
           7    -0.34491    -0.00111    -0.27212     0.00356    -0.02572     0.04126
           8    -0.18367     0.27269    -0.00570    -0.00098    -0.00265    -0.03166
           9    -0.34070     0.00106    -0.26949    -0.01075     0.00531     0.03932
          10     0.08559    -0.00904    -0.03466    -0.07765     0.06687     0.03578
          11     0.00181     0.04449     0.02415     0.00990    -0.15108     0.05346
          12     0.08181     0.04657    -0.02044    -0.06981    -0.07660    -0.03688
          13     0.01684    -0.12943     0.10710     0.11989    -0.10018     0.11612
          14    -0.01050     0.09558     0.01946     0.00162    -0.15605     0.12528
          15    -0.03273     0.10104     0.10781     0.11240     0.10825    -0.12910
          16     0.04073     0.01276    -0.06936     0.14178     0.10043    -0.06893
          17    -0.14800    -0.18445     0.09303     0.00067     0.00033    -0.12518
          18     0.04201     0.01235    -0.05952    -0.14564    -0.10568    -0.06620
          19    -0.02956     0.09914     0.11742    -0.11139    -0.10476    -0.12570
          20    -0.01382     0.09706     0.01165     0.00009     0.15726     0.12114
          21     0.01529    -0.12961     0.10244    -0.11659     0.11111     0.11739
          22    -0.33901    -0.00371    -0.27508    -0.00392    -0.02623     0.02212
          23     0.17304     0.30208     0.14919     0.00200     0.00663    -0.06080
          24    -0.33408    -0.00189    -0.27155    -0.00294     0.00401     0.02103

                   13          14          15          16          17          18
 
 P.Frequency      533.65      635.70      976.49     1013.03     1040.33     1091.32
 
           1    -0.16348     0.06780    -0.05561     0.04904    -0.01421     0.04711
           2    -0.03608     0.01963    -0.01636     0.00041    -0.00023    -0.00013
           3    -0.16037     0.06786    -0.05610    -0.04739     0.01258    -0.04924
           4     0.03945     0.03505     0.35269     0.44131    -0.14358    -0.38892
           5     0.03422     0.02061    -0.01679    -0.01610     0.08894    -0.41012
           6    -0.04225    -0.03957     0.34186     0.47184    -0.03550     0.35847
           7     0.04670     0.05332     0.10059     0.03150     0.45558     0.02275
           8     0.21391     0.57574    -0.43985     0.00720    -0.00583    -0.00022
           9     0.04785     0.05697     0.11388    -0.03531    -0.45877    -0.01896
          10    -0.04083    -0.03642     0.33389    -0.49617     0.05010    -0.34422
          11     0.03243     0.01808    -0.02280     0.01870    -0.09031     0.40398
          12     0.04032     0.03660     0.31915    -0.44864     0.14904     0.40289
          13     0.06681     0.03853    -0.00750     0.00772    -0.05537    -0.00020
          14     0.00863    -0.10670     0.00053     0.00871     0.05769    -0.04742
          15    -0.07424    -0.04889    -0.01180     0.02952     0.04967    -0.00437
          16     0.16368    -0.06616    -0.05715    -0.04580     0.00355     0.04924
          17    -0.04808     0.02733     0.02106    -0.00078     0.00035     0.00066
          18     0.16071    -0.06528    -0.05302     0.04894    -0.00494    -0.05106
          19    -0.07311    -0.04759    -0.01109    -0.02910    -0.04892     0.00286
          20     0.00747    -0.10767     0.00064    -0.00934    -0.05856     0.04730
          21     0.06743     0.03799    -0.00976    -0.00680     0.05540    -0.00017
          22    -0.00289    -0.00034     0.12724     0.14970     0.43809     0.02109
          23     0.19330     0.55102     0.43855    -0.00277     0.01239     0.00346
          24    -0.00091     0.00389     0.13487    -0.15681    -0.43941    -0.01253

                   19          20          21          22          23          24
 
 P.Frequency     1226.19     1252.61     1405.93     1560.05     1576.80     2639.92
 
           1     0.03025    -0.01106     0.03361    -0.00944    -0.00018    -0.00302
           2    -0.00414     0.01736     0.00049    -0.01729    -0.00236    -0.00603
           3     0.02973    -0.01060    -0.03406    -0.00931    -0.00175    -0.00311
           4    -0.34161    -0.33782    -0.26973    -0.32954    -0.10963     0.00930
           5    -0.00445    -0.48203     0.52236     0.46844     0.05639     0.06759
           6    -0.31093     0.34293     0.30192     0.37428    -0.02428    -0.00710
           7     0.06461    -0.04057    -0.09479     0.09282    -0.48269    -0.49784
           8    -0.50377     0.14532     0.00034    -0.01066    -0.00575     0.05728
           9     0.05976    -0.03759     0.09500    -0.03318     0.49808    -0.48965
          10    -0.31511     0.34179    -0.29400     0.34779     0.11409    -0.00747
          11    -0.00365    -0.47770    -0.52977     0.46897     0.06594     0.06272
          12    -0.33003    -0.35131     0.27143    -0.34867     0.01527     0.00903
          13     0.00619     0.00154     0.02126    -0.01208     0.00900     0.00694
          14     0.00047     0.03452     0.05444    -0.04871    -0.00774    -0.00778
          15     0.00386     0.00102    -0.01806     0.00671     0.01073    -0.00717
          16     0.03150     0.00957     0.03316     0.00879    -0.00035     0.00286
          17     0.00218     0.01592     0.00014    -0.01746    -0.00223    -0.00581
          18     0.03022     0.01007    -0.03373     0.00799     0.00306     0.00270
          19     0.00493     0.00081     0.01862     0.00957    -0.00881    -0.00703
          20     0.00095     0.03481    -0.05377    -0.04895    -0.00487    -0.00811
          21     0.00586     0.00161    -0.02154    -0.01005    -0.01146     0.00702
          22     0.08485     0.03062    -0.08397    -0.08907     0.48056     0.49784
          23     0.51566     0.10006    -0.00197    -0.00501     0.00311     0.00546
          24     0.09616     0.03137     0.07925     0.03998    -0.49319     0.49164



 ----------------------------------------------------------------------------
 Normal Eigenvalue ||    Projected Derivative Dipole Moments (debye/angs)
  Mode   [cm**-1]  ||      [d/dqX]             [d/dqY]           [d/dqZ]
 ------ ---------- || ------------------ ------------------ -----------------
    1       -0.000 ||       0.431               0.222             0.167
    2        0.000 ||      -0.038               0.598            -0.285
    3        0.000 ||       0.741              -0.153             0.032
    4        0.000 ||      -0.017               0.140             0.132
    5        0.000 ||       0.065               0.339             0.712
    6        0.000 ||      -0.046              -0.389             0.319
    7      105.787 ||      -0.496              -0.082            -0.461
    8      254.725 ||       0.047              -1.420             0.038
    9      333.644 ||       0.050               0.294             0.095
   10      349.324 ||       0.010              -0.004            -0.009
   11      399.400 ||      -0.692              -0.010             0.706
   12      430.882 ||      -0.004              -0.028            -0.012
   13      533.648 ||      -0.028              -0.766            -0.034
   14      635.697 ||      -0.044              -1.583            -0.055
   15      976.487 ||      -1.704               0.073            -1.700
   16     1013.032 ||       0.382               0.017            -0.472
   17     1040.326 ||       2.306               0.015            -2.311
   18     1091.323 ||       2.364               0.007            -2.447
   19     1226.187 ||       1.448               0.006             1.382
   20     1252.610 ||       0.003               2.367             0.034
   21     1405.928 ||       2.485               0.036            -2.525
   22     1560.047 ||      -0.054              -2.941            -0.090
   23     1576.800 ||      -0.018              -0.404             0.022
   24     2639.915 ||      -0.053              -3.858            -0.073
 ----------------------------------------------------------------------------



  
  
 ----------------------------------------------------------------------------
 Normal Eigenvalue ||           Projected Infra Red Intensities
  Mode   [cm**-1]  || [atomic units] [(debye/angs)**2] [(KM/mol)] [arbitrary]
 ------ ---------- || -------------- ----------------- ---------- -----------
    1       -0.000 ||    0.011386           0.263        11.099       0.758
    2        0.000 ||    0.019085           0.440        18.605       1.271
    3        0.000 ||    0.024851           0.573        24.226       1.655
    4        0.000 ||    0.001615           0.037         1.575       0.108
    5        0.000 ||    0.027145           0.626        26.463       1.808
    6        0.000 ||    0.011058           0.255        10.780       0.737
    7      105.787 ||    0.020142           0.465        19.635       1.342
    8      254.725 ||    0.087568           2.020        85.366       5.833
    9      333.644 ||    0.004244           0.098         4.137       0.283
   10      349.324 ||    0.000009           0.000         0.009       0.001
   11      399.400 ||    0.042350           0.977        41.285       2.821
   12      430.882 ||    0.000040           0.001         0.039       0.003
   13      533.648 ||    0.025503           0.588        24.861       1.699
   14      635.697 ||    0.108896           2.512       106.157       7.253
   15      976.487 ||    0.251361           5.799       245.039      16.742
   16     1013.032 ||    0.015989           0.369        15.587       1.065
   17     1040.326 ||    0.461920          10.657       450.302      30.767
   18     1091.323 ||    0.501774          11.576       489.154      33.422
   19     1226.187 ||    0.173670           4.007       169.302      11.568
   20     1252.610 ||    0.242822           5.602       236.715      16.174
   21     1405.928 ||    0.543918          12.549       530.238      36.229
   22     1560.047 ||    0.375361           8.660       365.921      25.002
   23     1576.800 ||    0.007114           0.164         6.935       0.474
   24     2639.915 ||    0.645389          14.890       629.157      42.988
 ----------------------------------------------------------------------------



 vib:animation  F

 Task  times  cpu:     1219.6s     wall:     1238.7s
 
 
                                NWChem Input Module
                                -------------------
 
 
 Summary of allocated global arrays
-----------------------------------
  No active global arrays



                         GA Statistics for process    0
                         ------------------------------

       create   destroy   get      put      acc     scatter   gather  read&inc
calls: 1.16e+04 1.16e+04 3.34e+06 1.62e+05 5.56e+05    0        0     6.46e+04 
number of processes/call 1.09e+00 1.52e+00 1.03e+00 0.00e+00 0.00e+00
bytes total:             1.72e+10 7.07e+08 2.95e+09 0.00e+00 0.00e+00 5.17e+05
bytes remote:            1.15e+10 2.19e+08 1.98e+09 0.00e+00 0.00e+00 0.00e+00
Max memory consumed for GA by this process: 3998208 bytes
 
MA_summarize_allocated_blocks: starting scan ...
MA_summarize_allocated_blocks: scan completed: 0 heap blocks, 0 stack blocks
MA usage statistics:

	allocation statistics:
					      heap	     stack
					      ----	     -----
	current number of blocks	         0	         0
	maximum number of blocks	        25	        54
	current total bytes		         0	         0
	maximum total bytes		   1803976	  33589032
	maximum total K-bytes		      1804	     33590
	maximum total M-bytes		         2	        34
 
 
                                     CITATION
                                     --------
                Please cite the following reference when publishing
                           results obtained with NWChem:
 
                 M. Valiev, E.J. Bylaska, N. Govind, K. Kowalski,
              T.P. Straatsma, H.J.J. van Dam, D. Wang, J. Nieplocha,
                        E. Apra, T.L. Windus, W.A. de Jong
                 "NWChem: a comprehensive and scalable open-source
                  solution for large scale molecular simulations"
                      Comput. Phys. Commun. 181, 1477 (2010)
                           doi:10.1016/j.cpc.2010.04.018
 
                                      AUTHORS
                                      -------
          E. Apra, E. J. Bylaska, W. A. de Jong, N. Govind, K. Kowalski,
       T. P. Straatsma, M. Valiev, H. J. J. van Dam, D. Wang, T. L. Windus,
        J. Hammond, J. Autschbach, K. Bhaskaran-Nair, J. Brabec, K. Lopata,
        S. Krishnamoorthy, W. Ma, M. Klemm, O. Villa, Y. Chen, V. Anisimov,
    F. Aquino, S. Hirata, M. T. Hackler, T. Risthaus, M. Malagoli, A. Marenich,
   A. Otero-de-la-Roza, J. Mullin, P. Nichols, R. Peverati, J. Pittner, Y. Zhao,
         P.-D. Fan, A. Fonari, R. J. Harrison, M. Dupuis, D. Silverstein,
    D. M. A. Smith, J. Nieplocha, V. Tipparaju, M. Krishnan, B. E. Van Kuiken,
        A. Vazquez-Mayagoitia, L. Jensen, M. Swart, Q. Wu, T. Van Voorhis,
     A. A. Auer, M. Nooijen, L. D. Crosby, E. Brown, G. Cisneros, G. I. Fann,
   H. Fruchtl, J. Garza, K. Hirao, R. A. Kendall, J. A. Nichols, K. Tsemekhman,
    K. Wolinski, J. Anchell, D. E. Bernholdt, P. Borowski, T. Clark, D. Clerc,
   H. Dachsel, M. J. O. Deegan, K. Dyall, D. Elwood, E. Glendening, M. Gutowski,
   A. C. Hess, J. Jaffe, B. G. Johnson, J. Ju, R. Kobayashi, R. Kutteh, Z. Lin,
   R. Littlefield, X. Long, B. Meng, T. Nakajima, S. Niu, L. Pollack, M. Rosing,
   K. Glaesemann, G. Sandrone, M. Stave, H. Taylor, G. Thomas, J. H. van Lenthe,
                               A. T. Wong, Z. Zhang.

 Total times  cpu:     1883.9s     wall:     1916.5s
