 argument  1 = /data/edo/nwchem/nwchem_libstdcpp-error/QA/tests/dft_he2p_wb97/dft_he2p_wb97.nw
  NWChem w/ OpenMP: maximum threads =    1
 


============================== echo of input deck ==============================
echo
start he2p_wb97

charge +1
#table XI of doi:10.1063/1.2834918
# De = E_X plus E_Xp minus E_X2p,re
#aqz: 627.51*(5.013221096134-1.996190983271-2.902521085929)=71.855
#atz: 627.51*(5.012259194211-1.995410367049-2.902074114773)=72.022


geometry he
he 0.   0.  0.
end
geometry he2
he 0.   0.6 0.
he 0.  -0.6 0.
end

basis "ao basis" spherical
* library aug-cc-pvtz
#in the paper * library aug-cc-pvqz
end

set geometry he2
dft
mult 2
xc wb97
grid fine
convergence energy 1d-9
noprint "final vectors analysis" multipole
end
task dft optimize

set geometry he
dft
mult 2
end
task dft

charge 0
dft
mult 1
end
task dft
================================================================================


                                         
                                         
 
 
             Northwest Computational Chemistry Package (NWChem) 7.3.1
             --------------------------------------------------------
 
 
                    Environmental Molecular Sciences Laboratory
                       Pacific Northwest National Laboratory
                                Richland, WA 99352
 
                              Copyright (c) 1994-2025
                       Pacific Northwest National Laboratory
                            Battelle Memorial Institute
 
             NWChem is an open-source computational chemistry package
                        distributed under the terms of the
                      Educational Community License (ECL) 2.0
             A copy of the license is included with this distribution
                              in the LICENSE.TXT file
 
                                  ACKNOWLEDGMENT
                                  --------------

            This software and its documentation were developed at the
            EMSL at Pacific Northwest National Laboratory, a multiprogram
            national laboratory, operated for the U.S. Department of Energy
            by Battelle under Contract Number DE-AC05-76RL01830. Support
            for this work was provided by the Department of Energy Office
            of Biological and Environmental Research, Office of Basic
            Energy Sciences, and the Office of Advanced Scientific Computing.


           Job information
           ---------------

    hostname        = mica
    program         = /data/edo/nwchem/nwchem_libstdcpp-error/bin/LINUX64/nwchem
    date            = Mon Jan 26 16:17:18 2026

    compiled        = Mon_Jan_26_16:08:21_2026
    source          = /data/edo/nwchem/nwchem_libstdcpp-error
    nwchem branch   = 7.3.1
    nwchem revision = v7.2.0-beta1-1748-g62ee6c31a1
    ga revision     = 5.9.2
    use scalapack   = T
    input           = /data/edo/nwchem/nwchem_libstdcpp-error/QA/tests/dft_he2p_wb97/dft_he2p_wb97.nw
    prefix          = he2p_wb97.
    data base       = ./he2p_wb97.db
    status          = startup
    nproc           =        4
    time left       =     -1s



           Memory information
           ------------------

    heap     =     26214400 doubles =      200.0 Mbytes
    stack    =     26214397 doubles =      200.0 Mbytes
    global   =     52428800 doubles =      400.0 Mbytes (distinct from heap & stack)
    total    =    104857597 doubles =      800.0 Mbytes
    verify   = yes
    hardfail = no 


           Directory information
           ---------------------
 
  0 permanent = .
  0 scratch   = .
 
 
 
 
                                NWChem Input Module
                                -------------------
 
 

 Scaling coordinates for geometry "he" by  1.889725989
 (inverse scale =  0.529177249)

 
 
                                Geometry "he" -> ""
                                -------------------
 
 Output coordinates in angstroms (scale by  1.889725989 to convert to a.u.)
 
  No.       Tag          Charge          X              Y              Z
 ---- ---------------- ---------- -------------- -------------- --------------
    1 he                   2.0000     0.00000000     0.00000000     0.00000000
 
      Atomic Mass 
      ----------- 
 
      he                 4.002600
 

 Effective nuclear repulsion energy (a.u.)       0.0000000000

            Nuclear Dipole moment (a.u.) 
            ----------------------------
        X                 Y               Z
 ---------------- ---------------- ----------------
     0.0000000000     0.0000000000     0.0000000000
 
 
            XYZ format geometry
            -------------------
     1
 he
 he                    0.00000000     0.00000000     0.00000000
 

 Scaling coordinates for geometry "he2" by  1.889725989
 (inverse scale =  0.529177249)

 ORDER OF PRIMARY AXIS IS BEING SET TO 4
 D4H symmetry detected

          ------
          auto-z
          ------
     1 autoz failed with cvr_scaling = 1.2 changing to 1.3
     2 autoz failed with cvr_scaling = 1.3 changing to 1.4
     3 autoz failed with cvr_scaling = 1.4 changing to 1.5
     4 autoz failed with cvr_scaling = 1.5 changing to 1.6
  no constraints, skipping   0.000000000000000E+000
  no constraints, skipping   0.000000000000000E+000
 
 
                              Geometry "he2" -> "  "
                              ----------------------
 
 Output coordinates in angstroms (scale by  1.889725989 to convert to a.u.)
 
  No.       Tag          Charge          X              Y              Z
 ---- ---------------- ---------- -------------- -------------- --------------
    1 he                   2.0000     0.00000000     0.00000000     0.60000000
    2 he                   2.0000     0.00000000     0.00000000    -0.60000000
 
      Atomic Mass 
      ----------- 
 
      he                 4.002600
 

 Effective nuclear repulsion energy (a.u.)       1.7639241633

            Nuclear Dipole moment (a.u.) 
            ----------------------------
        X                 Y               Z
 ---------------- ---------------- ----------------
     0.0000000000     0.0000000000     0.0000000000
 
      Symmetry information
      --------------------
 
 Group name             D4h       
 Group number             28
 Group order              16
 No. of unique centers     1
 
      Symmetry unique atoms
 
     1
 


                                Z-matrix (autoz)
                                -------- 

 Units are Angstrom for bonds and degrees for angles
 
      Type          Name      I     J     K     L     M      Value
      ----------- --------  ----- ----- ----- ----- ----- ----------
    1 Stretch                  1     2                       1.20000
 
 
            XYZ format geometry
            -------------------
     2
 he2
 he                    0.00000000     0.00000000     0.60000000
 he                    0.00000000     0.00000000    -0.60000000
 


 Summary of "ao basis" -> "" (spherical)
 ------------------------------------------------------------------------------
       Tag                 Description            Shells   Functions and Types
 ---------------- ------------------------------  ------  ---------------------
 *                        aug-cc-pvtz                 on all atoms 


 
 
                           NWChem Geometry Optimization
                           ----------------------------
 
 
  no constraints, skipping   0.000000000000000E+000
 maximum gradient threshold         (gmax) =   0.000450
 rms gradient threshold             (grms) =   0.000300
 maximum cartesian step threshold   (xmax) =   0.001800
 rms cartesian step threshold       (xrms) =   0.001200
 fixed trust radius                (trust) =   0.300000
 maximum step size to saddle      (sadstp) =   0.100000
 energy precision                  (eprec) =   5.0D-06
 maximum number of steps          (nptopt) =   40
 initial hessian option           (inhess) =    0
 line search option               (linopt) =    1
 hessian update option            (modupd) =    1
 saddle point option              (modsad) =    0
 initial eigen-mode to follow     (moddir) =    0
 initial variable to follow       (vardir) =    0
 follow first negative mode     (firstneg) =    T
 apply conjugacy                    (opcg) =    F
 source of zmatrix                         =   autoz   


          -------------------
          Energy Minimization
          -------------------

 
 Names of Z-matrix variables 
    1         
 
 Variables with the same non-blank name are constrained to be equal
 
 
 Using diagonal initial Hessian 
 Scaling for Hessian diagonals: bonds = 1.00  angles = 0.25  torsions = 0.10

          --------
          Step   0
          --------
 
 
                           Geometry "geometry" -> "he2"
                           ----------------------------
 
 Output coordinates in angstroms (scale by  1.889725989 to convert to a.u.)
 
  No.       Tag          Charge          X              Y              Z
 ---- ---------------- ---------- -------------- -------------- --------------
    1 he                   2.0000     0.00000000     0.00000000     0.60000000
    2 he                   2.0000     0.00000000     0.00000000    -0.60000000
 
      Atomic Mass 
      ----------- 
 
      he                 4.002600
 

 Effective nuclear repulsion energy (a.u.)       1.7639241633

            Nuclear Dipole moment (a.u.) 
            ----------------------------
        X                 Y               Z
 ---------------- ---------------- ----------------
     0.0000000000     0.0000000000     0.0000000000
 
      Symmetry information
      --------------------
 
 Group name             D4h       
 Group number             28
 Group order              16
 No. of unique centers     1
 
      Symmetry unique atoms
 
     1
 
 
                                 NWChem DFT Module
                                 -----------------
 
 
                      Basis "ao basis" -> "ao basis" (spherical)
                      -----
  he (Helium)
  -----------
            Exponent  Coefficients 
       -------------- ---------------------------------------------------------
  1 S  2.34000000E+02  0.002587
  1 S  3.51600000E+01  0.019533
  1 S  7.98900000E+00  0.090998
  1 S  2.21200000E+00  0.272050
 
  2 S  6.66900000E-01  1.000000
 
  3 S  2.08900000E-01  1.000000
 
  4 S  5.13800000E-02  1.000000
 
  5 P  3.04400000E+00  1.000000
 
  6 P  7.58000000E-01  1.000000
 
  7 P  1.99300000E-01  1.000000
 
  8 D  1.96500000E+00  1.000000
 
  9 D  4.59200000E-01  1.000000
 


 Summary of "ao basis" -> "ao basis" (spherical)
 ------------------------------------------------------------------------------
       Tag                 Description            Shells   Functions and Types
 ---------------- ------------------------------  ------  ---------------------
 he                       aug-cc-pvtz                9       23   4s3p2d




 Summary of "ao basis" -> "ao basis" (spherical)
 ------------------------------------------------------------------------------
       Tag                 Description            Shells   Functions and Types
 ---------------- ------------------------------  ------  ---------------------
 he                       aug-cc-pvtz                9       23   4s3p2d


      Symmetry analysis of basis
      --------------------------
 
        a1g         9
        a1u         0
        a2g         0
        a2u         9
        b1g         2
        b1u         2
        b2g         2
        b2u         2
        eg         10
        eu         10
 
  int_init: cando_txs set to always be  F
  Caching 1-el integrals 
  itol2e modified to match energy
  convergence criterion.
  tol_rho modified to match energy
  convergence criterion.
 
            General Information
            -------------------
          SCF calculation type: DFT
          Wavefunction type:  spin polarized.
          No. of atoms     :     2
          No. of electrons :     3
           Alpha electrons :     2
            Beta electrons :     1
          Charge           :     1
          Spin multiplicity:     2
          Use of symmetry is: on ; symmetry adaption is: on 
          Maximum number of iterations:  50
          This is a Direct SCF calculation.
          AO basis - number of functions:    46
                     number of shells:    18
          Convergence on energy requested:  1.00D-09
          Convergence on density requested:  1.00D-05
          Convergence on gradient requested:  5.00D-04
 
              XC Information
              --------------
                        wb97  Method XC Functional
                     Hartree-Fock (Exact) Exchange  1.000          
                          wb97 Exchange Functional  1.000          
                       wb97 Correlation Functional  1.000          
 
           Range-Separation Parameters        
           ---------------------------
           Alpha           :  0.00
           Beta            :  1.00
           Gamma           :  0.40
           Short-Range HF  :     F
 
             Grid Information
             ----------------
          Grid used for XC integration:  fine      
          Radial quadrature: Mura-Knowles        
          Angular quadrature: Lebedev. 
          Tag              B.-S. Rad. Rad. Pts. Rad. Cut. Ang. Pts.
          ---              ---------- --------- --------- ---------
          he                  0.35       70          10.0       590
          Grid pruning is: on 
          Number of quadrature shells:    70
          Spatial weights used:  Erf1
 
          Convergence Information
          -----------------------
          Convergence aids based upon iterative change in 
          total energy or number of iterations. 
          Levelshifting, if invoked, occurs when the 
          HOMO/LUMO gap drops below (HL_TOL):  1.00D-02
          DIIS, if invoked, will attempt to extrapolate 
          using up to (NFOCK): 10 stored Fock matrices.

                    Damping( 0%)  Levelshifting(0.5)       DIIS
                  --------------- ------------------- ---------------
          dE  on:    start            ASAP                start   
          dE off:    2 iters         50 iters            50 iters 

 
      Screening Tolerance Information
      -------------------------------
          Density screening/tol_rho:  1.00D-12
          AO Gaussian exp screening on grid/accAOfunc:  21
          CD Gaussian exp screening on grid/accCDfunc:  20
          XC Gaussian exp screening on grid/accXCfunc:  20
          Schwarz screening/accCoul:  1.00D-10

 
      Superposition of Atomic Density Guess
      -------------------------------------
 
 Sum of atomic energies:          -5.72236685

 Renormalizing density from       4.00 to      3
 
      Non-variational initial energy
      ------------------------------

 Total energy =      -4.620648
 1-e energy   =      -8.464043
 2-e energy   =       2.079471
 HOMO         =      -1.180156
 LUMO         =      -0.133902
 
 
   Symmetry analysis of molecular orbitals - initial alpha
   -------------------------------------------------------
 

 !! scf_movecs_sym_adapt:    8 vectors were symmetry contaminated

  Symmetry fudging

 !! scf_movecs_sym_adapt:    4 vectors were symmetry contaminated

  Numbering of irreducible representations: 
 
     1 a1g         2 a1u         3 a2g         4 a2u         5 b1g     
     6 b1u         7 b2g         8 b2u         9 eg         10 eu      
 
  Orbital symmetries:
 
     1 a1g         2 a2u         3 a1g         4 a2u         5 eu      
     6 eu          7 a1g         8 eg          9 eg         10 a2u     
    11 a1g        12 a2u     
 
 
   Symmetry analysis of molecular orbitals - initial beta
   ------------------------------------------------------
 

 !! scf_movecs_sym_adapt:    8 vectors were symmetry contaminated

  Symmetry fudging

 !! scf_movecs_sym_adapt:    4 vectors were symmetry contaminated

  Numbering of irreducible representations: 
 
     1 a1g         2 a1u         3 a2g         4 a2u         5 b1g     
     6 b1u         7 b2g         8 b2u         9 eg         10 eu      
 
  Orbital symmetries:
 
     1 a1g         2 a2u         3 a1g         4 a2u         5 eu      
     6 eu          7 a1g         8 eg          9 eg         10 a2u     
    11 a1g        12 a2u     
 
   Time after variat. SCF:      0.7
   Time prior to 1st pass:      0.7
 Local filesystem for scratch_dir

 Grid_pts file          = ./he2p_wb97.gridpts.0
 Record size in doubles =  12289        No. of grid_pts per rec  =   3070
 Max. records in memory =      5        Max. recs in file   =   3153419


           Memory utilization after 1st SCF pass: 
           Heap Space remaining (MW):       26.15            26152264
          Stack Space remaining (MW):       26.21            26213900

   convergence    iter        energy       DeltaE   RMS-Dens  Diis-err    time
 ---------------- ----- ----------------- --------- --------- ---------  ------
 d= 0,ls=0.0,diis     1     -5.0027223295 -6.77D+00  2.17D-03  5.00D-02     1.2
                                                     3.64D-04  2.88D-03
 d= 0,ls=0.0,diis     2     -5.0112212559 -8.50D-03  2.86D-04  3.20D-04     1.7
                                                     1.38D-04  5.19D-04
 d= 0,ls=0.0,diis     3     -5.0114138474 -1.93D-04  6.89D-05  1.43D-05     2.2
                                                     4.45D-05  2.01D-05
 d= 0,ls=0.0,diis     4     -5.0114236688 -9.82D-06  2.27D-06  2.05D-08     2.7
                                                     4.27D-06  7.39D-08
 d= 0,ls=0.0,diis     5     -5.0114237038 -3.49D-08  2.33D-07  8.94D-11     3.2
                                                     1.52D-07  2.24D-10
 d= 0,ls=0.0,diis     6     -5.0114237039 -1.27D-10  1.83D-08  2.13D-12     3.7
                                                     1.20D-08  1.77D-12


         Total DFT energy =       -5.011423703891
      One electron energy =       -8.676723818140
           Coulomb energy =        3.542839958419
    Exchange-Corr. energy =       -1.641464007501
 Nuclear repulsion energy =        1.763924163332

 Numeric. integr. density =        3.000000035713

     Total iterative time =      3.0s


 
                  Occupations of the irreducible representations
                  ----------------------------------------------
 
                     irrep           alpha         beta
                     --------     --------     --------
                     a1g               1.0          1.0
                     a1u               0.0          0.0
                     a2g               0.0          0.0
                     a2u               1.0          0.0
                     b1g               0.0          0.0
                     b1u               0.0          0.0
                     b2g               0.0          0.0
                     b2u               0.0          0.0
                     eg                0.0          0.0
                     eu                0.0          0.0
 

   alpha - beta orbital overlaps 
   ----------------------------- 


   alpha      1      2      3      4      5      6      7      8      9     10
    beta      1      2      3      4      5      6      7      8      9     10
 overlap   0.999  0.998  0.999  0.998  0.973  0.973  0.999  0.998  0.998  0.998


   alpha     11     12     13     14     15     16     17     18     19     20
    beta     11     12     14     13     15     16     17     18     19     21
 overlap   0.999  0.999  1.000  1.000  0.998  0.998  0.999  1.000  1.000  0.987


   alpha     21     22     23     24     25     26     27     28     29     30
    beta     22     20     23     24     25     27     26     28     29     30
 overlap   0.987  1.000  0.985  0.985  1.000  0.996  0.996  1.000  1.000  1.000


   alpha     31     32     33     34     35     36     37     38     39     40
    beta     31     32     33     35     34     37     36     38     39     41
 overlap   1.000  0.992  0.992  1.000  1.000  1.000  1.000  0.964  0.964  0.848


   alpha     41     42     43     44     45     46
    beta     40     42     44     43     45     46
 overlap   0.848  1.000  0.992  0.992  1.000  1.000

     --------------------------
     Expectation value of S2:  
     --------------------------
      <S2> =      0.7526 (Exact =     0.7500)
 

 center of mass
 --------------
 x =   0.00000000 y =   0.00000000 z =   0.00000000

 moments of inertia (a.u.)
 ------------------
          10.291350250706           0.000000000000           0.000000000000
           0.000000000000          10.291350250706           0.000000000000
           0.000000000000           0.000000000000           0.000000000000
 
            General Information
            -------------------
          SCF calculation type: DFT
          Wavefunction type:  spin polarized.
          No. of atoms     :     2
          No. of electrons :     3
           Alpha electrons :     2
            Beta electrons :     1
          Charge           :     1
          Spin multiplicity:     2
          Use of symmetry is: on ; symmetry adaption is: on 
          Maximum number of iterations:  50
          This is a Direct SCF calculation.
          AO basis - number of functions:    46
                     number of shells:    18
          Convergence on energy requested:  1.00D-09
          Convergence on density requested:  1.00D-05
          Convergence on gradient requested:  5.00D-04
 
              XC Information
              --------------
                        wb97  Method XC Functional
                     Hartree-Fock (Exact) Exchange  1.000          
                          wb97 Exchange Functional  1.000          
                       wb97 Correlation Functional  1.000          
 
           Range-Separation Parameters        
           ---------------------------
           Alpha           :  0.00
           Beta            :  1.00
           Gamma           :  0.40
           Short-Range HF  :     F
 
             Grid Information
             ----------------
          Grid used for XC integration:  fine      
          Radial quadrature: Mura-Knowles        
          Angular quadrature: Lebedev. 
          Tag              B.-S. Rad. Rad. Pts. Rad. Cut. Ang. Pts.
          ---              ---------- --------- --------- ---------
          he                  0.35       70          10.0       590
          Grid pruning is: on 
          Number of quadrature shells:    70
          Spatial weights used:  Erf1
 
          Convergence Information
          -----------------------
          Convergence aids based upon iterative change in 
          total energy or number of iterations. 
          Levelshifting, if invoked, occurs when the 
          HOMO/LUMO gap drops below (HL_TOL):  1.00D-02
          DIIS, if invoked, will attempt to extrapolate 
          using up to (NFOCK): 10 stored Fock matrices.

                    Damping( 0%)  Levelshifting(0.5)       DIIS
                  --------------- ------------------- ---------------
          dE  on:    start            ASAP                start   
          dE off:    2 iters         50 iters            50 iters 

 
      Screening Tolerance Information
      -------------------------------
          Density screening/tol_rho:  1.00D-12
          AO Gaussian exp screening on grid/accAOfunc:  21
          CD Gaussian exp screening on grid/accCDfunc:  20
          XC Gaussian exp screening on grid/accXCfunc:  20
          Schwarz screening/accCoul:  1.00D-10

  int_init: cando_txs set to always be  F
  intd_init: cando_txs set to always be  F
 
 
                            NWChem DFT Gradient Module
                            --------------------------
 
 

  charge          =   1.00
  wavefunction    = open shell

  Using symmetry
  int_init: cando_txs set to always be  F
  intd_init: cando_txs set to always be  F


                         DFT ENERGY GRADIENTS

    atom               coordinates                        gradient
                 x          y          z           x          y          z
   1 he      0.000000   0.000000   1.133836    0.000000   0.000000   0.014132
   2 he      0.000000   0.000000  -1.133836    0.000000   0.000000  -0.014132
 
                 ----------------------------------------
                 |  Time  |  1-e(secs)   |  2-e(secs)   |
                 ----------------------------------------
                 |  CPU   |       0.00   |       0.30   |
                 ----------------------------------------
                 |  WALL  |       0.00   |       0.30   |
                 ----------------------------------------
  no constraints, skipping   0.000000000000000E+000

@ Step       Energy      Delta E   Gmax     Grms     Xrms     Xmax   Walltime
@ ---- ---------------- -------- -------- -------- -------- -------- --------
@    0      -5.01142370  0.0D+00  0.01413  0.01413  0.00000  0.00000      4.2
                                                                    



                                Z-matrix (autoz)
                                -------- 

 Units are Angstrom for bonds and degrees for angles
 
      Type          Name      I     J     K     L     M      Value     Gradient
      ----------- --------  ----- ----- ----- ----- ----- ---------- ----------
    1 Stretch                  1     2                       1.20000    0.01413
 
  no constraints, skipping   0.000000000000000E+000
  no constraints, skipping   0.000000000000000E+000
  no constraints, skipping   0.000000000000000E+000
 
                                 NWChem DFT Module
                                 -----------------
 
 


 Summary of "ao basis" -> "ao basis" (spherical)
 ------------------------------------------------------------------------------
       Tag                 Description            Shells   Functions and Types
 ---------------- ------------------------------  ------  ---------------------
 he                       aug-cc-pvtz                9       23   4s3p2d


      Symmetry analysis of basis
      --------------------------
 
        a1g         9
        a1u         0
        a2g         0
        a2u         9
        b1g         2
        b1u         2
        b2g         2
        b2u         2
        eg         10
        eu         10
 
  int_init: cando_txs set to always be  F
  Caching 1-el integrals 
 
            General Information
            -------------------
          SCF calculation type: DFT
          Wavefunction type:  spin polarized.
          No. of atoms     :     2
          No. of electrons :     3
           Alpha electrons :     2
            Beta electrons :     1
          Charge           :     1
          Spin multiplicity:     2
          Use of symmetry is: on ; symmetry adaption is: on 
          Maximum number of iterations:  50
          This is a Direct SCF calculation.
          AO basis - number of functions:    46
                     number of shells:    18
          Convergence on energy requested:  1.00D-09
          Convergence on density requested:  1.00D-05
          Convergence on gradient requested:  5.00D-04
 
              XC Information
              --------------
                        wb97  Method XC Functional
                     Hartree-Fock (Exact) Exchange  1.000          
                          wb97 Exchange Functional  1.000          
                       wb97 Correlation Functional  1.000          
 
           Range-Separation Parameters        
           ---------------------------
           Alpha           :  0.00
           Beta            :  1.00
           Gamma           :  0.40
           Short-Range HF  :     F
 
             Grid Information
             ----------------
          Grid used for XC integration:  fine      
          Radial quadrature: Mura-Knowles        
          Angular quadrature: Lebedev. 
          Tag              B.-S. Rad. Rad. Pts. Rad. Cut. Ang. Pts.
          ---              ---------- --------- --------- ---------
          he                  0.35       70           9.0       590
          Grid pruning is: on 
          Number of quadrature shells:    70
          Spatial weights used:  Erf1
 
          Convergence Information
          -----------------------
          Convergence aids based upon iterative change in 
          total energy or number of iterations. 
          Levelshifting, if invoked, occurs when the 
          HOMO/LUMO gap drops below (HL_TOL):  1.00D-02
          DIIS, if invoked, will attempt to extrapolate 
          using up to (NFOCK): 10 stored Fock matrices.

                    Damping( 0%)  Levelshifting(0.5)       DIIS
                  --------------- ------------------- ---------------
          dE  on:    start            ASAP                start   
          dE off:    2 iters         50 iters            50 iters 

 
      Screening Tolerance Information
      -------------------------------
          Density screening/tol_rho:  1.00D-12
          AO Gaussian exp screening on grid/accAOfunc:  21
          CD Gaussian exp screening on grid/accCDfunc:  20
          XC Gaussian exp screening on grid/accXCfunc:  20
          Schwarz screening/accCoul:  1.00D-10


 Loading old vectors from job with title :



 
   Symmetry analysis of molecular orbitals - initial alpha
   -------------------------------------------------------
 
  Numbering of irreducible representations: 
 
     1 a1g         2 a1u         3 a2g         4 a2u         5 b1g     
     6 b1u         7 b2g         8 b2u         9 eg         10 eu      
 
  Orbital symmetries:
 
     1 a1g         2 a2u         3 a1g         4 a2u         5 eu      
     6 eu          7 a1g         8 eg          9 eg         10 a2u     
    11 a1g        12 a2u     
 
 
   Symmetry analysis of molecular orbitals - initial beta
   ------------------------------------------------------
 
  Numbering of irreducible representations: 
 
     1 a1g         2 a1u         3 a2g         4 a2u         5 b1g     
     6 b1u         7 b2g         8 b2u         9 eg         10 eu      
 
  Orbital symmetries:
 
     1 a1g         2 a2u         3 a1g         4 a2u         5 eu      
     6 eu          7 a1g         8 eg          9 eg         10 a2u     
    11 a1g        12 a2u     
 
   Time after variat. SCF:      4.4
   Time prior to 1st pass:      4.4
 Local filesystem for scratch_dir

 Grid_pts file          = ./he2p_wb97.gridpts.0
 Record size in doubles =  12289        No. of grid_pts per rec  =   3070
 Max. records in memory =      5        Max. recs in file   =   3153419


           Memory utilization after 1st SCF pass: 
           Heap Space remaining (MW):       26.15            26152264
          Stack Space remaining (MW):       26.21            26213900

   convergence    iter        energy       DeltaE   RMS-Dens  Diis-err    time
 ---------------- ----- ----------------- --------- --------- ---------  ------
 d= 0,ls=0.0,diis     1     -5.0120376780 -6.83D+00  1.59D-04  2.71D-04     4.9
                                                     9.56D-05  1.86D-04
 d= 0,ls=0.0,diis     2     -5.0121208199 -8.31D-05  3.39D-05  5.76D-06     5.4
                                                     2.29D-05  3.11D-06
 d= 0,ls=0.0,diis     3     -5.0121234260 -2.61D-06  4.62D-06  8.82D-08     5.9
                                                     4.46D-06  1.07D-07
 d= 0,ls=0.0,diis     4     -5.0121234977 -7.17D-08  5.43D-07  9.64D-10     6.4
                                                     4.48D-07  1.02D-09
 d= 0,ls=0.0,diis     5     -5.0121234985 -7.98D-10  5.72D-08  6.55D-12     6.9
                                                     1.80D-08  3.01D-12


         Total DFT energy =       -5.012123498484
      One electron energy =       -8.761103923091
           Coulomb energy =        3.578615092386
    Exchange-Corr. energy =       -1.647788823127
 Nuclear repulsion energy =        1.818154155348

 Numeric. integr. density =        3.000000009737

     Total iterative time =      2.5s


 
                  Occupations of the irreducible representations
                  ----------------------------------------------
 
                     irrep           alpha         beta
                     --------     --------     --------
                     a1g               1.0          1.0
                     a1u               0.0          0.0
                     a2g               0.0          0.0
                     a2u               1.0          0.0
                     b1g               0.0          0.0
                     b1u               0.0          0.0
                     b2g               0.0          0.0
                     b2u               0.0          0.0
                     eg                0.0          0.0
                     eu                0.0          0.0
 

   alpha - beta orbital overlaps 
   ----------------------------- 


   alpha      1      2      3      4      5      6      7      8      9     10
    beta      1      2      3      4      5      6      7      8      9     10
 overlap   0.999  0.998  0.999  0.998  0.977  0.977  0.999  0.940  0.940  0.998


   alpha     11     12     13     14     15     16     17     18     19     20
    beta     11     12     14     13     15     16     17     18     19     20
 overlap   0.999  0.999  1.000  1.000  0.787  0.787  0.999  1.000  1.000  0.753


   alpha     21     22     23     24     25     26     27     28     29     30
    beta     21     22     23     24     25     26     27     28     29     30
 overlap   0.753  1.000  0.892  0.892  1.000  0.750  0.750  1.000  1.000  1.000


   alpha     31     32     33     34     35     36     37     38     39     40
    beta     31     33     32     35     34     36     37     38     39     41
 overlap   1.000  0.960  0.960  1.000  1.000  1.000  1.000  0.972  0.972  0.991


   alpha     41     42     43     44     45     46
    beta     40     42     44     43     45     46
 overlap   0.991  1.000  0.735  0.735  1.000  1.000

     --------------------------
     Expectation value of S2:  
     --------------------------
      <S2> =      0.7525 (Exact =     0.7500)
 

 center of mass
 --------------
 x =   0.00000000 y =   0.00000000 z =   0.00000000

 moments of inertia (a.u.)
 ------------------
           9.686586752043           0.000000000000           0.000000000000
           0.000000000000           9.686586752043           0.000000000000
           0.000000000000           0.000000000000           0.000000000000
 Line search: 
     step= 1.00 grad=-9.6D-04 hess= 2.6D-04 energy=     -5.012123 mode=downhill
 new step= 1.87                   predicted energy=     -5.012316
  no constraints, skipping   0.000000000000000E+000
  no constraints, skipping   0.000000000000000E+000
  no constraints, skipping   0.000000000000000E+000

          --------
          Step   1
          --------
 
 
                           Geometry "geometry" -> "he2"
                           ----------------------------
 
 Output coordinates in angstroms (scale by  1.889725989 to convert to a.u.)
 
  No.       Tag          Charge          X              Y              Z
 ---- ---------------- ---------- -------------- -------------- --------------
    1 he                   2.0000     0.00000000     0.00000000     0.56660034
    2 he                   2.0000     0.00000000     0.00000000    -0.56660034
 
      Atomic Mass 
      ----------- 
 
      he                 4.002600
 

 Effective nuclear repulsion energy (a.u.)       1.8679030401

            Nuclear Dipole moment (a.u.) 
            ----------------------------
        X                 Y               Z
 ---------------- ---------------- ----------------
     0.0000000000     0.0000000000     0.0000000000
 
      Symmetry information
      --------------------
 
 Group name             D4h       
 Group number             28
 Group order              16
 No. of unique centers     1
 
      Symmetry unique atoms
 
     1
 
 
                                 NWChem DFT Module
                                 -----------------
 
 


 Summary of "ao basis" -> "ao basis" (spherical)
 ------------------------------------------------------------------------------
       Tag                 Description            Shells   Functions and Types
 ---------------- ------------------------------  ------  ---------------------
 he                       aug-cc-pvtz                9       23   4s3p2d


      Symmetry analysis of basis
      --------------------------
 
        a1g         9
        a1u         0
        a2g         0
        a2u         9
        b1g         2
        b1u         2
        b2g         2
        b2u         2
        eg         10
        eu         10
 
  int_init: cando_txs set to always be  F
  Caching 1-el integrals 
 
            General Information
            -------------------
          SCF calculation type: DFT
          Wavefunction type:  spin polarized.
          No. of atoms     :     2
          No. of electrons :     3
           Alpha electrons :     2
            Beta electrons :     1
          Charge           :     1
          Spin multiplicity:     2
          Use of symmetry is: on ; symmetry adaption is: on 
          Maximum number of iterations:  50
          This is a Direct SCF calculation.
          AO basis - number of functions:    46
                     number of shells:    18
          Convergence on energy requested:  1.00D-09
          Convergence on density requested:  1.00D-05
          Convergence on gradient requested:  5.00D-04
 
              XC Information
              --------------
                        wb97  Method XC Functional
                     Hartree-Fock (Exact) Exchange  1.000          
                          wb97 Exchange Functional  1.000          
                       wb97 Correlation Functional  1.000          
 
           Range-Separation Parameters        
           ---------------------------
           Alpha           :  0.00
           Beta            :  1.00
           Gamma           :  0.40
           Short-Range HF  :     F
 
             Grid Information
             ----------------
          Grid used for XC integration:  fine      
          Radial quadrature: Mura-Knowles        
          Angular quadrature: Lebedev. 
          Tag              B.-S. Rad. Rad. Pts. Rad. Cut. Ang. Pts.
          ---              ---------- --------- --------- ---------
          he                  0.35       70           9.0       590
          Grid pruning is: on 
          Number of quadrature shells:    70
          Spatial weights used:  Erf1
 
          Convergence Information
          -----------------------
          Convergence aids based upon iterative change in 
          total energy or number of iterations. 
          Levelshifting, if invoked, occurs when the 
          HOMO/LUMO gap drops below (HL_TOL):  1.00D-02
          DIIS, if invoked, will attempt to extrapolate 
          using up to (NFOCK): 10 stored Fock matrices.

                    Damping( 0%)  Levelshifting(0.5)       DIIS
                  --------------- ------------------- ---------------
          dE  on:    start            ASAP                start   
          dE off:    2 iters         50 iters            50 iters 

 
      Screening Tolerance Information
      -------------------------------
          Density screening/tol_rho:  1.00D-12
          AO Gaussian exp screening on grid/accAOfunc:  21
          CD Gaussian exp screening on grid/accCDfunc:  20
          XC Gaussian exp screening on grid/accXCfunc:  20
          Schwarz screening/accCoul:  1.00D-10


 Loading old vectors from job with title :



 
   Symmetry analysis of molecular orbitals - initial alpha
   -------------------------------------------------------
 
  Numbering of irreducible representations: 
 
     1 a1g         2 a1u         3 a2g         4 a2u         5 b1g     
     6 b1u         7 b2g         8 b2u         9 eg         10 eu      
 
  Orbital symmetries:
 
     1 a1g         2 a2u         3 a1g         4 a2u         5 eu      
     6 eu          7 a1g         8 eg          9 eg         10 a2u     
    11 a1g        12 a2u     
 
 
   Symmetry analysis of molecular orbitals - initial beta
   ------------------------------------------------------
 
  Numbering of irreducible representations: 
 
     1 a1g         2 a1u         3 a2g         4 a2u         5 b1g     
     6 b1u         7 b2g         8 b2u         9 eg         10 eu      
 
  Orbital symmetries:
 
     1 a1g         2 a2u         3 a1g         4 a2u         5 eu      
     6 eu          7 a1g         8 eg          9 eg         10 a2u     
    11 a1g        12 a2u     
 
   Time after variat. SCF:      7.2
   Time prior to 1st pass:      7.2
 Local filesystem for scratch_dir

 Grid_pts file          = ./he2p_wb97.gridpts.0
 Record size in doubles =  12289        No. of grid_pts per rec  =   3070
 Max. records in memory =      5        Max. recs in file   =   3153419


           Memory utilization after 1st SCF pass: 
           Heap Space remaining (MW):       26.15            26152264
          Stack Space remaining (MW):       26.21            26213900

   convergence    iter        energy       DeltaE   RMS-Dens  Diis-err    time
 ---------------- ----- ----------------- --------- --------- ---------  ------
 d= 0,ls=0.0,diis     1     -5.0121621008 -6.88D+00  1.58D-04  2.54D-04     7.7
                                                     8.83D-05  1.69D-04
 d= 0,ls=0.0,diis     2     -5.0122368191 -7.47D-05  3.36D-05  5.33D-06     8.2
                                                     2.14D-05  2.81D-06
 d= 0,ls=0.0,diis     3     -5.0122391998 -2.38D-06  4.57D-06  8.07D-08     8.7
                                                     4.22D-06  9.76D-08
 d= 0,ls=0.0,diis     4     -5.0122392653 -6.54D-08  5.34D-07  8.42D-10     9.2
                                                     4.18D-07  9.18D-10
 d= 0,ls=0.0,diis     5     -5.0122392660 -7.07D-10  6.04D-08  6.18D-12     9.7
                                                     2.01D-08  2.52D-12


         Total DFT energy =       -5.012239265959
      One electron energy =       -8.837622510619
           Coulomb energy =        3.611163516882
    Exchange-Corr. energy =       -1.653683312286
 Nuclear repulsion energy =        1.867903040064

 Numeric. integr. density =        3.000000024933

     Total iterative time =      2.5s


 
                  Occupations of the irreducible representations
                  ----------------------------------------------
 
                     irrep           alpha         beta
                     --------     --------     --------
                     a1g               1.0          1.0
                     a1u               0.0          0.0
                     a2g               0.0          0.0
                     a2u               1.0          0.0
                     b1g               0.0          0.0
                     b1u               0.0          0.0
                     b2g               0.0          0.0
                     b2u               0.0          0.0
                     eg                0.0          0.0
                     eu                0.0          0.0
 

   alpha - beta orbital overlaps 
   ----------------------------- 


   alpha      1      2      3      4      5      6      7      8      9     10
    beta      1      2      3      4      6      5      7      8      9     10
 overlap   0.999  0.998  0.999  0.998  0.961  0.961  0.999  0.892  0.892  0.998


   alpha     11     12     13     14     15     16     17     18     19     20
    beta     11     12     14     13     16     15     17     21     20     18
 overlap   0.999  0.999  1.000  1.000  0.855  0.855  0.999  0.876  0.876  1.000


   alpha     21     22     23     24     25     26     27     28     29     30
    beta     19     22     23     24     25     27     26     28     29     30
 overlap   1.000  1.000  0.844  0.844  1.000  0.884  0.884  1.000  1.000  1.000


   alpha     31     32     33     34     35     36     37     38     39     40
    beta     31     32     33     34     35     37     36     38     39     41
 overlap   1.000  0.990  0.990  1.000  1.000  1.000  1.000  0.826  0.826  0.965


   alpha     41     42     43     44     45     46
    beta     40     43     42     44     45     46
 overlap   0.965  1.000  1.000  1.000  1.000  1.000

     --------------------------
     Expectation value of S2:  
     --------------------------
      <S2> =      0.7523 (Exact =     0.7500)
 

 center of mass
 --------------
 x =   0.00000000 y =   0.00000000 z =   0.00000000

 moments of inertia (a.u.)
 ------------------
           9.177481551667           0.000000000000           0.000000000000
           0.000000000000           9.177481551667           0.000000000000
           0.000000000000           0.000000000000           0.000000000000
 
            General Information
            -------------------
          SCF calculation type: DFT
          Wavefunction type:  spin polarized.
          No. of atoms     :     2
          No. of electrons :     3
           Alpha electrons :     2
            Beta electrons :     1
          Charge           :     1
          Spin multiplicity:     2
          Use of symmetry is: on ; symmetry adaption is: on 
          Maximum number of iterations:  50
          This is a Direct SCF calculation.
          AO basis - number of functions:    46
                     number of shells:    18
          Convergence on energy requested:  1.00D-09
          Convergence on density requested:  1.00D-05
          Convergence on gradient requested:  5.00D-04
 
              XC Information
              --------------
                        wb97  Method XC Functional
                     Hartree-Fock (Exact) Exchange  1.000          
                          wb97 Exchange Functional  1.000          
                       wb97 Correlation Functional  1.000          
 
           Range-Separation Parameters        
           ---------------------------
           Alpha           :  0.00
           Beta            :  1.00
           Gamma           :  0.40
           Short-Range HF  :     F
 
             Grid Information
             ----------------
          Grid used for XC integration:  fine      
          Radial quadrature: Mura-Knowles        
          Angular quadrature: Lebedev. 
          Tag              B.-S. Rad. Rad. Pts. Rad. Cut. Ang. Pts.
          ---              ---------- --------- --------- ---------
          he                  0.35       70           9.0       590
          Grid pruning is: on 
          Number of quadrature shells:    70
          Spatial weights used:  Erf1
 
          Convergence Information
          -----------------------
          Convergence aids based upon iterative change in 
          total energy or number of iterations. 
          Levelshifting, if invoked, occurs when the 
          HOMO/LUMO gap drops below (HL_TOL):  1.00D-02
          DIIS, if invoked, will attempt to extrapolate 
          using up to (NFOCK): 10 stored Fock matrices.

                    Damping( 0%)  Levelshifting(0.5)       DIIS
                  --------------- ------------------- ---------------
          dE  on:    start            ASAP                start   
          dE off:    2 iters         50 iters            50 iters 

 
      Screening Tolerance Information
      -------------------------------
          Density screening/tol_rho:  1.00D-12
          AO Gaussian exp screening on grid/accAOfunc:  21
          CD Gaussian exp screening on grid/accCDfunc:  20
          XC Gaussian exp screening on grid/accXCfunc:  20
          Schwarz screening/accCoul:  1.00D-10

  int_init: cando_txs set to always be  F
  intd_init: cando_txs set to always be  F
 
 
                            NWChem DFT Gradient Module
                            --------------------------
 
 

  charge          =   1.00
  wavefunction    = open shell

  Using symmetry
  int_init: cando_txs set to always be  F
  intd_init: cando_txs set to always be  F


                         DFT ENERGY GRADIENTS

    atom               coordinates                        gradient
                 x          y          z           x          y          z
   1 he      0.000000   0.000000   1.070719    0.000000   0.000000  -0.002526
   2 he      0.000000   0.000000  -1.070719    0.000000  -0.000000   0.002526
 
                 ----------------------------------------
                 |  Time  |  1-e(secs)   |  2-e(secs)   |
                 ----------------------------------------
                 |  CPU   |       0.00   |       0.31   |
                 ----------------------------------------
                 |  WALL  |       0.00   |       0.31   |
                 ----------------------------------------
  no constraints, skipping   0.000000000000000E+000

  Step       Energy      Delta E   Gmax     Grms     Xrms     Xmax   Walltime
  ---- ---------------- -------- -------- -------- -------- -------- --------
@    1      -5.01223927 -8.2D-04  0.00253  0.00253  0.03644  0.06312     10.3
                                                                    



                                Z-matrix (autoz)
                                -------- 

 Units are Angstrom for bonds and degrees for angles
 
      Type          Name      I     J     K     L     M      Value     Gradient
      ----------- --------  ----- ----- ----- ----- ----- ---------- ----------
    1 Stretch                  1     2                       1.13320   -0.00253
 
  no constraints, skipping   0.000000000000000E+000
  no constraints, skipping   0.000000000000000E+000
  no constraints, skipping   0.000000000000000E+000
 
                                 NWChem DFT Module
                                 -----------------
 
 


 Summary of "ao basis" -> "ao basis" (spherical)
 ------------------------------------------------------------------------------
       Tag                 Description            Shells   Functions and Types
 ---------------- ------------------------------  ------  ---------------------
 he                       aug-cc-pvtz                9       23   4s3p2d


      Symmetry analysis of basis
      --------------------------
 
        a1g         9
        a1u         0
        a2g         0
        a2u         9
        b1g         2
        b1u         2
        b2g         2
        b2u         2
        eg         10
        eu         10
 
  int_init: cando_txs set to always be  F
  Caching 1-el integrals 
 
            General Information
            -------------------
          SCF calculation type: DFT
          Wavefunction type:  spin polarized.
          No. of atoms     :     2
          No. of electrons :     3
           Alpha electrons :     2
            Beta electrons :     1
          Charge           :     1
          Spin multiplicity:     2
          Use of symmetry is: on ; symmetry adaption is: on 
          Maximum number of iterations:  50
          This is a Direct SCF calculation.
          AO basis - number of functions:    46
                     number of shells:    18
          Convergence on energy requested:  1.00D-09
          Convergence on density requested:  1.00D-05
          Convergence on gradient requested:  5.00D-04
 
              XC Information
              --------------
                        wb97  Method XC Functional
                     Hartree-Fock (Exact) Exchange  1.000          
                          wb97 Exchange Functional  1.000          
                       wb97 Correlation Functional  1.000          
 
           Range-Separation Parameters        
           ---------------------------
           Alpha           :  0.00
           Beta            :  1.00
           Gamma           :  0.40
           Short-Range HF  :     F
 
             Grid Information
             ----------------
          Grid used for XC integration:  fine      
          Radial quadrature: Mura-Knowles        
          Angular quadrature: Lebedev. 
          Tag              B.-S. Rad. Rad. Pts. Rad. Cut. Ang. Pts.
          ---              ---------- --------- --------- ---------
          he                  0.35       70           9.0       590
          Grid pruning is: on 
          Number of quadrature shells:    70
          Spatial weights used:  Erf1
 
          Convergence Information
          -----------------------
          Convergence aids based upon iterative change in 
          total energy or number of iterations. 
          Levelshifting, if invoked, occurs when the 
          HOMO/LUMO gap drops below (HL_TOL):  1.00D-02
          DIIS, if invoked, will attempt to extrapolate 
          using up to (NFOCK): 10 stored Fock matrices.

                    Damping( 0%)  Levelshifting(0.5)       DIIS
                  --------------- ------------------- ---------------
          dE  on:    start            ASAP                start   
          dE off:    2 iters         50 iters            50 iters 

 
      Screening Tolerance Information
      -------------------------------
          Density screening/tol_rho:  1.00D-12
          AO Gaussian exp screening on grid/accAOfunc:  21
          CD Gaussian exp screening on grid/accCDfunc:  20
          XC Gaussian exp screening on grid/accXCfunc:  20
          Schwarz screening/accCoul:  1.00D-10


 Loading old vectors from job with title :



 
   Symmetry analysis of molecular orbitals - initial alpha
   -------------------------------------------------------
 
  Numbering of irreducible representations: 
 
     1 a1g         2 a1u         3 a2g         4 a2u         5 b1g     
     6 b1u         7 b2g         8 b2u         9 eg         10 eu      
 
  Orbital symmetries:
 
     1 a1g         2 a2u         3 a1g         4 a2u         5 eu      
     6 eu          7 a1g         8 eg          9 eg         10 a2u     
    11 a1g        12 a2u     
 
 
   Symmetry analysis of molecular orbitals - initial beta
   ------------------------------------------------------
 
  Numbering of irreducible representations: 
 
     1 a1g         2 a1u         3 a2g         4 a2u         5 b1g     
     6 b1u         7 b2g         8 b2u         9 eg         10 eu      
 
  Orbital symmetries:
 
     1 a1g         2 a2u         3 a1g         4 a2u         5 eu      
     6 eu          7 a1g         8 eg          9 eg         10 a2u     
    11 a1g        12 a2u     
 
   Time after variat. SCF:     10.5
   Time prior to 1st pass:     10.5
 Local filesystem for scratch_dir

 Grid_pts file          = ./he2p_wb97.gridpts.0
 Record size in doubles =  12289        No. of grid_pts per rec  =   3070
 Max. records in memory =      5        Max. recs in file   =   3153419


           Memory utilization after 1st SCF pass: 
           Heap Space remaining (MW):       26.15            26152264
          Stack Space remaining (MW):       26.21            26213900

   convergence    iter        energy       DeltaE   RMS-Dens  Diis-err    time
 ---------------- ----- ----------------- --------- --------- ---------  ------
 d= 0,ls=0.0,diis     1     -5.0122496372 -6.86D+00  5.35D-05  2.93D-05    11.0
                                                     2.97D-05  1.91D-05
 d= 0,ls=0.0,diis     2     -5.0122581012 -8.46D-06  1.14D-05  6.02D-07    11.5
                                                     7.26D-06  3.22D-07
 d= 0,ls=0.0,diis     3     -5.0122583715 -2.70D-07  1.54D-06  9.17D-09    12.0
                                                     1.43D-06  1.10D-08
 d= 0,ls=0.0,diis     4     -5.0122583789 -7.40D-09  1.76D-07  9.23D-11    12.5
                                                     1.38D-07  1.00D-10
 d= 0,ls=0.0,diis     5     -5.0122583789 -7.75D-11  1.99D-08  6.90D-13    13.0
                                                     6.69D-09  2.82D-13


         Total DFT energy =       -5.012258378936
      One electron energy =       -8.812268791127
           Coulomb energy =        3.600368965053
    Exchange-Corr. energy =       -1.651714105829
 Nuclear repulsion energy =        1.851355552967

 Numeric. integr. density =        3.000000021623

     Total iterative time =      2.5s


 
                  Occupations of the irreducible representations
                  ----------------------------------------------
 
                     irrep           alpha         beta
                     --------     --------     --------
                     a1g               1.0          1.0
                     a1u               0.0          0.0
                     a2g               0.0          0.0
                     a2u               1.0          0.0
                     b1g               0.0          0.0
                     b1u               0.0          0.0
                     b2g               0.0          0.0
                     b2u               0.0          0.0
                     eg                0.0          0.0
                     eu                0.0          0.0
 

   alpha - beta orbital overlaps 
   ----------------------------- 


   alpha      1      2      3      4      5      6      7      8      9     10
    beta      1      2      3      4      5      6      7      9      8     10
 overlap   0.999  0.998  0.999  0.998  0.971  0.971  0.999  0.869  0.869  0.998


   alpha     11     12     13     14     15     16     17     18     19     20
    beta     11     12     14     13     15     16     17     18     19     20
 overlap   0.999  0.999  1.000  1.000  0.921  0.921  0.999  1.000  1.000  0.819


   alpha     21     22     23     24     25     26     27     28     29     30
    beta     21     22     23     24     25     27     26     28     29     30
 overlap   0.819  1.000  0.989  0.989  1.000  0.714  0.714  1.000  1.000  1.000


   alpha     31     32     33     34     35     36     37     38     39     40
    beta     31     32     33     34     35     37     36     39     38     40
 overlap   1.000  0.728  0.728  1.000  1.000  1.000  1.000  0.999  0.999  0.997


   alpha     41     42     43     44     45     46
    beta     41     43     42     44     45     46
 overlap   0.997  0.994  0.994  1.000  1.000  1.000

     --------------------------
     Expectation value of S2:  
     --------------------------
      <S2> =      0.7524 (Exact =     0.7500)
 

 center of mass
 --------------
 x =   0.00000000 y =   0.00000000 z =   0.00000000

 moments of inertia (a.u.)
 ------------------
           9.342272092952           0.000000000000           0.000000000000
           0.000000000000           9.342272092952           0.000000000000
           0.000000000000           0.000000000000           0.000000000000
 Line search: 
     step= 1.00 grad=-4.8D-05 hess= 2.9D-05 energy=     -5.012258 mode=downhill
 new step= 0.83                   predicted energy=     -5.012259
  no constraints, skipping   0.000000000000000E+000
  no constraints, skipping   0.000000000000000E+000
  no constraints, skipping   0.000000000000000E+000

          --------
          Step   2
          --------
 
 
                           Geometry "geometry" -> "he2"
                           ----------------------------
 
 Output coordinates in angstroms (scale by  1.889725989 to convert to a.u.)
 
  No.       Tag          Charge          X              Y              Z
 ---- ---------------- ---------- -------------- -------------- --------------
    1 he                   2.0000     0.00000000     0.00000000     0.57078808
    2 he                   2.0000     0.00000000     0.00000000    -0.57078808
 
      Atomic Mass 
      ----------- 
 
      he                 4.002600
 

 Effective nuclear repulsion energy (a.u.)       1.8541986724

            Nuclear Dipole moment (a.u.) 
            ----------------------------
        X                 Y               Z
 ---------------- ---------------- ----------------
     0.0000000000     0.0000000000     0.0000000000
 
      Symmetry information
      --------------------
 
 Group name             D4h       
 Group number             28
 Group order              16
 No. of unique centers     1
 
      Symmetry unique atoms
 
     1
 
 
                                 NWChem DFT Module
                                 -----------------
 
 


 Summary of "ao basis" -> "ao basis" (spherical)
 ------------------------------------------------------------------------------
       Tag                 Description            Shells   Functions and Types
 ---------------- ------------------------------  ------  ---------------------
 he                       aug-cc-pvtz                9       23   4s3p2d


      Symmetry analysis of basis
      --------------------------
 
        a1g         9
        a1u         0
        a2g         0
        a2u         9
        b1g         2
        b1u         2
        b2g         2
        b2u         2
        eg         10
        eu         10
 
  int_init: cando_txs set to always be  F
  Caching 1-el integrals 
 
            General Information
            -------------------
          SCF calculation type: DFT
          Wavefunction type:  spin polarized.
          No. of atoms     :     2
          No. of electrons :     3
           Alpha electrons :     2
            Beta electrons :     1
          Charge           :     1
          Spin multiplicity:     2
          Use of symmetry is: on ; symmetry adaption is: on 
          Maximum number of iterations:  50
          This is a Direct SCF calculation.
          AO basis - number of functions:    46
                     number of shells:    18
          Convergence on energy requested:  1.00D-09
          Convergence on density requested:  1.00D-05
          Convergence on gradient requested:  5.00D-04
 
              XC Information
              --------------
                        wb97  Method XC Functional
                     Hartree-Fock (Exact) Exchange  1.000          
                          wb97 Exchange Functional  1.000          
                       wb97 Correlation Functional  1.000          
 
           Range-Separation Parameters        
           ---------------------------
           Alpha           :  0.00
           Beta            :  1.00
           Gamma           :  0.40
           Short-Range HF  :     F
 
             Grid Information
             ----------------
          Grid used for XC integration:  fine      
          Radial quadrature: Mura-Knowles        
          Angular quadrature: Lebedev. 
          Tag              B.-S. Rad. Rad. Pts. Rad. Cut. Ang. Pts.
          ---              ---------- --------- --------- ---------
          he                  0.35       70           9.0       590
          Grid pruning is: on 
          Number of quadrature shells:    70
          Spatial weights used:  Erf1
 
          Convergence Information
          -----------------------
          Convergence aids based upon iterative change in 
          total energy or number of iterations. 
          Levelshifting, if invoked, occurs when the 
          HOMO/LUMO gap drops below (HL_TOL):  1.00D-02
          DIIS, if invoked, will attempt to extrapolate 
          using up to (NFOCK): 10 stored Fock matrices.

                    Damping( 0%)  Levelshifting(0.5)       DIIS
                  --------------- ------------------- ---------------
          dE  on:    start            ASAP                start   
          dE off:    2 iters         50 iters            50 iters 

 
      Screening Tolerance Information
      -------------------------------
          Density screening/tol_rho:  1.00D-12
          AO Gaussian exp screening on grid/accAOfunc:  21
          CD Gaussian exp screening on grid/accCDfunc:  20
          XC Gaussian exp screening on grid/accXCfunc:  20
          Schwarz screening/accCoul:  1.00D-10


 Loading old vectors from job with title :



 
   Symmetry analysis of molecular orbitals - initial alpha
   -------------------------------------------------------
 
  Numbering of irreducible representations: 
 
     1 a1g         2 a1u         3 a2g         4 a2u         5 b1g     
     6 b1u         7 b2g         8 b2u         9 eg         10 eu      
 
  Orbital symmetries:
 
     1 a1g         2 a2u         3 a1g         4 a2u         5 eu      
     6 eu          7 a1g         8 eg          9 eg         10 a2u     
    11 a1g        12 a2u     
 
 
   Symmetry analysis of molecular orbitals - initial beta
   ------------------------------------------------------
 
  Numbering of irreducible representations: 
 
     1 a1g         2 a1u         3 a2g         4 a2u         5 b1g     
     6 b1u         7 b2g         8 b2u         9 eg         10 eu      
 
  Orbital symmetries:
 
     1 a1g         2 a2u         3 a1g         4 a2u         5 eu      
     6 eu          7 a1g         8 eg          9 eg         10 a2u     
    11 a1g        12 a2u     
 
   Time after variat. SCF:     13.3
   Time prior to 1st pass:     13.3
 Local filesystem for scratch_dir

 Grid_pts file          = ./he2p_wb97.gridpts.0
 Record size in doubles =  12289        No. of grid_pts per rec  =   3070
 Max. records in memory =      5        Max. recs in file   =   3153419


           Memory utilization after 1st SCF pass: 
           Heap Space remaining (MW):       26.15            26152264
          Stack Space remaining (MW):       26.21            26213900

   convergence    iter        energy       DeltaE   RMS-Dens  Diis-err    time
 ---------------- ----- ----------------- --------- --------- ---------  ------
 d= 0,ls=0.0,diis     1     -5.0122589382 -6.87D+00  9.12D-06  8.50D-07    13.8
                                                     5.08D-06  5.59D-07
 d= 0,ls=0.0,diis     2     -5.0122591857 -2.48D-07  1.94D-06  1.76D-08    14.3
                                                     1.24D-06  9.39D-09
 d= 0,ls=0.0,diis     3     -5.0122591936 -7.90D-09  2.63D-07  2.68D-10    14.8
                                                     2.44D-07  3.22D-10
 d= 0,ls=0.0,diis     4     -5.0122591938 -2.16D-10  3.02D-08  2.73D-12    15.3
                                                     2.37D-08  2.97D-12


         Total DFT energy =       -5.012259193845
      One electron energy =       -8.816631985999
           Coulomb energy =        3.602226157945
    Exchange-Corr. energy =       -1.652052038185
 Nuclear repulsion energy =        1.854198672393

 Numeric. integr. density =        3.000000022513

     Total iterative time =      2.0s


 
                  Occupations of the irreducible representations
                  ----------------------------------------------
 
                     irrep           alpha         beta
                     --------     --------     --------
                     a1g               1.0          1.0
                     a1u               0.0          0.0
                     a2g               0.0          0.0
                     a2u               1.0          0.0
                     b1g               0.0          0.0
                     b1u               0.0          0.0
                     b2g               0.0          0.0
                     b2u               0.0          0.0
                     eg                0.0          0.0
                     eu                0.0          0.0
 

   alpha - beta orbital overlaps 
   ----------------------------- 


   alpha      1      2      3      4      5      6      7      8      9     10
    beta      1      2      3      4      5      6      7      9      8     10
 overlap   0.999  0.998  0.999  0.998  0.774  0.774  0.999  0.857  0.857  0.998


   alpha     11     12     13     14     15     16     17     18     19     20
    beta     11     12     14     13     16     15     17     18     19     20
 overlap   0.999  0.999  1.000  1.000  0.724  0.724  0.999  1.000  1.000  0.760


   alpha     21     22     23     24     25     26     27     28     29     30
    beta     21     22     23     24     25     26     27     28     29     30
 overlap   0.760  1.000  0.754  0.754  1.000  0.787  0.787  1.000  1.000  1.000


   alpha     31     32     33     34     35     36     37     38     39     40
    beta     31     32     33     34     35     37     36     39     38     41
 overlap   1.000  0.763  0.763  1.000  1.000  1.000  1.000  0.999  0.999  0.723


   alpha     41     42     43     44     45     46
    beta     40     43     42     44     45     46
 overlap   0.723  0.843  0.843  1.000  1.000  1.000

     --------------------------
     Expectation value of S2:  
     --------------------------
      <S2> =      0.7524 (Exact =     0.7500)
 

 center of mass
 --------------
 x =   0.00000000 y =   0.00000000 z =   0.00000000

 moments of inertia (a.u.)
 ------------------
           9.313644274392           0.000000000000           0.000000000000
           0.000000000000           9.313644274392           0.000000000000
           0.000000000000           0.000000000000           0.000000000000
 
            General Information
            -------------------
          SCF calculation type: DFT
          Wavefunction type:  spin polarized.
          No. of atoms     :     2
          No. of electrons :     3
           Alpha electrons :     2
            Beta electrons :     1
          Charge           :     1
          Spin multiplicity:     2
          Use of symmetry is: on ; symmetry adaption is: on 
          Maximum number of iterations:  50
          This is a Direct SCF calculation.
          AO basis - number of functions:    46
                     number of shells:    18
          Convergence on energy requested:  1.00D-09
          Convergence on density requested:  1.00D-05
          Convergence on gradient requested:  5.00D-04
 
              XC Information
              --------------
                        wb97  Method XC Functional
                     Hartree-Fock (Exact) Exchange  1.000          
                          wb97 Exchange Functional  1.000          
                       wb97 Correlation Functional  1.000          
 
           Range-Separation Parameters        
           ---------------------------
           Alpha           :  0.00
           Beta            :  1.00
           Gamma           :  0.40
           Short-Range HF  :     F
 
             Grid Information
             ----------------
          Grid used for XC integration:  fine      
          Radial quadrature: Mura-Knowles        
          Angular quadrature: Lebedev. 
          Tag              B.-S. Rad. Rad. Pts. Rad. Cut. Ang. Pts.
          ---              ---------- --------- --------- ---------
          he                  0.35       70           9.0       590
          Grid pruning is: on 
          Number of quadrature shells:    70
          Spatial weights used:  Erf1
 
          Convergence Information
          -----------------------
          Convergence aids based upon iterative change in 
          total energy or number of iterations. 
          Levelshifting, if invoked, occurs when the 
          HOMO/LUMO gap drops below (HL_TOL):  1.00D-02
          DIIS, if invoked, will attempt to extrapolate 
          using up to (NFOCK): 10 stored Fock matrices.

                    Damping( 0%)  Levelshifting(0.5)       DIIS
                  --------------- ------------------- ---------------
          dE  on:    start            ASAP                start   
          dE off:    2 iters         50 iters            50 iters 

 
      Screening Tolerance Information
      -------------------------------
          Density screening/tol_rho:  1.00D-12
          AO Gaussian exp screening on grid/accAOfunc:  21
          CD Gaussian exp screening on grid/accCDfunc:  20
          XC Gaussian exp screening on grid/accXCfunc:  20
          Schwarz screening/accCoul:  1.00D-10

  int_init: cando_txs set to always be  F
  intd_init: cando_txs set to always be  F
 
 
                            NWChem DFT Gradient Module
                            --------------------------
 
 

  charge          =   1.00
  wavefunction    = open shell

  Using symmetry
  int_init: cando_txs set to always be  F
  intd_init: cando_txs set to always be  F


                         DFT ENERGY GRADIENTS

    atom               coordinates                        gradient
                 x          y          z           x          y          z
   1 he      0.000000   0.000000   1.078633    0.000000   0.000000  -0.000011
   2 he      0.000000   0.000000  -1.078633    0.000000   0.000000   0.000011
 
                 ----------------------------------------
                 |  Time  |  1-e(secs)   |  2-e(secs)   |
                 ----------------------------------------
                 |  CPU   |       0.00   |       0.32   |
                 ----------------------------------------
                 |  WALL  |       0.00   |       0.32   |
                 ----------------------------------------
  no constraints, skipping   0.000000000000000E+000

  Step       Energy      Delta E   Gmax     Grms     Xrms     Xmax   Walltime
  ---- ---------------- -------- -------- -------- -------- -------- --------
@    2      -5.01225919 -2.0D-05  0.00001  0.00001  0.00457  0.00791     15.8
                                     ok       ok                    



                                Z-matrix (autoz)
                                -------- 

 Units are Angstrom for bonds and degrees for angles
 
      Type          Name      I     J     K     L     M      Value     Gradient
      ----------- --------  ----- ----- ----- ----- ----- ---------- ----------
    1 Stretch                  1     2                       1.14158   -0.00001
 
  no constraints, skipping   0.000000000000000E+000
  no constraints, skipping   0.000000000000000E+000
  no constraints, skipping   0.000000000000000E+000
 
                                 NWChem DFT Module
                                 -----------------
 
 


 Summary of "ao basis" -> "ao basis" (spherical)
 ------------------------------------------------------------------------------
       Tag                 Description            Shells   Functions and Types
 ---------------- ------------------------------  ------  ---------------------
 he                       aug-cc-pvtz                9       23   4s3p2d


      Symmetry analysis of basis
      --------------------------
 
        a1g         9
        a1u         0
        a2g         0
        a2u         9
        b1g         2
        b1u         2
        b2g         2
        b2u         2
        eg         10
        eu         10
 
  int_init: cando_txs set to always be  F
  Caching 1-el integrals 
 
            General Information
            -------------------
          SCF calculation type: DFT
          Wavefunction type:  spin polarized.
          No. of atoms     :     2
          No. of electrons :     3
           Alpha electrons :     2
            Beta electrons :     1
          Charge           :     1
          Spin multiplicity:     2
          Use of symmetry is: on ; symmetry adaption is: on 
          Maximum number of iterations:  50
          This is a Direct SCF calculation.
          AO basis - number of functions:    46
                     number of shells:    18
          Convergence on energy requested:  1.00D-09
          Convergence on density requested:  1.00D-05
          Convergence on gradient requested:  5.00D-04
 
              XC Information
              --------------
                        wb97  Method XC Functional
                     Hartree-Fock (Exact) Exchange  1.000          
                          wb97 Exchange Functional  1.000          
                       wb97 Correlation Functional  1.000          
 
           Range-Separation Parameters        
           ---------------------------
           Alpha           :  0.00
           Beta            :  1.00
           Gamma           :  0.40
           Short-Range HF  :     F
 
             Grid Information
             ----------------
          Grid used for XC integration:  fine      
          Radial quadrature: Mura-Knowles        
          Angular quadrature: Lebedev. 
          Tag              B.-S. Rad. Rad. Pts. Rad. Cut. Ang. Pts.
          ---              ---------- --------- --------- ---------
          he                  0.35       70           9.0       590
          Grid pruning is: on 
          Number of quadrature shells:    70
          Spatial weights used:  Erf1
 
          Convergence Information
          -----------------------
          Convergence aids based upon iterative change in 
          total energy or number of iterations. 
          Levelshifting, if invoked, occurs when the 
          HOMO/LUMO gap drops below (HL_TOL):  1.00D-02
          DIIS, if invoked, will attempt to extrapolate 
          using up to (NFOCK): 10 stored Fock matrices.

                    Damping( 0%)  Levelshifting(0.5)       DIIS
                  --------------- ------------------- ---------------
          dE  on:    start            ASAP                start   
          dE off:    2 iters         50 iters            50 iters 

 
      Screening Tolerance Information
      -------------------------------
          Density screening/tol_rho:  1.00D-12
          AO Gaussian exp screening on grid/accAOfunc:  21
          CD Gaussian exp screening on grid/accCDfunc:  20
          XC Gaussian exp screening on grid/accXCfunc:  20
          Schwarz screening/accCoul:  1.00D-10


 Loading old vectors from job with title :



 
   Symmetry analysis of molecular orbitals - initial alpha
   -------------------------------------------------------
 
  Numbering of irreducible representations: 
 
     1 a1g         2 a1u         3 a2g         4 a2u         5 b1g     
     6 b1u         7 b2g         8 b2u         9 eg         10 eu      
 
  Orbital symmetries:
 
     1 a1g         2 a2u         3 a1g         4 a2u         5 eu      
     6 eu          7 a1g         8 eg          9 eg         10 a2u     
    11 a1g        12 a2u     
 
 
   Symmetry analysis of molecular orbitals - initial beta
   ------------------------------------------------------
 
  Numbering of irreducible representations: 
 
     1 a1g         2 a1u         3 a2g         4 a2u         5 b1g     
     6 b1u         7 b2g         8 b2u         9 eg         10 eu      
 
  Orbital symmetries:
 
     1 a1g         2 a2u         3 a1g         4 a2u         5 eu      
     6 eu          7 a1g         8 eg          9 eg         10 a2u     
    11 a1g        12 a2u     
 
   Time after variat. SCF:     16.0
   Time prior to 1st pass:     16.0
 Local filesystem for scratch_dir

 Grid_pts file          = ./he2p_wb97.gridpts.0
 Record size in doubles =  12289        No. of grid_pts per rec  =   3070
 Max. records in memory =      5        Max. recs in file   =   3153419


           Memory utilization after 1st SCF pass: 
           Heap Space remaining (MW):       26.15            26152264
          Stack Space remaining (MW):       26.21            26213900

   convergence    iter        energy       DeltaE   RMS-Dens  Diis-err    time
 ---------------- ----- ----------------- --------- --------- ---------  ------
 d= 0,ls=0.0,diis     1     -5.0122591941 -6.87D+00  1.88D-07  3.53D-10    16.5
                                                     1.03D-07  2.29D-10
 d= 0,ls=0.0,diis     2     -5.0122591942 -1.02D-10  3.99D-08  7.30D-12    17.0
[...]
                                     ok       ok       ok       ok  



                                Z-matrix (autoz)
                                -------- 

 Units are Angstrom for bonds and degrees for angles
 
      Type          Name      I     J     K     L     M      Value     Gradient
      ----------- --------  ----- ----- ----- ----- ----- ---------- ----------
    1 Stretch                  1     2                       1.14161   -0.00000
 
 
 
                           Geometry "geometry" -> "he2"
                           ----------------------------
 
 Output coordinates in angstroms (scale by  1.889725989 to convert to a.u.)
 
  No.       Tag          Charge          X              Y              Z
 ---- ---------------- ---------- -------------- -------------- --------------
    1 he                   2.0000     0.00000000     0.00000000     0.57080585
    2 he                   2.0000     0.00000000     0.00000000    -0.57080585
 
      Atomic Mass 
      ----------- 
 
      he                 4.002600
 

 Effective nuclear repulsion energy (a.u.)       1.8541409455

            Nuclear Dipole moment (a.u.) 
            ----------------------------
        X                 Y               Z
 ---------------- ---------------- ----------------
     0.0000000000     0.0000000000     0.0000000000
 
      Symmetry information
      --------------------
 
 Group name             D4h       
 Group number             28
 Group order              16
 No. of unique centers     1
 
      Symmetry unique atoms
 
     1
 
 
                Final and change from initial internal coordinates
                --------------------------------------------------
 


                                Z-matrix (autoz)
                                -------- 

 Units are Angstrom for bonds and degrees for angles
 
      Type          Name      I     J     K     L     M      Value       Change
      ----------- --------  ----- ----- ----- ----- ----- ---------- ----------
    1 Stretch                  1     2                       1.14161   -0.05839
 

 Task  times  cpu:       17.3s     wall:       17.3s
 
 
                                NWChem Input Module
                                -------------------
 
 
 
                                 NWChem DFT Module
                                 -----------------
 
 


 Summary of "ao basis" -> "ao basis" (spherical)
 ------------------------------------------------------------------------------
       Tag                 Description            Shells   Functions and Types
 ---------------- ------------------------------  ------  ---------------------
 he                       aug-cc-pvtz                9       23   4s3p2d


  int_init: cando_txs set to always be  F
  Caching 1-el integrals 
 
            General Information
            -------------------
          SCF calculation type: DFT
          Wavefunction type:  spin polarized.
          No. of atoms     :     1
          No. of electrons :     1
           Alpha electrons :     1
            Beta electrons :     0
          Charge           :     1
          Spin multiplicity:     2
          Use of symmetry is: off; symmetry adaption is: off
          Maximum number of iterations:  50
          This is a Direct SCF calculation.
          AO basis - number of functions:    23
                     number of shells:     9
          Convergence on energy requested:  1.00D-09
          Convergence on density requested:  1.00D-05
          Convergence on gradient requested:  5.00D-04
 
              XC Information
              --------------
                        wb97  Method XC Functional
                     Hartree-Fock (Exact) Exchange  1.000          
                          wb97 Exchange Functional  1.000          
                       wb97 Correlation Functional  1.000          
 
           Range-Separation Parameters        
           ---------------------------
           Alpha           :  0.00
           Beta            :  1.00
           Gamma           :  0.40
           Short-Range HF  :     F
 
             Grid Information
             ----------------
          Grid used for XC integration:  fine      
          Radial quadrature: Mura-Knowles        
          Angular quadrature: Lebedev. 
          Tag              B.-S. Rad. Rad. Pts. Rad. Cut. Ang. Pts.
          ---              ---------- --------- --------- ---------
          he                  0.35       70           7.0       590
          Grid pruning is: on 
          Number of quadrature shells:    70
          Spatial weights used:  Erf1
 
          Convergence Information
          -----------------------
          Convergence aids based upon iterative change in 
          total energy or number of iterations. 
          Levelshifting, if invoked, occurs when the 
          HOMO/LUMO gap drops below (HL_TOL):  1.00D-02
          DIIS, if invoked, will attempt to extrapolate 
          using up to (NFOCK): 10 stored Fock matrices.

                    Damping( 0%)  Levelshifting(0.5)       DIIS
                  --------------- ------------------- ---------------
          dE  on:    start            ASAP                start   
          dE off:    2 iters         50 iters            50 iters 

 
      Screening Tolerance Information
      -------------------------------
          Density screening/tol_rho:  1.00D-12
          AO Gaussian exp screening on grid/accAOfunc:  21
          CD Gaussian exp screening on grid/accCDfunc:  20
          XC Gaussian exp screening on grid/accXCfunc:  20
          Schwarz screening/accCoul:  1.00D-10


 !! nbf/nmo/basis-name mismatch 
           nbf=  23 nbf_file=  46
           nmo=  23 nmo_file=  46
           basis="ao basis" basis_file="ao basis"

  Either an incorrect movecs file was 
 specified, or linear dependence has changed,
  or the basis name was changed. 

 Loading old vectors from job with title :



 
  Load of old vectors failed.   Forcing atomic density guess
 
 
      Superposition of Atomic Density Guess
      -------------------------------------
 
 Sum of atomic energies:          -2.86118342

 Renormalizing density from       2.00 to      1
 
      Non-variational initial energy
      ------------------------------

 Total energy =      -1.943315
 1-e energy   =      -1.943315
 2-e energy   =       0.000000
 HOMO         =      -1.998921
 LUMO         =      -0.495551
 
   Time after variat. SCF:     17.6
   Time prior to 1st pass:     17.6
 Local filesystem for scratch_dir

 Grid_pts file          = ./he2p_wb97.gridpts.0
 Record size in doubles =  12289        No. of grid_pts per rec  =   3070
 Max. records in memory =      5        Max. recs in file   =   3153419


           Memory utilization after 1st SCF pass: 
           Heap Space remaining (MW):       26.15            26152360
          Stack Space remaining (MW):       26.21            26214076

   convergence    iter        energy       DeltaE   RMS-Dens  Diis-err    time
 ---------------- ----- ----------------- --------- --------- ---------  ------
 d= 0,ls=0.0,diis     1     -1.9948984179 -1.99D+00  1.59D-03  2.65D-03    17.8
                                                     0.00D+00  0.00D+00
 d= 0,ls=0.0,diis     2     -1.9953994205 -5.01D-04  2.32D-04  4.61D-05    18.1
                                                     0.00D+00  0.00D+00
 d= 0,ls=0.0,diis     3     -1.9954103545 -1.09D-05  4.53D-06  3.38D-08    18.3
                                                     0.00D+00  0.00D+00
 d= 0,ls=0.0,diis     4     -1.9954103670 -1.25D-08  1.48D-07  1.23D-11    18.5
                                                     0.00D+00  0.00D+00
 d= 0,ls=0.0,diis     5     -1.9954103670 -3.90D-12  2.81D-09  1.01D-14    18.7
                                                     0.00D+00  0.00D+00


         Total DFT energy =       -1.995410367049
      One electron energy =       -1.998365110509
           Coulomb energy =        0.619242773866
    Exchange-Corr. energy =       -0.616288030407
 Nuclear repulsion energy =        0.000000000000

 Numeric. integr. density =        1.000000000000

     Total iterative time =      1.1s



   alpha - beta orbital overlaps 
   ----------------------------- 


   alpha      1      2      3      4      5      6      7      8      9     10
    beta      1      2      4      5      4      6     11      8      7     10
 overlap   0.977  0.984  0.721  0.720  0.677  0.978  0.741  0.907  0.648  0.778


   alpha     11     12     13     14     15     16     17     18     19     20
    beta      7     12     13     14     15     16     17     18     19     20
 overlap   0.590  0.988  0.727  0.719  0.996  0.723  0.695  0.793  0.752  0.649


   alpha     21     22     23
    beta     23     21     22
 overlap   0.978  0.741  0.723

     --------------------------
     Expectation value of S2:  
     --------------------------
      <S2> =      0.7500 (Exact =     0.7500)
 

 Task  times  cpu:        1.2s     wall:        1.2s
 
 
                                NWChem Input Module
                                -------------------
 
 
 
                                 NWChem DFT Module
                                 -----------------
 
 


 Summary of "ao basis" -> "ao basis" (spherical)
 ------------------------------------------------------------------------------
       Tag                 Description            Shells   Functions and Types
 ---------------- ------------------------------  ------  ---------------------
 he                       aug-cc-pvtz                9       23   4s3p2d


  int_init: cando_txs set to always be  F
  Caching 1-el integrals 
 
            General Information
            -------------------
          SCF calculation type: DFT
          Wavefunction type:  spin polarized.
          No. of atoms     :     1
          No. of electrons :     2
           Alpha electrons :     1
            Beta electrons :     1
          Charge           :     0
          Spin multiplicity:     1
          Use of symmetry is: off; symmetry adaption is: off
          Maximum number of iterations:  50
          This is a Direct SCF calculation.
          AO basis - number of functions:    23
                     number of shells:     9
          Convergence on energy requested:  1.00D-09
          Convergence on density requested:  1.00D-05
          Convergence on gradient requested:  5.00D-04
 
              XC Information
              --------------
                        wb97  Method XC Functional
                     Hartree-Fock (Exact) Exchange  1.000          
                          wb97 Exchange Functional  1.000          
                       wb97 Correlation Functional  1.000          
 
           Range-Separation Parameters        
           ---------------------------
           Alpha           :  0.00
           Beta            :  1.00
           Gamma           :  0.40
           Short-Range HF  :     F
 
             Grid Information
             ----------------
          Grid used for XC integration:  fine      
          Radial quadrature: Mura-Knowles        
          Angular quadrature: Lebedev. 
          Tag              B.-S. Rad. Rad. Pts. Rad. Cut. Ang. Pts.
          ---              ---------- --------- --------- ---------
          he                  0.35       70           7.0       590
          Grid pruning is: on 
          Number of quadrature shells:    70
          Spatial weights used:  Erf1
 
          Convergence Information
          -----------------------
          Convergence aids based upon iterative change in 
          total energy or number of iterations. 
          Levelshifting, if invoked, occurs when the 
          HOMO/LUMO gap drops below (HL_TOL):  1.00D-02
          DIIS, if invoked, will attempt to extrapolate 
          using up to (NFOCK): 10 stored Fock matrices.

                    Damping( 0%)  Levelshifting(0.5)       DIIS
                  --------------- ------------------- ---------------
          dE  on:    start            ASAP                start   
          dE off:    2 iters         50 iters            50 iters 

 
      Screening Tolerance Information
      -------------------------------
          Density screening/tol_rho:  1.00D-12
          AO Gaussian exp screening on grid/accAOfunc:  21
          CD Gaussian exp screening on grid/accCDfunc:  20
          XC Gaussian exp screening on grid/accXCfunc:  20
          Schwarz screening/accCoul:  1.00D-10


 Loading old vectors from job with title :



   Time after variat. SCF:     18.8
   Time prior to 1st pass:     18.8
 Local filesystem for scratch_dir

 Grid_pts file          = ./he2p_wb97.gridpts.0
 Record size in doubles =  12289        No. of grid_pts per rec  =   3070
 Max. records in memory =      5        Max. recs in file   =   3153419


           Memory utilization after 1st SCF pass: 
           Heap Space remaining (MW):       26.15            26152360
          Stack Space remaining (MW):       26.21            26214076

   convergence    iter        energy       DeltaE   RMS-Dens  Diis-err    time
 ---------------- ----- ----------------- --------- --------- ---------  ------
 d= 0,ls=0.0,diis     1     -2.8591406173 -2.86D+00  8.13D-03  1.67D-01    19.1
                                                     1.09D-03  4.28D-03
 d= 0,ls=0.0,diis     2     -2.8987073243 -3.96D-02  1.84D-03  2.53D-03    19.4
                                                     1.40D-03  7.11D-03
 d= 0,ls=0.0,diis     3     -2.9017532697 -3.05D-03  7.05D-04  4.47D-04    19.6
                                                     4.71D-04  2.03D-04
 d= 0,ls=0.0,diis     4     -2.9020678872 -3.15D-04  9.10D-05  3.03D-06    19.9
                                                     1.03D-04  5.51D-06
 d= 0,ls=0.0,diis     5     -2.9020740727 -6.19D-06  8.27D-06  3.03D-08    20.2
                                                     1.04D-05  4.19D-08
 d= 0,ls=0.0,diis     6     -2.9020741145 -4.17D-08  6.39D-07  3.52D-10    20.4
                                                     1.43D-06  3.77D-10
 d= 0,ls=0.0,diis     7     -2.9020741148 -3.09D-10  6.28D-09  5.06D-14    20.7
                                                     7.48D-09  4.97D-14


         Total DFT energy =       -2.902074114773
      One electron energy =       -3.875504964441
           Coulomb energy =        2.031123690015
    Exchange-Corr. energy =       -1.057692840348
 Nuclear repulsion energy =        0.000000000000

 Numeric. integr. density =        1.999999999975

     Total iterative time =      1.9s



   alpha - beta orbital overlaps 
   ----------------------------- 


   alpha      1      2      3      4      5      6      7      8      9     10
    beta      1      2      3      5      4      6      9     10      9      8
 overlap   1.000  1.000  0.812  0.904  0.717  1.000  0.725  0.683  0.663  0.723


   alpha     11     12     13     14     15     16     17     18     19     20
    beta     11     14     13     12     15     17     16     18     20     19
 overlap   0.588  0.937  0.948  0.958  1.000  0.939  0.951  0.909  0.765  0.808


   alpha     21     22     23
    beta     23     22     21
 overlap   0.723  0.799  0.881

     --------------------------
     Expectation value of S2:  
     --------------------------
      <S2> =      0.0000 (Exact =     0.0000)
 

 Task  times  cpu:        2.0s     wall:        2.0s
 
 
                                NWChem Input Module
                                -------------------
 
 
 Summary of allocated global arrays
-----------------------------------
  No active global arrays


MA_summarize_allocated_blocks: starting scan ...
MA_summarize_allocated_blocks: scan completed: 0 heap blocks, 0 stack blocks
MA usage statistics:

	allocation statistics:
					      heap	     stack
					      ----	     -----
	current number of blocks	         0	         0
	maximum number of blocks	        23	        62
	current total bytes		         0	         0
	maximum total bytes		    499496	  22512584
	maximum total K-bytes		       500	     22513
	maximum total M-bytes		         1	        23
 
 
                                     CITATION
                                     --------
                Please cite the following reference when publishing
                           results obtained with NWChem:
 
          E. Apra, E. J. Bylaska, W. A. de Jong, N. Govind, K. Kowalski,
       T. P. Straatsma, M. Valiev, H. J. J. van Dam, Y. Alexeev, J. Anchell,
       V. Anisimov, F. W. Aquino, R. Atta-Fynn, J. Autschbach, N. P. Bauman,
     J. C. Becca, D. E. Bernholdt, K. Bhaskaran-Nair, S. Bogatko, P. Borowski,
         J. Boschen, J. Brabec, A. Bruner, E. Cauet, Y. Chen, G. N. Chuev,
      C. J. Cramer, J. Daily, M. J. O. Deegan, T. H. Dunning Jr., M. Dupuis,
   K. G. Dyall, G. I. Fann, S. A. Fischer, A. Fonari, H. Fruchtl, L. Gagliardi,
      J. Garza, N. Gawande, S. Ghosh, K. Glaesemann, A. W. Gotz, J. Hammond,
       V. Helms, E. D. Hermes, K. Hirao, S. Hirata, M. Jacquelin, L. Jensen,
   B. G. Johnson, H. Jonsson, R. A. Kendall, M. Klemm, R. Kobayashi, V. Konkov,
      S. Krishnamoorthy, M. Krishnan, Z. Lin, R. D. Lins, R. J. Littlefield,
      A. J. Logsdail, K. Lopata, W. Ma, A. V. Marenich, J. Martin del Campo,
   D. Mejia-Rodriguez, J. E. Moore, J. M. Mullin, T. Nakajima, D. R. Nascimento,
    J. A. Nichols, P. J. Nichols, J. Nieplocha, A. Otero-de-la-Roza, B. Palmer,
    A. Panyala, T. Pirojsirikul, B. Peng, R. Peverati, J. Pittner, L. Pollack,
   R. M. Richard, P. Sadayappan, G. C. Schatz, W. A. Shelton, D. W. Silverstein,
   D. M. A. Smith, T. A. Soares, D. Song, M. Swart, H. L. Taylor, G. S. Thomas,
            V. Tipparaju, D. G. Truhlar, K. Tsemekhman, T. Van Voorhis,
      A. Vazquez-Mayagoitia, P. Verma, O. Villa, A. Vishnu, K. D. Vogiatzis,
        D. Wang, J. H. Weare, M. J. Williamson, T. L. Windus, K. Wolinski,
        A. T. Wong, Q. Wu, C. Yang, Q. Yu, M. Zacharias, Z. Zhang, Y. Zhao,
                                and R. J. Harrison
                        "NWChem: Past, present, and future
                         J. Chem. Phys. 152, 184102 (2020)
                               doi:10.1063/5.0004997
 
                                      AUTHORS
                                      -------
        E. Apra, E. J. Bylaska, N. Govind, K. Kowalski, D. Mejia-Rodriguez,
        N. P. Bauman, A. Panyala, R. J. Harrison, M. Valiev, W. A. de Jong,
       T. P. Straatsma, H. J. J. van Dam, D. Wang, T. L. Windus, J. Hammond,
     J. Autschbach, R. de P. Soares, A. Kunitsa, K. Bhaskaran-Nair, J. Brabec,
      K. Lopata, S. A. Fischer, S. Krishnamoorthy, M. Jacquelin, R. Goswami,
       A. Woods, W. Ma, M. Klemm, O. Villa, Y. Chen, V. Anisimov, F. Aquino,
     S. Hirata, M. T. Hackler, E. Hermes, L. Jensen, J. E. Moore, J. C. Becca,
      V. Konjkov, T. Risthaus, M. Malagoli, A. Marenich, A. Otero-de-la-Roza,
        J. Mullin, P. Nichols, R. Peverati, J. Pittner, Y. Zhao, P.-D. Fan,
        A. Fonari, M. J. Williamson, J. R. Rehr, M. Dupuis, D. Silverstein,
    D. M. A. Smith, J. Nieplocha, V. Tipparaju, M. Krishnan, B. E. Van Kuiken,
        A. Vazquez-Mayagoitia, M. Swart, Q. Wu, T. Van Voorhis, A. A. Auer,
     M. Nooijen, L. D. Crosby, E. Brown, G. Cisneros, G. I. Fann, H. Fruchtl,
   J. Garza, K. Hirao, R. A. Kendall, J. A. Nichols, K. Tsemekhman, K. Wolinski,
     J. Anchell, D. E. Bernholdt, P. Borowski, T. Clark, D. Clerc, H. Dachsel,
   M. J. O. Deegan, K. Dyall, D. Elwood, E. Glendening, M. Gutowski, A. C. Hess,
         J. Jaffe, B. G. Johnson, J. Ju, R. Kobayashi, R. Kutteh, Z. Lin,
   R. Littlefield, X. Long, B. Meng, T. Nakajima, S. Niu, L. Pollack, M. Rosing,
   K. Glaesemann, G. Sandrone, M. Stave, H. Taylor, G. Thomas, J. H. van Lenthe,
                               A. T. Wong, Z. Zhang.

 Total times  cpu:       20.8s     wall:       20.8s
