 argument  1 = xe_zora_sf.nw
mpiexec_curie (handle_stdin_input 1064): stdin problem; if pgm is run in background, redirect from /dev/null
mpiexec_curie (handle_stdin_input 1065):     e.g.: mpiexec -n 4 a.out < /dev/null &
                                         
                                         
 
 
              Northwest Computational Chemistry Package (NWChem) 5.0
              ------------------------------------------------------
 
 
                    Environmental Molecular Sciences Laboratory
                       Pacific Northwest National Laboratory
                                Richland, WA 99352
 
                                         
                                         
 
 
                     COPYRIGHT (C) 1994, 1995, 1996, 1997, 1998,
                   1999, 2000, 2001, 2002, 2003, 2004, 2005, 2006
                        Pacific Northwest National Laboratory,
                             Battelle Memorial Institute.
 
                            >>> All Rights Reserved <<<
 
 
                                    DISCLAIMER
                                    ----------

            This material was prepared as an account of work sponsored
            by an agency of the United States Government.  Neither the
            United States Government nor the United States Department
            of Energy, nor Battelle, nor any of their employees, MAKES
            ANY WARRANTY, EXPRESS OR IMPLIED, OR ASSUMES ANY LEGAL
            LIABILITY OR RESPONSIBILITY FOR THE ACCURACY, COMPLETENESS,
            OR USEFULNESS OF ANY INFORMATION, APPARATUS, PRODUCT,
            SOFTWARE, OR PROCESS DISCLOSED, OR REPRESENTS THAT ITS USE
            WOULD NOT INFRINGE PRIVATELY OWNED RIGHTS.


                                    LIMITED USE
                                    -----------

            This software (including any documentation) is being made
            available to you for your internal use only, solely for use
            in performance of work directly for the U.S. Federal
            Government or work under contracts with the U.S. Department
            of Energy or other U.S. Federal Government agencies.  This
            software is a version which has not yet been evaluated and
            cleared for commercialization.  Adherence to this notice
            may be necessary for the author, Battelle Memorial
            Institute, to successfully assert copyright in and
            commercialize this software. This software is not intended
            for duplication or distribution to third parties without
            the permission of the Manager of Software Products at
            Pacific Northwest National Laboratory, Richland,
            Washington, 99352.


                                  ACKNOWLEDGMENT
                                  --------------

            This software and its documentation were produced with
            Government support under Contract Number DE-AC05-76RL01830
            awarded by the United States Department of Energy.  The
            Government retains a paid-up non-exclusive, irrevocable
            worldwide license to reproduce, prepare derivative works,
            perform publicly and display publicly by or for the
            Government, including the right to distribute to other
            Government contractors.


           Job information
           ---------------

    hostname      = curie
    program       = ../../../bin/LINUX64/nwchem
    date          = Fri Oct 12 17:27:15 2007

    compiled      = Fri_Oct_12_17:11:36_2007
    source        = /home/niri/nwchem
    nwchem branch = Development
    input         = xe_zora_sf.nw
    prefix        = xe_zora_sf.
    data base     = ./xe_zora_sf.db
    status        = startup
    nproc         =    4
    time left     =     -1s



           Memory information
           ------------------

    heap      =   13107201 doubles =    100.0 Mbytes
    stack     =   13107201 doubles =    100.0 Mbytes
    global    =   26214400 doubles =    200.0 Mbytes (distinct from heap & stack)
    total     =   52428802 doubles =    400.0 Mbytes
    verify    = yes
    hardfail  = no 


           Directory information
           ---------------------
 
  0 permanent = .
  0 scratch   = .
 
 
 
 
                                NWChem Input Module
                                -------------------
 
 
 
 
                             Geometry "geometry" -> ""
                             -------------------------
 
 Output coordinates in a.u. (scale by  1.000000000 to convert to a.u.)
 
  No.       Tag          Charge          X              Y              Z
 ---- ---------------- ---------- -------------- -------------- --------------
    1 Xe                  54.0000     0.00000000     0.00000000     0.00000000
 
      Atomic Mass 
      ----------- 
 
      Xe               131.904200
 

 Effective nuclear repulsion energy (a.u.)       0.0000000000

            Nuclear Dipole moment (a.u.) 
            ----------------------------
        X                 Y               Z
 ---------------- ---------------- ----------------
     0.0000000000     0.0000000000     0.0000000000
 
 
            XYZ format geometry
            -------------------
     1
 geometry
 Xe                    0.00000000     0.00000000     0.00000000
 
                      Basis "ao basis" -> "" (spherical)
                      -----
  xe (Xenon)
  ----------
            Exponent  Coefficients 
       -------------- ---------------------------------------------------------
  1 S  2.87346870E+05  0.001607
  1 S  4.30953010E+04  0.012300
  1 S  9.78412850E+03  0.061803
  1 S  2.75363840E+03  0.215388
  1 S  8.95439180E+02  0.462149
  1 S  3.08623680E+02  0.386397
 
  2 S  5.83956090E+02 -0.114385
  2 S  7.17851100E+01  0.633225
  2 S  3.12157040E+01  0.441059
 
  3 S  5.71718900E+01 -0.272283
  3 S  1.04504210E+01  0.847849
  3 S  4.79634320E+00  0.304904
 
  4 S  9.60140440E+00 -0.345049
  4 S  2.24514470E+00  0.819619
  4 S  1.03824270E+00  0.389631
 
  5 S  1.72612860E+00  0.274540
  5 S  3.31989200E-01 -0.760948
 
  6 S  1.31151600E-01  1.000000
 
  7 P  4.25957200E+03  0.007216
  7 P  1.00747600E+03  0.055682
  7 P  3.22557310E+02  0.233572
  7 P  1.17306570E+02  0.504404
  7 P  4.50438490E+01  0.366528
 
  8 P  1.71160830E+02 -0.025392
  8 P  2.17103630E+01  0.494453
  8 P  8.58627200E+00  0.573510
 
  9 P  3.92782090E+00 -0.434769
  9 P  1.73472550E+00 -0.524196
  9 P  7.69381300E-01 -0.118481
 
 10 P  5.21767100E-01  0.363949
 10 P  2.12388600E-01  0.530251
 
 11 P  8.17809000E-02  1.000000
 
 12 D  4.43545200E+02 -0.012328
 12 D  1.31561200E+02 -0.089163
 12 D  1.96601230E+01 -0.499840
 12 D  4.88163950E+01 -0.302543
 12 D  7.95644190E+00 -0.313405
 
 13 D  6.82453850E+00 -0.253755
 13 D  2.60497700E+00 -0.566071
 13 D  9.42219200E-01 -0.351108
 
 14 D  2.75000000E-01  1.000000
 


 Summary of "ao basis" -> "" (spherical)
 ------------------------------------------------------------------------------
       Tag                 Description            Shells   Functions and Types
 ---------------- ------------------------------  ------  ---------------------
 xe                    DZVP (DFT Orbital)           14       36   6s5p3d


                                 NWChem DFT Module
                                 -----------------
 
 
mpiexec_curie (handle_stdin_input 1064): stdin problem; if pgm is run in background, redirect from /dev/null
mpiexec_curie (handle_stdin_input 1065):     e.g.: mpiexec -n 4 a.out < /dev/null &
  Caching 1-el integrals 
 
            General Information
            -------------------
          SCF calculation type: DFT
          Wavefunction type:  closed shell.
          No. of atoms     :     1
          No. of electrons :    54
           Alpha electrons :    27
            Beta electrons :    27
          Charge           :     0
          Spin multiplicity:     1
          Use of symmetry is: off; symmetry adaption is: off
          Maximum number of iterations: 100
          AO basis - number of functions:    36
                     number of shells:    14
          Convergence on energy requested: 1.00D-06
          Convergence on density requested: 1.00D-05
          Convergence on gradient requested: 5.00D-04
 
              XC Information
              --------------
                        Slater Exchange Functional  1.000 local    
                      VWN V Correlation Functional  1.000 local    
 
             Grid Information
             ----------------
          Grid used for XC integration:  medium    
          Radial quadrature: Mura-Knowles        
          Angular quadrature: Lebedev. 
          Tag              B.-S. Rad. Rad. Pts. Rad. Cut. Ang. Pts.
          ---              ---------- --------- --------- ---------
          Xe                  1.40      123           6.0       590
          Grid pruning is: on 
          Number of quadrature shells:   123
          Spatial weights used:  Erf1
 
          Convergence Information
          -----------------------
          Convergence aids based upon iterative change in 
          total energy or number of iterations. 
          Levelshifting, if invoked, occurs when the 
          HOMO/LUMO gap drops below (HL_TOL): 1.00D-02
          DIIS, if invoked, will attempt to extrapolate 
          using up to (NFOCK): 10 stored Fock matrices.

                    Damping( 0%)  Levelshifting(0.5)       DIIS
                  --------------- ------------------- ---------------
          dE  on:    start            ASAP                start   
          dE off:    2 iters        100 iters           100 iters 

 
      Screening Tolerance Information
      -------------------------------
          Density screening/tol_rho: 1.00D-10
          AO Gaussian exp screening on grid/accAOfunc:  14
          CD Gaussian exp screening on grid/accCDfunc:  20
          XC Gaussian exp screening on grid/accXCfunc:  20
          Schwarz screening/accCoul: 1.00D-08

 
      Superposition of Atomic Density Guess
      -------------------------------------
 
mpiexec_curie (handle_stdin_input 1064): stdin problem; if pgm is run in background, redirect from /dev/null
mpiexec_curie (handle_stdin_input 1065):     e.g.: mpiexec -n 4 a.out < /dev/null &
 Sum of atomic energies:       -7231.25406038
mpiexec_curie (handle_stdin_input 1064): stdin problem; if pgm is run in background, redirect from /dev/null
mpiexec_curie (handle_stdin_input 1065):     e.g.: mpiexec -n 4 a.out < /dev/null &
mpiexec_curie (handle_stdin_input 1064): stdin problem; if pgm is run in background, redirect from /dev/null
mpiexec_curie (handle_stdin_input 1065):     e.g.: mpiexec -n 4 a.out < /dev/null &
mpiexec_curie (handle_stdin_input 1064): stdin problem; if pgm is run in background, redirect from /dev/null
mpiexec_curie (handle_stdin_input 1065):     e.g.: mpiexec -n 4 a.out < /dev/null &
mpiexec_curie (handle_stdin_input 1064): stdin problem; if pgm is run in background, redirect from /dev/null
mpiexec_curie (handle_stdin_input 1065):     e.g.: mpiexec -n 4 a.out < /dev/null &
mpiexec_curie (handle_stdin_input 1064): stdin problem; if pgm is run in background, redirect from /dev/null
mpiexec_curie (handle_stdin_input 1065):     e.g.: mpiexec -n 4 a.out < /dev/null &
mpiexec_curie (handle_stdin_input 1064): stdin problem; if pgm is run in background, redirect from /dev/null
mpiexec_curie (handle_stdin_input 1065):     e.g.: mpiexec -n 4 a.out < /dev/null &
mpiexec_curie (handle_stdin_input 1064): stdin problem; if pgm is run in background, redirect from /dev/null
mpiexec_curie (handle_stdin_input 1065):     e.g.: mpiexec -n 4 a.out < /dev/null &
mpiexec_curie (handle_stdin_input 1064): stdin problem; if pgm is run in background, redirect from /dev/null
mpiexec_curie (handle_stdin_input 1065):     e.g.: mpiexec -n 4 a.out < /dev/null &
mpiexec_curie (handle_stdin_input 1064): stdin problem; if pgm is run in background, redirect from /dev/null
mpiexec_curie (handle_stdin_input 1065):     e.g.: mpiexec -n 4 a.out < /dev/null &
mpiexec_curie (handle_stdin_input 1064): stdin problem; if pgm is run in background, redirect from /dev/null
mpiexec_curie (handle_stdin_input 1065):     e.g.: mpiexec -n 4 a.out < /dev/null &
mpiexec_curie (handle_stdin_input 1064): stdin problem; if pgm is run in background, redirect from /dev/null
mpiexec_curie (handle_stdin_input 1065):     e.g.: mpiexec -n 4 a.out < /dev/null &
mpiexec_curie (handle_stdin_input 1064): stdin problem; if pgm is run in background, redirect from /dev/null
mpiexec_curie (handle_stdin_input 1065):     e.g.: mpiexec -n 4 a.out < /dev/null &
mpiexec_curie (handle_stdin_input 1064): stdin problem; if pgm is run in background, redirect from /dev/null
mpiexec_curie (handle_stdin_input 1065):     e.g.: mpiexec -n 4 a.out < /dev/null &
mpiexec_curie (handle_stdin_input 1064): stdin problem; if pgm is run in background, redirect from /dev/null
mpiexec_curie (handle_stdin_input 1065):     e.g.: mpiexec -n 4 a.out < /dev/null &
mpiexec_curie (handle_stdin_input 1064): stdin problem; if pgm is run in background, redirect from /dev/null
mpiexec_curie (handle_stdin_input 1065):     e.g.: mpiexec -n 4 a.out < /dev/null &
mpiexec_curie (handle_stdin_input 1064): stdin problem; if pgm is run in background, redirect from /dev/null
mpiexec_curie (handle_stdin_input 1065):     e.g.: mpiexec -n 4 a.out < /dev/null &
mpiexec_curie (handle_stdin_input 1064): stdin problem; if pgm is run in background, redirect from /dev/null
mpiexec_curie (handle_stdin_input 1065):     e.g.: mpiexec -n 4 a.out < /dev/null &
mpiexec_curie (handle_stdin_input 1064): stdin problem; if pgm is run in background, redirect from /dev/null
mpiexec_curie (handle_stdin_input 1065):     e.g.: mpiexec -n 4 a.out < /dev/null &
 
      Non-variational initial energy
      ------------------------------

 Total energy =   -7231.254059
 1-e energy   =   -9930.471514
 2-e energy   =    2699.217456
 HOMO         =      -0.458186
 LUMO         =       0.337287
 
   Time after variat. SCF:      0.7
 dft_zora_read: failed to open ./xe_zora_sf.zora_sf

 Read atomic ZORA corrections from ./xe_zora_sf.zora_sf

mpiexec_curie (handle_stdin_input 1064): stdin problem; if pgm is run in background, redirect from /dev/null
mpiexec_curie (handle_stdin_input 1065):     e.g.: mpiexec -n 4 a.out < /dev/null &
mpiexec_curie (handle_stdin_input 1064): stdin problem; if pgm is run in background, redirect from /dev/null
mpiexec_curie (handle_stdin_input 1065):     e.g.: mpiexec -n 4 a.out < /dev/null &
mpiexec_curie (handle_stdin_input 1064): stdin problem; if pgm is run in background, redirect from /dev/null
mpiexec_curie (handle_stdin_input 1065):     e.g.: mpiexec -n 4 a.out < /dev/null &
mpiexec_curie (handle_stdin_input 1064): stdin problem; if pgm is run in background, redirect from /dev/null
mpiexec_curie (handle_stdin_input 1065):     e.g.: mpiexec -n 4 a.out < /dev/null &
mpiexec_curie (handle_stdin_input 1064): stdin problem; if pgm is run in background, redirect from /dev/null
mpiexec_curie (handle_stdin_input 1065):     e.g.: mpiexec -n 4 a.out < /dev/null &
mpiexec_curie (handle_stdin_input 1064): stdin problem; if pgm is run in background, redirect from /dev/null
mpiexec_curie (handle_stdin_input 1065):     e.g.: mpiexec -n 4 a.out < /dev/null &
mpiexec_curie (handle_stdin_input 1064): stdin problem; if pgm is run in background, redirect from /dev/null
mpiexec_curie (handle_stdin_input 1065):     e.g.: mpiexec -n 4 a.out < /dev/null &
mpiexec_curie (handle_stdin_input 1064): stdin problem; if pgm is run in background, redirect from /dev/null
mpiexec_curie (handle_stdin_input 1065):     e.g.: mpiexec -n 4 a.out < /dev/null &
mpiexec_curie (handle_stdin_input 1064): stdin problem; if pgm is run in background, redirect from /dev/null
mpiexec_curie (handle_stdin_input 1065):     e.g.: mpiexec -n 4 a.out < /dev/null &
mpiexec_curie (handle_stdin_input 1064): stdin problem; if pgm is run in background, redirect from /dev/null
mpiexec_curie (handle_stdin_input 1065):     e.g.: mpiexec -n 4 a.out < /dev/null &
mpiexec_curie (handle_stdin_input 1064): stdin problem; if pgm is run in background, redirect from /dev/null
mpiexec_curie (handle_stdin_input 1065):     e.g.: mpiexec -n 4 a.out < /dev/null &
mpiexec_curie (handle_stdin_input 1064): stdin problem; if pgm is run in background, redirect from /dev/null
mpiexec_curie (handle_stdin_input 1065):     e.g.: mpiexec -n 4 a.out < /dev/null &
mpiexec_curie (handle_stdin_input 1064): stdin problem; if pgm is run in background, redirect from /dev/null
mpiexec_curie (handle_stdin_input 1065):     e.g.: mpiexec -n 4 a.out < /dev/null &
mpiexec_curie (handle_stdin_input 1064): stdin problem; if pgm is run in background, redirect from /dev/null
mpiexec_curie (handle_stdin_input 1065):     e.g.: mpiexec -n 4 a.out < /dev/null &
mpiexec_curie (handle_stdin_input 1064): stdin problem; if pgm is run in background, redirect from /dev/null
mpiexec_curie (handle_stdin_input 1065):     e.g.: mpiexec -n 4 a.out < /dev/null &
mpiexec_curie (handle_stdin_input 1064): stdin problem; if pgm is run in background, redirect from /dev/null
mpiexec_curie (handle_stdin_input 1065):     e.g.: mpiexec -n 4 a.out < /dev/null &
mpiexec_curie (handle_stdin_input 1064): stdin problem; if pgm is run in background, redirect from /dev/null
mpiexec_curie (handle_stdin_input 1065):     e.g.: mpiexec -n 4 a.out < /dev/null &
mpiexec_curie (handle_stdin_input 1064): stdin problem; if pgm is run in background, redirect from /dev/null
mpiexec_curie (handle_stdin_input 1065):     e.g.: mpiexec -n 4 a.out < /dev/null &
mpiexec_curie (handle_stdin_input 1064): stdin problem; if pgm is run in background, redirect from /dev/null
mpiexec_curie (handle_stdin_input 1065):     e.g.: mpiexec -n 4 a.out < /dev/null &
mpiexec_curie (handle_stdin_input 1064): stdin problem; if pgm is run in background, redirect from /dev/null
mpiexec_curie (handle_stdin_input 1065):     e.g.: mpiexec -n 4 a.out < /dev/null &
mpiexec_curie (handle_stdin_input 1064): stdin problem; if pgm is run in background, redirect from /dev/null
mpiexec_curie (handle_stdin_input 1065):     e.g.: mpiexec -n 4 a.out < /dev/null &

 Grid_pts file          = ./xe_zora_sf.gridpts.0
 Record size in doubles =  12289        No. of grid_pts per rec  =   3070
 Max. records in memory =      8        Max. recs in file   =    463978


 Wrote atomic ZORA corrections to ./xe_zora_sf.zora_sf

   Time prior to 1st pass:      1.9
mpiexec_curie (handle_stdin_input 1064): stdin problem; if pgm is run in background, redirect from /dev/null
mpiexec_curie (handle_stdin_input 1065):     e.g.: mpiexec -n 4 a.out < /dev/null &
mpiexec_curie (handle_stdin_input 1064): stdin problem; if pgm is run in background, redirect from /dev/null
mpiexec_curie (handle_stdin_input 1065):     e.g.: mpiexec -n 4 a.out < /dev/null &
mpiexec_curie (handle_stdin_input 1064): stdin problem; if pgm is run in background, redirect from /dev/null
mpiexec_curie (handle_stdin_input 1065):     e.g.: mpiexec -n 4 a.out < /dev/null &

 #quartets = 5.564D+03 #integrals = 3.107D+04 #direct =  0.0% #cached =100.0%


 Integral file          = ./xe_zora_sf.aoints.0
 Record size in doubles =  65536        No. of integs per rec  =  43688
 Max. records in memory =      3        Max. records in file   =  87000
 No. of bits per label  =      8        No. of bits per value  =     64


File balance: exchanges=     0  moved=     0  time=   0.0


           Memory utilization after 1st SCF pass: 
           Heap Space remaining (MW):       12.81            12806309
          Stack Space remaining (MW):       13.11            13106916

   convergence    iter        energy       DeltaE   RMS-Dens  Diis-err    time
 ---------------- ----- ----------------- --------- --------- ---------  ------
 d= 0,ls=0.0,diis     1  -7499.1056247283 -7.50D+03  4.17D-02  6.38D+01     2.5
 d= 0,ls=0.0,diis     2  -7499.1620555966 -5.64D-02  2.31D-02  4.47D-02     2.6
 d= 0,ls=0.0,diis     3  -7499.1658650192 -3.81D-03  9.79D-03  2.40D-02     2.7
 d= 0,ls=0.0,diis     4  -7499.1703475303 -4.48D-03  1.69D-04  4.31D-06     2.8
 d= 0,ls=0.0,diis     5  -7499.1703487314 -1.20D-06  4.69D-06  1.20D-08     2.9
 d= 0,ls=0.0,diis     6  -7499.1703487327 -1.30D-09  2.19D-07  8.21D-12     2.9


         Total DFT energy =    -7499.170348732714
       Scaling correction =       98.349262096852
      One electron energy =   -10208.585270612839
           Coulomb energy =     2885.249967346145
    Exchange-Corr. energy =     -175.835045466021
 Nuclear repulsion energy =        0.000000000000

 Numeric. integr. density =       54.000000027206

     Total iterative time =      1.0s


 
                       DFT Final Molecular Orbital Analysis
                       ------------------------------------
 
 Vector   17  Occ=2.000000D+00  E=-5.272159D+00
              MO Center=  2.6D-09, -2.2D-09,  2.2D-09, r^2= 1.9D-01
   Bfn.  Coefficient  Atom+Function         Bfn.  Coefficient  Atom+Function  
  ----- ------------  ---------------      ----- ------------  ---------------
    15     -0.881652  1 Xe pz                13      0.815746  1 Xe px         
    12     -0.524069  1 Xe pz                10      0.484893  1 Xe px         
 
 Vector   18  Occ=2.000000D+00  E=-5.272159D+00
              MO Center=  2.2D-09, -2.2D-09,  2.6D-09, r^2= 1.9D-01
   Bfn.  Coefficient  Atom+Function         Bfn.  Coefficient  Atom+Function  
  ----- ------------  ---------------      ----- ------------  ---------------
    14     -1.006461  1 Xe py                11     -0.598258  1 Xe py         
    13     -0.525553  1 Xe px                15     -0.399241  1 Xe pz         
    10     -0.312397  1 Xe px                12     -0.237316  1 Xe pz         
     8      0.166309  1 Xe py         
 
 Vector   19  Occ=2.000000D+00  E=-2.282005D+00
              MO Center= -3.2D-09,  3.0D-09, -3.4D-09, r^2= 2.5D-01
   Bfn.  Coefficient  Atom+Function         Bfn.  Coefficient  Atom+Function  
  ----- ------------  ---------------      ----- ------------  ---------------
    30     -0.658096  1 Xe d  1              28     -0.606269  1 Xe d -1       
    27     -0.600529  1 Xe d -2              25      0.259868  1 Xe d  1       
    23      0.239402  1 Xe d -1              22      0.237136  1 Xe d -2       
 
 Vector   20  Occ=2.000000D+00  E=-2.282005D+00
              MO Center= -1.9D-09,  1.9D-09, -2.2D-09, r^2= 2.5D-01
   Bfn.  Coefficient  Atom+Function         Bfn.  Coefficient  Atom+Function  
  ----- ------------  ---------------      ----- ------------  ---------------
    29      0.799690  1 Xe d  0              27      0.441268  1 Xe d -2       
    31     -0.407288  1 Xe d  2              28     -0.403544  1 Xe d -1       
    24     -0.315780  1 Xe d  0              22     -0.174247  1 Xe d -2       
    26      0.160829  1 Xe d  2              23      0.159351  1 Xe d -1       
 
 Vector   21  Occ=2.000000D+00  E=-2.282005D+00
              MO Center= -2.1D-09,  1.8D-09, -2.1D-09, r^2= 2.5D-01
   Bfn.  Coefficient  Atom+Function         Bfn.  Coefficient  Atom+Function  
  ----- ------------  ---------------      ----- ------------  ---------------
    31      0.755901  1 Xe d  2              30     -0.505382  1 Xe d  1       
    29      0.381820  1 Xe d  0              28      0.332318  1 Xe d -1       
    26     -0.298489  1 Xe d  2              27      0.283637  1 Xe d -2       
    25      0.199564  1 Xe d  1              24     -0.150773  1 Xe d  0       
 
 Vector   22  Occ=2.000000D+00  E=-2.282005D+00
              MO Center=  1.6D-10,  3.7D-11, -1.2D-10, r^2= 2.5D-01
   Bfn.  Coefficient  Atom+Function         Bfn.  Coefficient  Atom+Function  
  ----- ------------  ---------------      ----- ------------  ---------------
    30      0.684547  1 Xe d  1              31      0.541029  1 Xe d  2       
    27     -0.419528  1 Xe d -2              29      0.387076  1 Xe d  0       
    28     -0.276261  1 Xe d -1              25     -0.270313  1 Xe d  1       
    26     -0.213640  1 Xe d  2              22      0.165663  1 Xe d -2       
    24     -0.152848  1 Xe d  0       
 
 Vector   23  Occ=2.000000D+00  E=-2.282005D+00
              MO Center=  6.4D-11, -1.1D-10, -1.6D-10, r^2= 2.5D-01
   Bfn.  Coefficient  Atom+Function         Bfn.  Coefficient  Atom+Function  
  ----- ------------  ---------------      ----- ------------  ---------------
    28     -0.668060  1 Xe d -1              27      0.593012  1 Xe d -2       
    29     -0.477131  1 Xe d  0              31      0.363318  1 Xe d  2       
    23      0.263802  1 Xe d -1              22     -0.234167  1 Xe d -2       
    24      0.188409  1 Xe d  0       
 
 Vector   24  Occ=2.000000D+00  E=-7.078216D-01
              MO Center= -4.5D-09,  1.5D-09,  1.5D-09, r^2= 1.1D+00
   Bfn.  Coefficient  Atom+Function         Bfn.  Coefficient  Atom+Function  
  ----- ------------  ---------------      ----- ------------  ---------------
     5     -0.819382  1 Xe s                  4     -0.589316  1 Xe s          
     6      0.339172  1 Xe s                  3      0.274603  1 Xe s          
 
 Vector   25  Occ=2.000000D+00  E=-3.086987D-01
              MO Center= -1.3D-08,  2.1D-08, -2.1D-08, r^2= 1.7D+00
   Bfn.  Coefficient  Atom+Function         Bfn.  Coefficient  Atom+Function  
  ----- ------------  ---------------      ----- ------------  ---------------
    17      0.802468  1 Xe py                14      0.458380  1 Xe py         
    16      0.412159  1 Xe px                18      0.347187  1 Xe pz         
    13      0.235431  1 Xe px                11      0.199472  1 Xe py         
    15      0.198318  1 Xe pz                20      0.174046  1 Xe py         
 
 Vector   26  Occ=2.000000D+00  E=-3.086987D-01
              MO Center= -3.8D-09,  1.2D-08, -3.5D-08, r^2= 1.7D+00
   Bfn.  Coefficient  Atom+Function         Bfn.  Coefficient  Atom+Function  
  ----- ------------  ---------------      ----- ------------  ---------------
    18     -0.698423  1 Xe pz                16      0.667037  1 Xe px         
    15     -0.398949  1 Xe pz                13      0.381021  1 Xe px         
    12     -0.173610  1 Xe pz                10      0.165808  1 Xe px         
    21     -0.151480  1 Xe pz         
 
 Vector   27  Occ=2.000000D+00  E=-3.086986D-01
              MO Center= -5.1D-08,  4.7D-08, -5.6D-08, r^2= 1.7D+00
   Bfn.  Coefficient  Atom+Function         Bfn.  Coefficient  Atom+Function  
  ----- ------------  ---------------      ----- ------------  ---------------
    18      0.570994  1 Xe pz                16      0.565291  1 Xe px         
    17     -0.537382  1 Xe py                15      0.326160  1 Xe pz         
    13      0.322902  1 Xe px                14     -0.306960  1 Xe py         
 
 Vector   28  Occ=0.000000D+00  E= 1.779437D-01
              MO Center= -3.6D-08, -4.0D-09,  7.4D-08, r^2= 5.1D+00
   Bfn.  Coefficient  Atom+Function         Bfn.  Coefficient  Atom+Function  
  ----- ------------  ---------------      ----- ------------  ---------------
    21      0.957965  1 Xe pz                19     -0.942101  1 Xe px         
    18     -0.853257  1 Xe pz                16      0.839127  1 Xe px         
    15     -0.332080  1 Xe pz                13      0.326581  1 Xe px         
 
 Vector   29  Occ=0.000000D+00  E= 1.779437D-01
              MO Center=  1.4D-08, -2.4D-08,  1.4D-08, r^2= 5.1D+00
   Bfn.  Coefficient  Atom+Function         Bfn.  Coefficient  Atom+Function  
  ----- ------------  ---------------      ----- ------------  ---------------
    20      1.137307  1 Xe py                17     -1.012996  1 Xe py         
    19      0.519855  1 Xe px                21      0.491739  1 Xe pz         
    16     -0.463033  1 Xe px                18     -0.437990  1 Xe pz         
    14     -0.394249  1 Xe py                13     -0.180209  1 Xe px         
    15     -0.170462  1 Xe pz                11     -0.162604  1 Xe py         
 
 Vector   30  Occ=0.000000D+00  E= 1.779437D-01
              MO Center=  2.3D-07, -2.1D-07,  2.3D-07, r^2= 5.1D+00
   Bfn.  Coefficient  Atom+Function         Bfn.  Coefficient  Atom+Function  
  ----- ------------  ---------------      ----- ------------  ---------------
    19     -0.804810  1 Xe px                21     -0.803752  1 Xe pz         
    16      0.716842  1 Xe px                18      0.715900  1 Xe pz         
    20      0.715392  1 Xe py                17     -0.637198  1 Xe py         
    13      0.278989  1 Xe px                15      0.278622  1 Xe pz         
    14     -0.247992  1 Xe py         
 
 Vector   31  Occ=0.000000D+00  E= 2.570384D-01
              MO Center= -6.5D-08,  9.9D-08, -1.6D-07, r^2= 2.8D+00
   Bfn.  Coefficient  Atom+Function         Bfn.  Coefficient  Atom+Function  
  ----- ------------  ---------------      ----- ------------  ---------------
     6     -2.157019  1 Xe s                  5     -2.088634  1 Xe s          
     3      0.334303  1 Xe s          
 
 Vector   32  Occ=0.000000D+00  E= 2.839247D-01
              MO Center= -7.7D-10,  5.3D-09,  6.1D-09, r^2= 1.9D+00
   Bfn.  Coefficient  Atom+Function         Bfn.  Coefficient  Atom+Function  
  ----- ------------  ---------------      ----- ------------  ---------------
    35      0.686475  1 Xe d  1              36      0.478863  1 Xe d  2       
    32     -0.438178  1 Xe d -2              34      0.337532  1 Xe d  0       
    33     -0.308229  1 Xe d -1              30      0.232571  1 Xe d  1       
    31      0.162234  1 Xe d  2       
 
 Vector   33  Occ=0.000000D+00  E= 2.839247D-01
              MO Center= -7.6D-09, -4.8D-09,  3.3D-09, r^2= 1.9D+00
   Bfn.  Coefficient  Atom+Function         Bfn.  Coefficient  Atom+Function  
  ----- ------------  ---------------      ----- ------------  ---------------
    33     -0.659790  1 Xe d -1              32      0.592207  1 Xe d -2       
    34     -0.447941  1 Xe d  0              36      0.331339  1 Xe d  2       
    28     -0.223530  1 Xe d -1              27      0.200634  1 Xe d -2       
    29     -0.151758  1 Xe d  0       
 
 Vector   34  Occ=0.000000D+00  E= 2.839248D-01
              MO Center=  7.6D-10, -7.7D-10,  7.2D-10, r^2= 1.9D+00
   Bfn.  Coefficient  Atom+Function         Bfn.  Coefficient  Atom+Function  
  ----- ------------  ---------------      ----- ------------  ---------------
    36      0.744471  1 Xe d  2              34      0.446613  1 Xe d  0       
    35     -0.420832  1 Xe d  1              32      0.294490  1 Xe d -2       
    33      0.289772  1 Xe d -1              31      0.252219  1 Xe d  2       
    29      0.151308  1 Xe d  0       
 
 Vector   35  Occ=0.000000D+00  E= 2.839248D-01
              MO Center= -1.7D-09, -2.6D-09,  7.4D-09, r^2= 1.9D+00
   Bfn.  Coefficient  Atom+Function         Bfn.  Coefficient  Atom+Function  
  ----- ------------  ---------------      ----- ------------  ---------------
    34      0.765639  1 Xe d  0              36     -0.453727  1 Xe d  2       
    32      0.393817  1 Xe d -2              33     -0.392554  1 Xe d -1       
    29      0.259391  1 Xe d  0              31     -0.153718  1 Xe d  2       
 
 Vector   36  Occ=0.000000D+00  E= 2.839248D-01
              MO Center= -6.5D-08,  5.7D-08, -6.3D-08, r^2= 1.9D+00
   Bfn.  Coefficient  Atom+Function         Bfn.  Coefficient  Atom+Function  
  ----- ------------  ---------------      ----- ------------  ---------------
    35     -0.669246  1 Xe d  1              33     -0.577146  1 Xe d -1       
    32     -0.562999  1 Xe d -2              30     -0.226734  1 Xe d  1       
    28     -0.195531  1 Xe d -1              27     -0.190738  1 Xe d -2       
 

 Parallel integral file used       4 records with       0 large values


 Task  times  cpu:        2.9s     wall:        4.2s
 
 
                                NWChem Input Module
                                -------------------
 
 
 Summary of allocated global arrays
-----------------------------------
  No active global arrays



                         GA Statistics for process    0
                         ------------------------------

       create   destroy   get      put      acc     scatter   gather  read&inc
calls:  105      105     2822      987      164        0        0        0     
number of processes/call 1.07e+00 1.14e+00 1.46e+00 0.00e+00 0.00e+00
bytes total:             3.77e+06 8.88e+05 1.70e+06 0.00e+00 0.00e+00 0.00e+00
bytes remote:            1.54e+05 7.38e+04 1.16e+05 0.00e+00 0.00e+00 0.00e+00
Max memory consumed for GA by this process: 393984 bytes
 
MA_summarize_allocated_blocks: starting scan ...
MA_summarize_allocated_blocks: scan completed: 0 heap blocks, 0 stack blocks
MA usage statistics:

	allocation statistics:
					      heap	     stack
					      ----	     -----
	current number of blocks	         0	         0
	maximum number of blocks	        23	        48
	current total bytes		         0	         0
	maximum total bytes		   2406656	  22510872
	maximum total K-bytes		      2407	     22511
	maximum total M-bytes		         3	        23



                                  ACKNOWLEDGEMENT
                                  ---------------

            Please use the following acknowledgement where appropriate 
            for results obtained with NWChem:

            High Performance Computational Chemistry Group, "NWChem, A
            Computational Chemistry Package for Parallel Computers, 
            Version 5.0" (2006), Pacific Northwest National Laboratory,
            Richland, Washington 99352-0999, USA.


                                     CITATION
                                     --------

            Please use the following citation when publishing results
            obtained with NWChem:

            E. Apra, T. L. Windus, T. P. Straatsma, E. J. Bylaska, W. de Jong,
            K. Kowalski, S. Hirata, M. Valiev, D. Wang, M. T. Hackler,
            Y. Zhao, R. J. Harrison, M. Dupuis, D. M. A. Smith, J. Nieplocha,
            V. Tipparaju, M. Krishnan, A. A. Auer, E. Brown, G. Cisneros,
            G. I. Fann, H. Fruchtl, J. Garza, K. Hirao, R. Kendall,
            J. A. Nichols, K. Tsemekhman, K. Wolinski, J. Anchell, D. Bernholdt,
            P. Borowski, T. Clark, D. Clerc, H. Dachsel, M. Deegan, K. Dyall,
            D. Elwood, E. Glendening, M. Gutowski, A. Hess, J. Jaffe,
            B. Johnson, J. Ju, R. Kobayashi, R. Kutteh, Z. Lin, R. Littlefield,
            X. Long, B. Meng, T. Nakajima, S. Niu, L. Pollack, M. Rosing,
            G. Sandrone, M. Stave, H. Taylor, G. Thomas, J. van Lenthe, A. Wong,
            and Z. Zhang,
            "NWChem, A Computational Chemistry Package for Parallel Computers, 
            Version 5.0" (2006),
                      Pacific Northwest National Laboratory,
                      Richland, Washington 99352-0999, USA.



 Total times  cpu:        2.9s     wall:        5.7s
