 argument  1 = /Users/edo/builds/a4cGwnyq/0/edoapra/nwchem/QA/tests/pspw_vs98_h2o/pspw_vs98_h2o.nw



============================== echo of input deck ==============================
title "pspw_vs98 QA test for H2O"

echo

start pspw_vs98_H2O1

memory 1900 mb


charge 0

geometry noautoz nocenter noautosym
O     0.00000   -0.05890    0.00000
H    -0.81100    0.46770    0.00000
H     0.81100    0.46770    0.00000
end

nwpw
  simulation_cell
    SC 20.0
  end
  odft
  mult 1
  xc vs98
  lmbfgs
  cutoff 50.0
  #cutoff 5.0
end

set nwpw:cif_filename H2O1

task pspw energy ignore

nwpw
  dft
end
task pspw energy

driver
   clear
   maxiter 30
end
task pspw optimize ignore


================================================================================


                                         
                                         


             Northwest Computational Chemistry Package (NWChem) 7.0.1
             --------------------------------------------------------


                    Environmental Molecular Sciences Laboratory
                       Pacific Northwest National Laboratory
                                Richland, WA 99352

                              Copyright (c) 1994-2020
                       Pacific Northwest National Laboratory
                            Battelle Memorial Institute

             NWChem is an open-source computational chemistry package
                        distributed under the terms of the
                      Educational Community License (ECL) 2.0
             A copy of the license is included with this distribution
                              in the LICENSE.TXT file

                                  ACKNOWLEDGMENT
                                  --------------

            This software and its documentation were developed at the
            EMSL at Pacific Northwest National Laboratory, a multiprogram
            national laboratory, operated for the U.S. Department of Energy
            by Battelle under Contract Number DE-AC05-76RL01830. Support
            for this work was provided by the Department of Energy Office
            of Biological and Environmental Research, Office of Basic
            Energy Sciences, and the Office of Advanced Scientific Computing.


           Job information
           ---------------

    hostname        = we27962
    program         = /Users/edo/builds/a4cGwnyq/0/edoapra/nwchem/bin/MACX64/nwchem
    date            = Wed Apr  7 12:36:38 2021

    compiled        = Wed_Apr_07_11:37:12_2021
    source          = /Users/edo/builds/a4cGwnyq/0/edoapra/nwchem
    nwchem branch   = 7.0.0
    nwchem revision = eca73c56
    ga revision     = 5.8.0
    use scalapack   = T
    input           = /Users/edo/builds/a4cGwnyq/0/edoapra/nwchem/QA/tests/pspw_vs98_h2o/pspw_vs98_h2o.nw
    prefix          = pspw_vs98_H2O1.
    data base       = ./pspw_vs98_H2O1.db
    status          = startup
    nproc           =        2
    time left       =     -1s



           Memory information
           ------------------

    heap     =   96847640 doubles =    738.9 Mbytes
    stack    =   96847641 doubles =    738.9 Mbytes
    global   =   55341511 doubles =    422.2 Mbytes (distinct from heap & stack)
    total    =  249036792 doubles =   1900.0 Mbytes
    verify   = yes
    hardfail = no 


           Directory information
           ---------------------

  0 permanent = .
  0 scratch   = .




                                NWChem Input Module
                                -------------------


                             pspw_vs98 QA test for H2O
                             -------------------------

 Scaling coordinates for geometry "geometry" by  1.889725989
 (inverse scale =  0.529177249)



                             Geometry "geometry" -> ""
                             -------------------------

 Output coordinates in angstroms (scale by  1.889725989 to convert to a.u.)

  No.       Tag          Charge          X              Y              Z
 ---- ---------------- ---------- -------------- -------------- --------------
    1 O                    8.0000     0.00000000    -0.05890000     0.00000000
    2 H                    1.0000    -0.81100000     0.46770000     0.00000000
    3 H                    1.0000     0.81100000     0.46770000     0.00000000

      Atomic Mass 
      ----------- 

      O                 15.994910
      H                  1.007825


 Effective nuclear repulsion energy (a.u.)       9.0823094384

            Nuclear Dipole moment (a.u.) 
            ----------------------------
        X                 Y               Z
 ---------------- ---------------- ----------------
     0.0000000000     0.8772108039     0.0000000000


            XYZ format geometry
            -------------------
     3
 geometry
 O                     0.00000000    -0.05890000     0.00000000
 H                    -0.81100000     0.46770000     0.00000000
 H                     0.81100000     0.46770000     0.00000000

 ==============================================================================
                                internuclear distances
 ------------------------------------------------------------------------------
       center one      |      center two      | atomic units |  angstroms
 ------------------------------------------------------------------------------
    2 H                |   1 O                |     1.82731  |     0.96697
    3 H                |   1 O                |     1.82731  |     0.96697
 ------------------------------------------------------------------------------
                         number of included internuclear distances:          2
 ==============================================================================



 ==============================================================================
                                 internuclear angles
 ------------------------------------------------------------------------------
        center 1       |       center 2       |       center 3       |  degrees
 ------------------------------------------------------------------------------
    2 H                |   1 O                |   3 H                |   114.01
 ------------------------------------------------------------------------------
                            number of included internuclear angles:          1
 ==============================================================================



          ****************************************************
          *                                                  *
          *               NWPW PSPW Calculation              *
          *                                                  *
          * [ (Grassmann/Stiefel manifold implementation)  ] *
          *                                                  *
          *      [ NorthWest Chemistry implementation ]      *
          *                                                  *
          *            version #5.10   06/12/02              *
          *                                                  *
          *    This code was developed by Eric J. Bylaska,   *
          *    and was based upon algorithms and code        *
          *    developed by the group of Prof. John H. Weare *
          *                                                  *
          ****************************************************
     >>>  JOB STARTED       AT Wed Apr  7 12:36:38 2021  <<<
          ================ input data ========================
  library name resolved from: compiled reference
  NWCHEM_NWPW_LIBRARY set to: </Users/edo/builds/a4cGwnyq/0/edoapra/nwchem/src/nwpw/libraryps/>
 Generating 1d pseudopotential for O   

 Generated formatted_filename: ./O.vpp
  library name resolved from: compiled reference
  NWCHEM_NWPW_LIBRARY set to: </Users/edo/builds/a4cGwnyq/0/edoapra/nwchem/src/nwpw/libraryps/>
 Generating 1d pseudopotential for H   

 Generated formatted_filename: ./H.vpp
 random planewave guess, initial psi:pspw_vs98_H2O1.movecs                             
 -   spin, nalpha, nbeta:                    2                    4                    4

 input psi filename:./pspw_vs98_H2O1.movecs

 Warning - K.S. orbitals are not orthonormal. Applying Gram-Schmidt orthonormalization.
         - exact norm=0.800000E+01 norm=0.531127E+01 corrected norm=0.800000E+01 (error=0.268873E+01)


 number of processors used:         2
 processor grid           :   2 x   1
 parallel mapping         :2d hilbert
 parallel mapping         :  balanced
 number of threads        :         1
 parallel io              :       off

 options:
      boundary conditions  = periodic    (version3)
      electron spin        = unrestricted
      exchange-correlation = VS98
      - Meta GGA Functional

 elements involved in the cluster:
      1: O   valence charge:  6.0000  lmax=  2
             comment    : Parameterized (Chem.Phys.Lett., vol 322, page 447) Hamman psp
             pseudpotential type            :   0
             highest angular component      :   2
             local potential used           :   2
             number of non-local projections:   4
             cutoff =   0.700   0.700   0.700

      2: H   valence charge:  1.0000  lmax=  1
             comment    : Parameterized (Chem.Phys.Lett., vol 322, page 447) Hamman psp
             pseudpotential type            :   0
             highest angular component      :   1
             local potential used           :   1
             number of non-local projections:   1
             cutoff =   0.800   0.800


 total charge:   0.000

 atomic composition:
     O   :    1     H   :    2

 number of electrons: spin up=     4 (   4 per task)  down=     4 (   4 per task) (Fourier space)
 number of orbitals : spin up=     4 (   4 per task)  down=     4 (   4 per task) (Fourier space)

 supercell:
      cell_name:  cell_default                                      
      lattice:    a1=<  20.000   0.000   0.000 >
                  a2=<   0.000  20.000   0.000 >
                  a3=<   0.000   0.000  20.000 >
      reciprocal: b1=<   0.314   0.000   0.000 >
                  b2=<   0.000   0.314   0.000 >
                  b3=<   0.000   0.000   0.314 >
      lattice:    a=      20.000 b=     20.000 c=      20.000
                  alpha=  90.000 beta=  90.000 gamma=  90.000
                  omega=      8000.0

      density cutoff= 25.000  fft= 48x 48x 48(    23917 waves    11959 per task)
      wavefnc cutoff= 12.500  fft= 48x 48x 48(     8440 waves     4220 per task)
      Ewald summation: cut radius=    6.37  and  1
                       Madelung Wigner-Seitz=    1.76011888 (alpha=    2.83729748 rs=12.40700982)

 technical parameters:
      time step=      5.80     fictitious mass=  400000.0
      tolerance=0.100E-06 (energy)   0.100E-06 (density)
      maximum iterations =      1000 (   10 inner    100 outer )





== Energy Calculation ==


          ============ Grassmann lmbfgs iteration ============
     >>>  ITERATION STARTED AT Wed Apr  7 12:36:40 2021  <<<
    iter.           Energy         DeltaE       DeltaRho 
    ------------------------------------------------------
     -  15 steepest descent iterations performed
      10   -0.1541574503E+02   -0.46345E+00    0.22596E+01
     -  10 steepest descent iterations performed
      20   -0.1649397256E+02   -0.10508E-01    0.48856E-01
     -  10 steepest descent iterations performed
      30   -0.1651259179E+02   -0.15134E-03    0.25933E-03
      40   -0.1651298762E+02   -0.63605E-05    0.91531E-05
      50   -0.1651300537E+02   -0.25232E-06    0.46266E-06
      60   -0.1651300578E+02   -0.93573E-07    0.40690E-08
  *** tolerance ok. iteration terminated
     >>>  ITERATION ENDED   AT Wed Apr  7 12:37:34 2021  <<<


==  Summary Of Results  ==

 number of electrons: spin up=    4.00000  down=    4.00000 (real space)

 total     energy    :  -0.1651300578E+02 (   -0.55043E+01/ion)
 total orbital energy:  -0.4101366438E+01 (   -0.51267E+00/electron)
 hartree   energy    :   0.1597802294E+02 (    0.19973E+01/electron)
 exc-corr  energy    :  -0.3971016336E+01 (   -0.49638E+00/electron)
 ion-ion   energy    :   0.2366648438E+01 (    0.78888E+00/ion)

 kinetic (planewave) :   0.1055082842E+02 (    0.13189E+01/electron)
 V_local (planewave) :  -0.4124791979E+02 (   -0.51560E+01/electron)
 V_nl    (planewave) :  -0.1895694565E+00 (   -0.23696E-01/electron)
 V_Coul  (planewave) :   0.3195604589E+02 (    0.39945E+01/electron)
 V_xc.   (planewave) :  -0.5170751496E+01 (   -0.64634E+00/electron)
 Virial Coefficient  :  -0.1388724589E+01

 orbital energies:
    -0.2391083E+00 (  -6.507eV)    -0.2391105E+00 (  -6.507eV)
    -0.3191787E+00 (  -8.685eV)    -0.3191791E+00 (  -8.685eV)
    -0.4870925E+00 ( -13.255eV)    -0.4870907E+00 ( -13.255eV)
    -0.1005302E+01 ( -27.356eV)    -0.1005304E+01 ( -27.356eV)

 Total PSPW energy     :  -0.1651300578E+02


=== Spin Contamination ===

 <Sexact^2> =    0.0000000000000000     
 <S^2>      =    8.8914582541121945E-007



== Center of Charge ==

spin up     (    0.0000,    0.0669,    0.0001 )
spin down   (    0.0000,    0.0669,   -0.0000 )
     total  (    0.0000,    0.0669,    0.0000 )
ionic       (    0.0000,    0.1375,    0.0000 )


== Molecular Dipole wrt Center of Mass ==

mu   =  (   -0.0001,    0.5646,   -0.0003 ) au
|mu| =     0.5646 au,       1.4349 Debye

 output psi filename:./pspw_vs98_H2O1.movecs

 Writing Crystallographic Information File:./H2O1.cif
   - cell not shifted (nwpw:cif_shift_cell .false.)


== Timing ==

cputime in seconds
  prologue    :   0.179298E+01
  main loop   :   0.542287E+02
  epilogue    :   0.526280E-01
  total       :   0.560743E+02
  cputime/step:   0.347620E+00       (     156 evalulations,      53 linesearches)


Time spent doing                        total          step       percent
  total time                 :   0.560749E+02  0.359454E+00       100.0 %
  i/o time                   :   0.151238E+01  0.969478E-02         2.7 %
  FFTs                       :   0.318242E+02  0.204001E+00        56.8 %
  dot products               :   0.170846E+00  0.109517E-02         0.3 %
  geodesic                   :   0.246858E+00  0.158242E-02         0.4 %
  ffm_dgemm                  :   0.639952E-01  0.410225E-03         0.1 %
  fmf_dgemm                  :   0.135354E+00  0.867655E-03         0.2 %
  mmm_dgemm                  :   0.337071E-02  0.216071E-04         0.0 %
  m_diagonalize              :   0.273896E-02  0.175574E-04         0.0 %
  exchange correlation       :   0.182046E+02  0.116696E+00        32.5 %
  local pseudopotentials     :   0.647000E-03  0.414744E-05         0.0 %
  non-local pseudopotentials :   0.162913E+00  0.104431E-02         0.3 %
  hartree potentials         :   0.314540E-01  0.201628E-03         0.1 %
  ion-ion interaction        :   0.329700E-02  0.211346E-04         0.0 %
  structure factors          :   0.271984E-01  0.174349E-03         0.0 %
  phase factors              :   0.160000E-04  0.102564E-06         0.0 %
  masking and packing        :   0.313440E+01  0.200923E-01         5.6 %
  queue fft                  :   0.503082E+01  0.322488E-01         9.0 %
  queue fft (serial)         :   0.233251E+01  0.149520E-01         4.2 %
  queue fft (message passing):   0.254976E+01  0.163446E-01         4.5 %
  non-local psp FFM          :   0.999721E-01  0.640847E-03         0.2 %
  non-local psp FMF          :   0.341790E-01  0.219096E-03         0.1 %
  non-local psp FFM A        :   0.156416E-01  0.100267E-03         0.0 %
  non-local psp FFM B        :   0.605440E-01  0.388103E-03         0.1 %

     >>>  JOB COMPLETED     AT Wed Apr  7 12:37:34 2021  <<<
          ****************************************************
          *                                                  *
          *               NWPW PSPW Calculation              *
          *                                                  *
          * [ (Grassmann/Stiefel manifold implementation)  ] *
          *                                                  *
          *      [ NorthWest Chemistry implementation ]      *
          *                                                  *
          *            version #5.10   06/12/02              *
          *                                                  *
          *    This code was developed by Eric J. Bylaska,   *
          *    and was based upon algorithms and code        *
          *    developed by the group of Prof. John H. Weare *
          *                                                  *
          ****************************************************
     >>>  JOB STARTED       AT Wed Apr  7 12:37:34 2021  <<<
          ================ input data ========================
 pseudopotential is not correctly formatted:O.vpp                                             

 Generated formatted_filename: ./O.vpp
 pseudopotential is not correctly formatted:H.vpp                                             

 Generated formatted_filename: ./H.vpp
 Error reading psi - bad grid
 nfft :                   48                   48                   48
 ngrid:                   70                   70                   70
 Error reading psi - bad grid
 nfft :                   48                   48                   48
 ngrid:                   70                   70                   70
 Error reading psi - bad grid

 Grid is being converted:
 ------------------------

 To turn off automatic grid conversion:

 set nwpw:psi_nogrid .false.

 old_filename: pspw_vs98_H2O1.movecs                             
 new_filename: pspw_vs98_H2O1.movecs                             
 converting  :  48x 48x 48 -->  70x 70x 70
converting .... psi:    1 spin: 1
converting .... psi:    2 spin: 1
converting .... psi:    3 spin: 1
converting .... psi:    4 spin: 1
converting .... psi:    1 spin: 2
converting .... psi:    2 spin: 2
converting .... psi:    3 spin: 2
converting .... psi:    4 spin: 2

 input psi filename:./pspw_vs98_H2O1.movecs

 number of processors used:         2
 processor grid           :   2 x   1
 parallel mapping         :2d hilbert
 parallel mapping         :  balanced
 number of threads        :         1
 parallel io              :       off

 options:
      boundary conditions  = periodic    (version3)
      electron spin        = unrestricted
      exchange-correlation = VS98
      - Meta GGA Functional

 elements involved in the cluster:
      1: O   valence charge:  6.0000  lmax=  2
             comment    : Parameterized (Chem.Phys.Lett., vol 322, page 447) Hamman psp
             pseudpotential type            :   0
             highest angular component      :   2
             local potential used           :   2
             number of non-local projections:   4
             cutoff =   0.700   0.700   0.700

      2: H   valence charge:  1.0000  lmax=  1
             comment    : Parameterized (Chem.Phys.Lett., vol 322, page 447) Hamman psp
             pseudpotential type            :   0
             highest angular component      :   1
             local potential used           :   1
             number of non-local projections:   1
             cutoff =   0.800   0.800


 total charge:   0.000

 atomic composition:
     O   :    1     H   :    2

 number of electrons: spin up=     4 (   4 per task)  down=     4 (   4 per task) (Fourier space)
 number of orbitals : spin up=     4 (   4 per task)  down=     4 (   4 per task) (Fourier space)

 supercell:
      cell_name:  cell_default                                      
      lattice:    a1=<  20.000   0.000   0.000 >
                  a2=<   0.000  20.000   0.000 >
                  a3=<   0.000   0.000  20.000 >
      reciprocal: b1=<   0.314   0.000   0.000 >
                  b2=<   0.000   0.314   0.000 >
                  b3=<   0.000   0.000   0.314 >
      lattice:    a=      20.000 b=     20.000 c=      20.000
                  alpha=  90.000 beta=  90.000 gamma=  90.000
                  omega=      8000.0

      density cutoff= 50.000  fft= 70x 70x 70(    67522 waves    33761 per task)
      wavefnc cutoff= 25.000  fft= 70x 70x 70(    23917 waves    11959 per task)
      Ewald summation: cut radius=    6.37  and  1
                       Madelung Wigner-Seitz=    1.76011888 (alpha=    2.83729748 rs=12.40700982)

 technical parameters:
      time step=      5.80     fictitious mass=  400000.0
      tolerance=0.100E-06 (energy)   0.100E-06 (density)
      maximum iterations =      1000 (   10 inner    100 outer )





== Energy Calculation ==


          ============ Grassmann lmbfgs iteration ============
     >>>  ITERATION STARTED AT Wed Apr  7 12:37:40 2021  <<<
    iter.           Energy         DeltaE       DeltaRho 
    ------------------------------------------------------
      10   -0.1706774643E+02   -0.44786E-03    0.69931E-01
      20   -0.1706910741E+02   -0.33442E-04    0.35564E-04
      30   -0.1706924143E+02   -0.44011E-05    0.99179E-05
      40   -0.1706925692E+02   -0.40126E-06    0.29289E-06
      50   -0.1706925816E+02   -0.80006E-07    0.32724E-08
  *** tolerance ok. iteration terminated
     >>>  ITERATION ENDED   AT Wed Apr  7 12:40:11 2021  <<<


==  Summary Of Results  ==

 number of electrons: spin up=    4.00000  down=    4.00000 (real space)

 total     energy    :  -0.1706925816E+02 (   -0.56898E+01/ion)
 total orbital energy:  -0.3937705952E+01 (   -0.49221E+00/electron)
 hartree   energy    :   0.1673323918E+02 (    0.20917E+01/electron)
 exc-corr  energy    :  -0.4103798793E+01 (   -0.51297E+00/electron)
 ion-ion   energy    :   0.2366648438E+01 (    0.78888E+00/ion)

 kinetic (planewave) :   0.1218443233E+02 (    0.15231E+01/electron)
 V_local (planewave) :  -0.4311126840E+02 (   -0.53889E+01/electron)
 V_nl    (planewave) :  -0.1138510924E+01 (   -0.14231E+00/electron)
 V_Coul  (planewave) :   0.3346647836E+02 (    0.41833E+01/electron)
 V_xc.   (planewave) :  -0.5338837324E+01 (   -0.66735E+00/electron)
 Virial Coefficient  :  -0.1323175167E+01

 orbital energies:
    -0.2541016E+00 (  -6.915eV)    -0.2541015E+00 (  -6.915eV)
    -0.3133267E+00 (  -8.526eV)    -0.3133267E+00 (  -8.526eV)
    -0.4861176E+00 ( -13.228eV)    -0.4861177E+00 ( -13.228eV)
    -0.9153071E+00 ( -24.907eV)    -0.9153071E+00 ( -24.907eV)

 Total PSPW energy     :  -0.1706925816E+02


=== Spin Contamination ===

 <Sexact^2> =    0.0000000000000000     
 <S^2>      =    4.4328309911634278E-009



== Center of Charge ==

spin up     (   -0.0000,    0.0518,    0.0000 )
spin down   (    0.0000,    0.0518,   -0.0000 )
     total  (    0.0000,    0.0518,    0.0000 )
ionic       (    0.0000,    0.1375,    0.0000 )


== Molecular Dipole wrt Center of Mass ==

mu   =  (   -0.0000,    0.6852,   -0.0000 ) au
|mu| =     0.6852 au,       1.7415 Debye

 output psi filename:./pspw_vs98_H2O1.movecs

 Writing Crystallographic Information File:./H2O1.cif
   - cell not shifted (nwpw:cif_shift_cell .false.)


== Timing ==

cputime in seconds
  prologue    :   0.612914E+01
  main loop   :   0.150979E+03
  epilogue    :   0.175122E+00
  total       :   0.157283E+03
  cputime/step:   0.145172E+01       (     104 evalulations,      47 linesearches)


Time spent doing                        total          step       percent
  total time                 :   0.157284E+03  0.151234E+01       100.0 %
  i/o time                   :   0.357534E+01  0.343783E-01         2.3 %
  FFTs                       :   0.100738E+03  0.968638E+00        64.0 %
  dot products               :   0.356590E+00  0.342875E-02         0.2 %
  geodesic                   :   0.649572E+00  0.624588E-02         0.4 %
  ffm_dgemm                  :   0.105986E+00  0.101910E-02         0.1 %
  fmf_dgemm                  :   0.438826E+00  0.421948E-02         0.3 %
  mmm_dgemm                  :   0.295400E-02  0.284038E-04         0.0 %
  m_diagonalize              :   0.254997E-02  0.245190E-04         0.0 %
  exchange correlation       :   0.428877E+02  0.412382E+00        27.3 %
  local pseudopotentials     :   0.196700E-02  0.189135E-04         0.0 %
  non-local pseudopotentials :   0.367190E+00  0.353067E-02         0.2 %
  hartree potentials         :   0.592570E-01  0.569779E-03         0.0 %
  ion-ion interaction        :   0.872100E-02  0.838558E-04         0.0 %
  structure factors          :   0.536638E-01  0.515998E-03         0.0 %
  phase factors              :   0.900000E-05  0.865385E-07         0.0 %
  masking and packing        :   0.699520E+01  0.672616E-01         4.4 %
  queue fft                  :   0.128969E+02  0.124009E+00         8.2 %
  queue fft (serial)         :   0.714667E+01  0.687180E-01         4.5 %
  queue fft (message passing):   0.540790E+01  0.519990E-01         3.4 %
  non-local psp FFM          :   0.199143E+00  0.191484E-02         0.1 %
  non-local psp FMF          :   0.103543E+00  0.995606E-03         0.1 %
  non-local psp FFM A        :   0.356948E-01  0.343219E-03         0.0 %
  non-local psp FFM B        :   0.121785E+00  0.117101E-02         0.1 %

     >>>  JOB COMPLETED     AT Wed Apr  7 12:40:11 2021  <<<
          ****************************************************
          *                                                  *
          *               NWPW PSPW Calculation              *
          *                                                  *
          * [ (Grassmann/Stiefel manifold implementation)  ] *
          *                                                  *
          *      [ NorthWest Chemistry implementation ]      *
          *                                                  *
          *            version #5.10   06/12/02              *
          *                                                  *
          *    This code was developed by Eric J. Bylaska,   *
          *    and was based upon algorithms and code        *
          *    developed by the group of Prof. John H. Weare *
          *                                                  *
          ****************************************************
     >>>  JOB STARTED       AT Wed Apr  7 12:40:11 2021  <<<
          ================ input data ========================
 pseudopotential is not correctly formatted:O.vpp                                             

 Generated formatted_filename: ./O.vpp
 pseudopotential is not correctly formatted:H.vpp                                             

 Generated formatted_filename: ./H.vpp
 Error reading psi - bad grid
 nfft :                   70                   70                   70
 ngrid:                   80                   80                   80
 Error reading psi - bad grid
 nfft :                   70                   70                   70
 ngrid:                   80                   80                   80
 Error reading psi - bad grid

 Grid is being converted:
 ------------------------

 To turn off automatic grid conversion:

 set nwpw:psi_nogrid .false.

 old_filename: pspw_vs98_H2O1.movecs                             
 new_filename: pspw_vs98_H2O1.movecs                             
 converting  :  70x 70x 70 -->  80x 80x 80
converting .... psi:    1 spin: 1
converting .... psi:    2 spin: 1
converting .... psi:    3 spin: 1
converting .... psi:    4 spin: 1
converting .... psi:    1 spin: 2
converting .... psi:    2 spin: 2
converting .... psi:    3 spin: 2
converting .... psi:    4 spin: 2

 input psi filename:./pspw_vs98_H2O1.movecs

 number of processors used:         2
 processor grid           :   2 x   1
 parallel mapping         :2d hilbert
 parallel mapping         :  balanced
 number of threads        :         1
 parallel io              :       off

 options:
      boundary conditions  = periodic    (version3)
      electron spin        = unrestricted
      exchange-correlation = VS98
      - Meta GGA Functional

 elements involved in the cluster:
      1: O   valence charge:  6.0000  lmax=  2
             comment    : Parameterized (Chem.Phys.Lett., vol 322, page 447) Hamman psp
             pseudpotential type            :   0
             highest angular component      :   2
             local potential used           :   2
             number of non-local projections:   4
             cutoff =   0.700   0.700   0.700

      2: H   valence charge:  1.0000  lmax=  1
             comment    : Parameterized (Chem.Phys.Lett., vol 322, page 447) Hamman psp
             pseudpotential type            :   0
             highest angular component      :   1
             local potential used           :   1
             number of non-local projections:   1
             cutoff =   0.800   0.800


 total charge:   0.000

 atomic composition:
     O   :    1     H   :    2

 number of electrons: spin up=     4 (   4 per task)  down=     4 (   4 per task) (Fourier space)
 number of orbitals : spin up=     4 (   4 per task)  down=     4 (   4 per task) (Fourier space)

 supercell:
      cell_name:  cell_default                                      
      lattice:    a1=<  20.000   0.000   0.000 >
                  a2=<   0.000  20.000   0.000 >
                  a3=<   0.000   0.000  20.000 >
      reciprocal: b1=<   0.314   0.000   0.000 >
                  b2=<   0.000   0.314   0.000 >
                  b3=<   0.000   0.000   0.314 >
      lattice:    a=      20.000 b=     20.000 c=      20.000
                  alpha=  90.000 beta=  90.000 gamma=  90.000
                  omega=      8000.0

      density cutoff= 75.000  fft= 80x 80x 80(   124025 waves    62013 per task)
      wavefnc cutoff= 37.500  fft= 80x 80x 80(    43828 waves    21914 per task)
      Ewald summation: cut radius=    6.37  and  1
                       Madelung Wigner-Seitz=    1.76011888 (alpha=    2.83729748 rs=12.40700982)

 technical parameters:
      time step=      5.80     fictitious mass=  400000.0
      tolerance=0.100E-06 (energy)   0.100E-06 (density)
      maximum iterations =      1000 (   10 inner    100 outer )





== Energy Calculation ==


          ============ Grassmann lmbfgs iteration ============
     >>>  ITERATION STARTED AT Wed Apr  7 12:40:19 2021  <<<
    iter.           Energy         DeltaE       DeltaRho 
    ------------------------------------------------------
      10   -0.1707543524E+02   -0.14744E-03    0.21151E-03
      20   -0.1707595588E+02   -0.31645E-04    0.36062E-05
      30   -0.1707612663E+02   -0.11351E-04    0.24439E-05
      40   -0.1707617908E+02   -0.39855E-05    0.14193E-05
      50   -0.1707620003E+02   -0.90160E-06    0.59770E-06
      60   -0.1707620939E+02   -0.56995E-06    0.30253E-06
      70   -0.1707621279E+02   -0.30375E-06    0.47757E-07
      80   -0.1707621440E+02   -0.82779E-07    0.24333E-07
  *** tolerance ok. iteration terminated
     >>>  ITERATION ENDED   AT Wed Apr  7 12:45:54 2021  <<<


==  Summary Of Results  ==

 number of electrons: spin up=    4.00000  down=    4.00000 (real space)

 total     energy    :  -0.1707621440E+02 (   -0.56921E+01/ion)
 total orbital energy:  -0.3883479880E+01 (   -0.48543E+00/electron)
 hartree   energy    :   0.1680120199E+02 (    0.21002E+01/electron)
 exc-corr  energy    :  -0.4105793706E+01 (   -0.51322E+00/electron)
 ion-ion   energy    :   0.2366648438E+01 (    0.78888E+00/ion)

 kinetic (planewave) :   0.1226413442E+02 (    0.15330E+01/electron)
 V_local (planewave) :  -0.4321908364E+02 (   -0.54024E+01/electron)
 V_nl    (planewave) :  -0.1183321908E+01 (   -0.14792E+00/electron)
 V_Coul  (planewave) :   0.3360240397E+02 (    0.42003E+01/electron)
 V_xc.   (planewave) :  -0.5347612731E+01 (   -0.66845E+00/electron)
 Virial Coefficient  :  -0.1316653401E+01

 orbital energies:
    -0.2466516E+00 (  -6.712eV)    -0.2466515E+00 (  -6.712eV)
    -0.3067265E+00 (  -8.347eV)    -0.3067265E+00 (  -8.347eV)
    -0.4807787E+00 ( -13.083eV)    -0.4807787E+00 ( -13.083eV)
    -0.9075832E+00 ( -24.697eV)    -0.9075833E+00 ( -24.697eV)

 Total PSPW energy     :  -0.1707621440E+02


=== Spin Contamination ===

 <Sexact^2> =    0.0000000000000000     
 <S^2>      =    3.1443114778539893E-010



== Center of Charge ==

spin up     (    0.0000,    0.0558,    0.0000 )
spin down   (   -0.0000,    0.0558,   -0.0000 )
     total  (   -0.0000,    0.0558,    0.0000 )
ionic       (    0.0000,    0.1375,    0.0000 )


== Molecular Dipole wrt Center of Mass ==

mu   =  (    0.0000,    0.6537,   -0.0000 ) au
|mu| =     0.6537 au,       1.6613 Debye

 output psi filename:./pspw_vs98_H2O1.movecs

 Writing Crystallographic Information File:./H2O1.cif
   - cell not shifted (nwpw:cif_shift_cell .false.)


== Timing ==

cputime in seconds
  prologue    :   0.837082E+01
  main loop   :   0.334991E+03
  epilogue    :   0.162537E+00
  total       :   0.343524E+03
  cputime/step:   0.186106E+01       (     180 evalulations,      80 linesearches)


Time spent doing                        total          step       percent
  total time                 :   0.343525E+03  0.190847E+01       100.0 %
  i/o time                   :   0.521858E+01  0.289921E-01         1.5 %
  FFTs                       :   0.208480E+03  0.115822E+01        60.7 %
  dot products               :   0.953690E+00  0.529828E-02         0.3 %
  geodesic                   :   0.197366E+01  0.109648E-01         0.6 %
  ffm_dgemm                  :   0.296440E+00  0.164689E-02         0.1 %
  fmf_dgemm                  :   0.146677E+01  0.814872E-02         0.4 %
  mmm_dgemm                  :   0.573500E-02  0.318611E-04         0.0 %
  m_diagonalize              :   0.432894E-02  0.240497E-04         0.0 %
  exchange correlation       :   0.963634E+02  0.535352E+00        28.1 %
  local pseudopotentials     :   0.413800E-02  0.229889E-04         0.0 %
  non-local pseudopotentials :   0.115721E+01  0.642894E-02         0.3 %
  hartree potentials         :   0.179164E+00  0.995356E-03         0.1 %
  ion-ion interaction        :   0.247130E-01  0.137294E-03         0.0 %
  structure factors          :   0.177369E+00  0.985381E-03         0.1 %
  phase factors              :   0.110000E-04  0.611111E-07         0.0 %
  masking and packing        :   0.202042E+02  0.112246E+00         5.9 %
  queue fft                  :   0.290596E+02  0.161442E+00         8.5 %
  queue fft (serial)         :   0.126584E+02  0.703245E-01         3.7 %
  queue fft (message passing):   0.155132E+02  0.861843E-01         4.5 %
  non-local psp FFM          :   0.549449E+00  0.305250E-02         0.2 %
  non-local psp FMF          :   0.397746E+00  0.220970E-02         0.1 %
  non-local psp FFM A        :   0.955396E-01  0.530776E-03         0.0 %
  non-local psp FFM B        :   0.359072E+00  0.199484E-02         0.1 %

     >>>  JOB COMPLETED     AT Wed Apr  7 12:45:55 2021  <<<
          ****************************************************
          *                                                  *
          *               NWPW PSPW Calculation              *
          *                                                  *
          * [ (Grassmann/Stiefel manifold implementation)  ] *
          *                                                  *
          *      [ NorthWest Chemistry implementation ]      *
          *                                                  *
          *            version #5.10   06/12/02              *
          *                                                  *
          *    This code was developed by Eric J. Bylaska,   *
          *    and was based upon algorithms and code        *
          *    developed by the group of Prof. John H. Weare *
          *                                                  *
          ****************************************************
     >>>  JOB STARTED       AT Wed Apr  7 12:45:55 2021  <<<
          ================ input data ========================
 pseudopotential is not correctly formatted:O.vpp                                             

 Generated formatted_filename: ./O.vpp
 pseudopotential is not correctly formatted:H.vpp                                             

 Generated formatted_filename: ./H.vpp
 Error reading psi - bad grid
 nfft :                   80                   80                   80
 ngrid:                   96                   96                   96
 Error reading psi - bad grid
 nfft :                   80                   80                   80
 ngrid:                   96                   96                   96
 Error reading psi - bad grid

 Grid is being converted:
 ------------------------

 To turn off automatic grid conversion:

 set nwpw:psi_nogrid .false.

 old_filename: pspw_vs98_H2O1.movecs                             
 new_filename: pspw_vs98_H2O1.movecs                             
 converting  :  80x 80x 80 -->  96x 96x 96
converting .... psi:    1 spin: 1
converting .... psi:    2 spin: 1
converting .... psi:    3 spin: 1
converting .... psi:    4 spin: 1
converting .... psi:    1 spin: 2
converting .... psi:    2 spin: 2
converting .... psi:    3 spin: 2
converting .... psi:    4 spin: 2

 input psi filename:./pspw_vs98_H2O1.movecs

 number of processors used:         2
 processor grid           :   2 x   1
 parallel mapping         :2d hilbert
 parallel mapping         :  balanced
 number of threads        :         1
 parallel io              :       off

 options:
      boundary conditions  = periodic    (version3)
      electron spin        = unrestricted
      exchange-correlation = VS98
      - Meta GGA Functional

 elements involved in the cluster:
      1: O   valence charge:  6.0000  lmax=  2
             comment    : Parameterized (Chem.Phys.Lett., vol 322, page 447) Hamman psp
             pseudpotential type            :   0
             highest angular component      :   2
             local potential used           :   2
             number of non-local projections:   4
             cutoff =   0.700   0.700   0.700

      2: H   valence charge:  1.0000  lmax=  1
             comment    : Parameterized (Chem.Phys.Lett., vol 322, page 447) Hamman psp
             pseudpotential type            :   0
             highest angular component      :   1
             local potential used           :   1
             number of non-local projections:   1
             cutoff =   0.800   0.800


 total charge:   0.000

 atomic composition:
     O   :    1     H   :    2

 number of electrons: spin up=     4 (   4 per task)  down=     4 (   4 per task) (Fourier space)
 number of orbitals : spin up=     4 (   4 per task)  down=     4 (   4 per task) (Fourier space)

 supercell:
      cell_name:  cell_default                                      
      lattice:    a1=<  20.000   0.000   0.000 >
                  a2=<   0.000  20.000   0.000 >
                  a3=<   0.000   0.000  20.000 >
      reciprocal: b1=<   0.314   0.000   0.000 >
                  b2=<   0.000   0.314   0.000 >
                  b3=<   0.000   0.000   0.314 >
      lattice:    a=      20.000 b=     20.000 c=      20.000
                  alpha=  90.000 beta=  90.000 gamma=  90.000
                  omega=      8000.0

      density cutoff=100.000  fft= 96x 96x 96(   191162 waves    95581 per task)
      wavefnc cutoff= 50.000  fft= 96x 96x 96(    67522 waves    33761 per task)
      Ewald summation: cut radius=    6.37  and  1
                       Madelung Wigner-Seitz=    1.76011888 (alpha=    2.83729748 rs=12.40700982)

 technical parameters:
      time step=      5.80     fictitious mass=  400000.0
      tolerance=0.100E-06 (energy)   0.100E-06 (density)
      maximum iterations =      1000 (   10 inner    100 outer )





== Energy Calculation ==


          ============ Grassmann lmbfgs iteration ============
     >>>  ITERATION STARTED AT Wed Apr  7 12:46:10 2021  <<<
    iter.           Energy         DeltaE       DeltaRho 
    ------------------------------------------------------
      10   -0.1708743847E+02   -0.80371E-05    0.29456E-03
      20   -0.1708747170E+02   -0.13911E-05    0.12194E-05
      30   -0.1708747898E+02   -0.46771E-06    0.12499E-06
      40   -0.1708748105E+02   -0.11544E-06    0.30002E-07
      50   -0.1708748114E+02   -0.93132E-07    0.17243E-09
  *** tolerance ok. iteration terminated
     >>>  ITERATION ENDED   AT Wed Apr  7 12:51:16 2021  <<<


==  Summary Of Results  ==

 number of electrons: spin up=    4.00000  down=    4.00000 (real space)

 total     energy    :  -0.1708748114E+02 (   -0.56958E+01/ion)
 total orbital energy:  -0.3875173417E+01 (   -0.48440E+00/electron)
 hartree   energy    :   0.1682115719E+02 (    0.21026E+01/electron)
 exc-corr  energy    :  -0.4110483839E+01 (   -0.51381E+00/electron)
 ion-ion   energy    :   0.2366648438E+01 (    0.78888E+00/ion)

 kinetic (planewave) :   0.1231166200E+02 (    0.15390E+01/electron)
 V_local (planewave) :  -0.4326466909E+02 (   -0.54081E+01/electron)
 V_nl    (planewave) :  -0.1211795847E+01 (   -0.15147E+00/electron)
 V_Coul  (planewave) :   0.3364231439E+02 (    0.42053E+01/electron)
 V_xc.   (planewave) :  -0.5352684874E+01 (   -0.66909E+00/electron)
 Virial Coefficient  :  -0.1314756319E+01

 orbital energies:
    -0.2468486E+00 (  -6.717eV)    -0.2468486E+00 (  -6.717eV)
    -0.3064437E+00 (  -8.339eV)    -0.3064437E+00 (  -8.339eV)
    -0.4801105E+00 ( -13.065eV)    -0.4801105E+00 ( -13.065eV)
    -0.9041839E+00 ( -24.604eV)    -0.9041839E+00 ( -24.604eV)

 Total PSPW energy     :  -0.1708748114E+02


=== Spin Contamination ===

 <Sexact^2> =    0.0000000000000000     
 <S^2>      =    9.3276497636907152E-011



== Center of Charge ==

spin up     (    0.0000,    0.0556,    0.0000 )
spin down   (   -0.0000,    0.0556,   -0.0000 )
     total  (   -0.0000,    0.0556,    0.0000 )
ionic       (    0.0000,    0.1375,    0.0000 )


== Molecular Dipole wrt Center of Mass ==

mu   =  (    0.0000,    0.6554,   -0.0000 ) au
|mu| =     0.6554 au,       1.6658 Debye

 output psi filename:./pspw_vs98_H2O1.movecs

 Writing Crystallographic Information File:./H2O1.cif
   - cell not shifted (nwpw:cif_shift_cell .false.)


== Timing ==

cputime in seconds
  prologue    :   0.150822E+02
  main loop   :   0.306091E+03
  epilogue    :   0.378520E+00
  total       :   0.321551E+03
  cputime/step:   0.322201E+01       (      95 evalulations,      41 linesearches)


Time spent doing                        total          step       percent
  total time                 :   0.321552E+03  0.338476E+01       100.0 %
  i/o time                   :   0.119852E+02  0.126160E+00         3.7 %
  FFTs                       :   0.189146E+03  0.199102E+01        58.8 %
  dot products               :   0.756915E+00  0.796752E-02         0.2 %
  geodesic                   :   0.163614E+01  0.172225E-01         0.5 %
  ffm_dgemm                  :   0.239002E+00  0.251581E-02         0.1 %
  fmf_dgemm                  :   0.127223E+01  0.133919E-01         0.4 %
  mmm_dgemm                  :   0.329600E-02  0.346947E-04         0.0 %
  m_diagonalize              :   0.242297E-02  0.255050E-04         0.0 %
  exchange correlation       :   0.915795E+02  0.963995E+00        28.5 %
  local pseudopotentials     :   0.862600E-02  0.908000E-04         0.0 %
  non-local pseudopotentials :   0.989957E+00  0.104206E-01         0.3 %
  hartree potentials         :   0.146597E+00  0.154313E-02         0.0 %
  ion-ion interaction        :   0.234910E-01  0.247274E-03         0.0 %
  structure factors          :   0.151006E+00  0.158954E-02         0.0 %
  phase factors              :   0.160000E-04  0.168421E-06         0.0 %
  masking and packing        :   0.186773E+02  0.196603E+00         5.8 %
  queue fft                  :   0.272639E+02  0.286988E+00         8.5 %
  queue fft (serial)         :   0.118398E+02  0.124630E+00         3.7 %
  queue fft (message passing):   0.146343E+02  0.154046E+00         4.6 %
  non-local psp FFM          :   0.472286E+00  0.497143E-02         0.1 %
  non-local psp FMF          :   0.333007E+00  0.350534E-02         0.1 %
  non-local psp FFM A        :   0.951548E-01  0.100163E-02         0.0 %
  non-local psp FFM B        :   0.294190E+00  0.309674E-02         0.1 %

     >>>  JOB COMPLETED     AT Wed Apr  7 12:51:16 2021  <<<

 Task  times  cpu:      878.4s     wall:      878.4s


                                NWChem Input Module
                                -------------------


          ****************************************************
          *                                                  *
          *               NWPW PSPW Calculation              *
          *                                                  *
          * [ (Grassmann/Stiefel manifold implementation)  ] *
          *                                                  *
          *      [ NorthWest Chemistry implementation ]      *
          *                                                  *
          *            version #5.10   06/12/02              *
          *                                                  *
          *    This code was developed by Eric J. Bylaska,   *
          *    and was based upon algorithms and code        *
          *    developed by the group of Prof. John H. Weare *
          *                                                  *
          ****************************************************
     >>>  JOB STARTED       AT Wed Apr  7 12:51:16 2021  <<<
          ================ input data ========================
 wavefunction adjust, new psi:pspw_vs98_H2O1.movecs                             
 -   spin, nalpha, nbeta:                    1                    4                    0

 input psi filename:./pspw_vs98_H2O1.movecs

 number of processors used:         2
 processor grid           :   2 x   1
 parallel mapping         :2d hilbert
 parallel mapping         :  balanced
 number of threads        :         1
 parallel io              :       off

 options:
      boundary conditions  = periodic    (version3)
      electron spin        = restricted
      exchange-correlation = VS98
      - Meta GGA Functional

 elements involved in the cluster:
      1: O   valence charge:  6.0000  lmax=  2
             comment    : Parameterized (Chem.Phys.Lett., vol 322, page 447) Hamman psp
             pseudpotential type            :   0
             highest angular component      :   2
             local potential used           :   2
             number of non-local projections:   4
             cutoff =   0.700   0.700   0.700

      2: H   valence charge:  1.0000  lmax=  1
             comment    : Parameterized (Chem.Phys.Lett., vol 322, page 447) Hamman psp
             pseudpotential type            :   0
             highest angular component      :   1
             local potential used           :   1
             number of non-local projections:   1
             cutoff =   0.800   0.800


 total charge:   0.000

 atomic composition:
     O   :    1     H   :    2

 number of electrons: spin up=     4 (   4 per task)  down=     4 (   4 per task) (Fourier space)
 number of orbitals : spin up=     4 (   4 per task)  down=     4 (   4 per task) (Fourier space)

 supercell:
      cell_name:  cell_default                                      
      lattice:    a1=<  20.000   0.000   0.000 >
                  a2=<   0.000  20.000   0.000 >
                  a3=<   0.000   0.000  20.000 >
      reciprocal: b1=<   0.314   0.000   0.000 >
                  b2=<   0.000   0.314   0.000 >
                  b3=<   0.000   0.000   0.314 >
      lattice:    a=      20.000 b=     20.000 c=      20.000
                  alpha=  90.000 beta=  90.000 gamma=  90.000
                  omega=      8000.0

      density cutoff=100.000  fft= 96x 96x 96(   191162 waves    95581 per task)
      wavefnc cutoff= 50.000  fft= 96x 96x 96(    67522 waves    33761 per task)
      Ewald summation: cut radius=    6.37  and  1
                       Madelung Wigner-Seitz=    1.76011888 (alpha=    2.83729748 rs=12.40700982)

 technical parameters:
      time step=      5.80     fictitious mass=  400000.0
      tolerance=0.100E-06 (energy)   0.100E-06 (density)
      maximum iterations =      1000 (   10 inner    100 outer )





== Energy Calculation ==


          ============ Grassmann lmbfgs iteration ============
     >>>  ITERATION STARTED AT Wed Apr  7 12:51:20 2021  <<<
    iter.           Energy         DeltaE       DeltaRho 
    ------------------------------------------------------
     -  15 steepest descent iterations performed
      10   -0.1708748135E+02   -0.66045E-07    0.53478E-07
  *** tolerance ok. iteration terminated
     >>>  ITERATION ENDED   AT Wed Apr  7 12:52:20 2021  <<<


==  Summary Of Results  ==

 number of electrons: spin up=    4.00000  down=    4.00000 (real space)

 total     energy    :  -0.1708748135E+02 (   -0.56958E+01/ion)
 total orbital energy:  -0.3875101484E+01 (   -0.96878E+00/electron)
 hartree   energy    :   0.1682123669E+02 (    0.42053E+01/electron)
 exc-corr  energy    :  -0.4110496047E+01 (   -0.10276E+01/electron)
 ion-ion   energy    :   0.2366648438E+01 (    0.78888E+00/ion)

 kinetic (planewave) :   0.1231166358E+02 (    0.30779E+01/electron)
 V_local (planewave) :  -0.4326476138E+02 (   -0.10816E+02/electron)
 V_nl    (planewave) :  -0.1211772638E+01 (   -0.30294E+00/electron)
 V_Coul  (planewave) :   0.3364247338E+02 (    0.84106E+01/electron)
 V_xc.   (planewave) :  -0.5352704439E+01 (   -0.13382E+01/electron)
 Virial Coefficient  :  -0.1314750436E+01

 orbital energies:
    -0.2468391E+00 (  -6.717eV)
    -0.3064349E+00 (  -8.339eV)
    -0.4801029E+00 ( -13.064eV)
    -0.9041738E+00 ( -24.604eV)

 Total PSPW energy     :  -0.1708748135E+02


=== Spin Contamination ===

 <Sexact^2> =    0.0000000000000000     
 <S^2>      =    0.0000000000000000     



== Center of Charge ==

spin up     (    0.0000,    0.0555,    0.0000 )
spin down   (    0.0000,    0.0555,    0.0000 )
     total  (    0.0000,    0.0555,    0.0000 )
ionic       (    0.0000,    0.1375,    0.0000 )


== Molecular Dipole wrt Center of Mass ==

mu   =  (   -0.0000,    0.6555,   -0.0000 ) au
|mu| =     0.6555 au,       1.6660 Debye

 output psi filename:./pspw_vs98_H2O1.movecs

 Writing Crystallographic Information File:./H2O1.cif
   - cell not shifted (nwpw:cif_shift_cell .false.)


== Timing ==

cputime in seconds
  prologue    :   0.335399E+01
  main loop   :   0.600589E+02
  epilogue    :   0.167765E+00
  total       :   0.635807E+02
  cputime/step:   0.166830E+01       (      36 evalulations,       7 linesearches)


Time spent doing                        total          step       percent
  total time                 :   0.635812E+02  0.176614E+01       100.0 %
  i/o time                   :   0.382396E+00  0.106221E-01         0.6 %
  FFTs                       :   0.363016E+02  0.100838E+01        57.1 %
  dot products               :   0.122079E+00  0.339108E-02         0.2 %
  geodesic                   :   0.163504E+00  0.454178E-02         0.3 %
  ffm_dgemm                  :   0.554150E-01  0.153931E-02         0.1 %
  fmf_dgemm                  :   0.131387E+00  0.364964E-02         0.2 %
  mmm_dgemm                  :   0.660962E-03  0.183601E-04         0.0 %
  m_diagonalize              :   0.457992E-03  0.127220E-04         0.0 %
  exchange correlation       :   0.185058E+02  0.514050E+00        29.1 %
  local pseudopotentials     :   0.652600E-02  0.181278E-03         0.0 %
  non-local pseudopotentials :   0.259031E+00  0.719531E-02         0.4 %
  hartree potentials         :   0.444270E-01  0.123408E-02         0.1 %
  ion-ion interaction        :   0.456600E-02  0.126833E-03         0.0 %
  structure factors          :   0.546649E-01  0.151847E-02         0.1 %
  phase factors              :   0.310000E-04  0.861111E-06         0.0 %
  masking and packing        :   0.370043E+01  0.102790E+00         5.8 %
  queue fft                  :   0.522647E+01  0.145180E+00         8.2 %
  queue fft (serial)         :   0.221066E+01  0.614073E-01         3.5 %
  queue fft (message passing):   0.285423E+01  0.792841E-01         4.5 %
  non-local psp FFM          :   0.126891E+00  0.352475E-02         0.2 %
  non-local psp FMF          :   0.655920E-01  0.182200E-02         0.1 %
  non-local psp FFM A        :   0.358479E-01  0.995776E-03         0.1 %
  non-local psp FFM B        :   0.620060E-01  0.172239E-02         0.1 %

     >>>  JOB COMPLETED     AT Wed Apr  7 12:52:20 2021  <<<

 Task  times  cpu:       63.6s     wall:       63.6s


                                NWChem Input Module
                                -------------------



  Deleted DRIVER restart files 



                           NWChem Geometry Optimization
                           ----------------------------




                             pspw_vs98 QA test for H2O


 maximum gradient threshold         (gmax) =   0.000450
 rms gradient threshold             (grms) =   0.000300
 maximum cartesian step threshold   (xmax) =   0.001800
 rms cartesian step threshold       (xrms) =   0.001200
 fixed trust radius                (trust) =   0.300000
 maximum step size to saddle      (sadstp) =   0.100000
 energy precision                  (eprec) =   1.0D-07
 maximum number of steps          (nptopt) =   30
 initial hessian option           (inhess) =    0
 line search option               (linopt) =    1
 hessian update option            (modupd) =    1
 saddle point option              (modsad) =    0
 initial eigen-mode to follow     (moddir) =    0
 initial variable to follow       (vardir) =    0
 follow first negative mode     (firstneg) =    T
 apply conjugacy                    (opcg) =    F
 source of zmatrix                         =           


          -------------------
          Energy Minimization
          -------------------


 Using diagonal initial Hessian 

          --------
          Step   0
          --------


                         Geometry "geometry" -> "geometry"
                         ---------------------------------

 Output coordinates in angstroms (scale by  1.889725989 to convert to a.u.)

  No.       Tag          Charge          X              Y              Z
 ---- ---------------- ---------- -------------- -------------- --------------
    1 O                    8.0000     0.00000000    -0.05890000     0.00000000
    2 H                    1.0000    -0.81100000     0.46770000     0.00000000
    3 H                    1.0000     0.81100000     0.46770000     0.00000000

      Atomic Mass 
      ----------- 

      O                 15.994910
      H                  1.007825


 Effective nuclear repulsion energy (a.u.)       9.0823094384

            Nuclear Dipole moment (a.u.) 
            ----------------------------
        X                 Y               Z
 ---------------- ---------------- ----------------
     0.0000000000     0.8772108039     0.0000000000

          ****************************************************
          *                                                  *
          *               NWPW PSPW Calculation              *
          *                                                  *
          * [ (Grassmann/Stiefel manifold implementation)  ] *
          *                                                  *
          *      [ NorthWest Chemistry implementation ]      *
          *                                                  *
          *            version #5.10   06/12/02              *
          *                                                  *
          *    This code was developed by Eric J. Bylaska,   *
          *    and was based upon algorithms and code        *
          *    developed by the group of Prof. John H. Weare *
          *                                                  *
          ****************************************************
     >>>  JOB STARTED       AT Wed Apr  7 12:52:20 2021  <<<
          ================ input data ========================

 input psi filename:./pspw_vs98_H2O1.movecs

 number of processors used:         2
 processor grid           :   2 x   1
 parallel mapping         :2d hilbert
 parallel mapping         :  balanced
 number of threads        :         1
 parallel io              :       off

 options:
      boundary conditions  = periodic    (version3)
      electron spin        = restricted
      exchange-correlation = VS98
      - Meta GGA Functional

 elements involved in the cluster:
      1: O   valence charge:  6.0000  lmax=  2
             comment    : Parameterized (Chem.Phys.Lett., vol 322, page 447) Hamman psp
             pseudpotential type            :   0
             highest angular component      :   2
             local potential used           :   2
             number of non-local projections:   4
             cutoff =   0.700   0.700   0.700

      2: H   valence charge:  1.0000  lmax=  1
             comment    : Parameterized (Chem.Phys.Lett., vol 322, page 447) Hamman psp
             pseudpotential type            :   0
             highest angular component      :   1
             local potential used           :   1
             number of non-local projections:   1
             cutoff =   0.800   0.800


 total charge:   0.000

 atomic composition:
     O   :    1     H   :    2

 number of electrons: spin up=     4 (   4 per task)  down=     4 (   4 per task) (Fourier space)
 number of orbitals : spin up=     4 (   4 per task)  down=     4 (   4 per task) (Fourier space)

 supercell:
      cell_name:  cell_default                                      
      lattice:    a1=<  20.000   0.000   0.000 >
                  a2=<   0.000  20.000   0.000 >
                  a3=<   0.000   0.000  20.000 >
      reciprocal: b1=<   0.314   0.000   0.000 >
                  b2=<   0.000   0.314   0.000 >
                  b3=<   0.000   0.000   0.314 >
      lattice:    a=      20.000 b=     20.000 c=      20.000
                  alpha=  90.000 beta=  90.000 gamma=  90.000
                  omega=      8000.0

      density cutoff=100.000  fft= 96x 96x 96(   191162 waves    95581 per task)
      wavefnc cutoff= 50.000  fft= 96x 96x 96(    67522 waves    33761 per task)
      Ewald summation: cut radius=    6.37  and  1
                       Madelung Wigner-Seitz=    1.76011888 (alpha=    2.83729748 rs=12.40700982)

 technical parameters:
      time step=      5.80     fictitious mass=  400000.0
      tolerance=0.100E-06 (energy)   0.100E-06 (density)
      maximum iterations =      1000 (   10 inner    100 outer )





== Energy Calculation ==


          ============ Grassmann lmbfgs iteration ============
     >>>  ITERATION STARTED AT Wed Apr  7 12:52:23 2021  <<<
    iter.           Energy         DeltaE       DeltaRho 
    ------------------------------------------------------
      10   -0.1708748137E+02   -0.28198E-07    0.58769E-11
  *** tolerance ok. iteration terminated
     >>>  ITERATION ENDED   AT Wed Apr  7 12:52:35 2021  <<<


==  Summary Of Results  ==

 number of electrons: spin up=    4.00000  down=    4.00000 (real space)

 total     energy    :  -0.1708748137E+02 (   -0.56958E+01/ion)
 total orbital energy:  -0.3875099045E+01 (   -0.96877E+00/electron)
 hartree   energy    :   0.1682123894E+02 (    0.42053E+01/electron)
 exc-corr  energy    :  -0.4110496489E+01 (   -0.10276E+01/electron)
 ion-ion   energy    :   0.2366648438E+01 (    0.78888E+00/ion)

 kinetic (planewave) :   0.1231166734E+02 (    0.30779E+01/electron)
 V_local (planewave) :  -0.4326476570E+02 (   -0.10816E+02/electron)
 V_nl    (planewave) :  -0.1211773903E+01 (   -0.30294E+00/electron)
 V_Coul  (planewave) :   0.3364247788E+02 (    0.84106E+01/electron)
 V_xc.   (planewave) :  -0.5352704663E+01 (   -0.13382E+01/electron)
 Virial Coefficient  :  -0.1314750142E+01

 orbital energies:
    -0.2468386E+00 (  -6.717eV)
    -0.3064345E+00 (  -8.339eV)
    -0.4801028E+00 ( -13.064eV)
    -0.9041736E+00 ( -24.604eV)

 Total PSPW energy     :  -0.1708748137E+02


=== Spin Contamination ===

 <Sexact^2> =    0.0000000000000000     
 <S^2>      =    0.0000000000000000     



== Center of Charge ==

spin up     (    0.0000,    0.0555,    0.0000 )
spin down   (    0.0000,    0.0555,    0.0000 )
     total  (    0.0000,    0.0555,    0.0000 )
ionic       (    0.0000,    0.1375,    0.0000 )


== Molecular Dipole wrt Center of Mass ==

mu   =  (   -0.0000,    0.6555,   -0.0000 ) au
|mu| =     0.6555 au,       1.6660 Debye


Translation force removed: (    0.00000    0.00777    0.00000)


          =============  Ion Gradients =================
 Ion Forces:
        1 O    (    0.000000    0.001699   -0.000000 )
        2 H    (    0.023300   -0.006795    0.000000 )
        3 H    (   -0.023300   -0.006795    0.000000 )
        C.O.M. (    0.000000   -0.000000    0.000000 )
          ===============================================
          |F|       =   0.343652E-01
          |F|/nion  =   0.114551E-01
          max|Fatom|=   0.242702E-01 (   1.248eV/Angstrom)



 output psi filename:./pspw_vs98_H2O1.movecs

 Writing Crystallographic Information File:./H2O1.cif
   - cell not shifted (nwpw:cif_shift_cell .false.)


== Timing ==

cputime in seconds
  prologue    :   0.278525E+01
  main loop   :   0.123967E+02
  epilogue    :   0.138745E+00
  total       :   0.153207E+02
  cputime/step:   0.154958E+01       (       8 evalulations,       1 linesearches)


Time spent doing                        total          step       percent
  total time                 :   0.153212E+02  0.191515E+01       100.0 %
  i/o time                   :   0.297371E+00  0.371714E-01         1.9 %
  FFTs                       :   0.754563E+01  0.943203E+00        49.2 %
  dot products               :   0.347659E-01  0.434574E-02         0.2 %
  geodesic                   :   0.315550E-01  0.394438E-02         0.2 %
  ffm_dgemm                  :   0.287100E-02  0.358875E-03         0.0 %
  fmf_dgemm                  :   0.255520E-01  0.319400E-02         0.2 %
  mmm_dgemm                  :   0.136000E-03  0.170000E-04         0.0 %
  m_diagonalize              :   0.829980E-04  0.103748E-04         0.0 %
  exchange correlation       :   0.369628E+01  0.462036E+00        24.1 %
  local pseudopotentials     :   0.143880E-01  0.179850E-02         0.1 %
  non-local pseudopotentials :   0.681900E-01  0.852375E-02         0.4 %
  hartree potentials         :   0.140910E-01  0.176137E-02         0.1 %
  ion-ion interaction        :   0.139980E-01  0.174975E-02         0.1 %
  structure factors          :   0.214470E-01  0.268087E-02         0.1 %
  phase factors              :   0.140000E-04  0.175000E-05         0.0 %
  masking and packing        :   0.823315E+00  0.102914E+00         5.4 %
  queue fft                  :   0.107960E+01  0.134950E+00         7.0 %
  queue fft (serial)         :   0.439553E+00  0.549441E-01         2.9 %
  queue fft (message passing):   0.605459E+00  0.756824E-01         4.0 %
  non-local psp FFM          :   0.265320E-01  0.331650E-02         0.2 %
  non-local psp FMF          :   0.147890E-01  0.184863E-02         0.1 %
  non-local psp FFM A        :   0.776899E-02  0.971123E-03         0.1 %
  non-local psp FFM B        :   0.129770E-01  0.162213E-02         0.1 %

     >>>  JOB COMPLETED     AT Wed Apr  7 12:52:35 2021  <<<

@ Step       Energy      Delta E   Gmax     Grms     Xrms     Xmax   Walltime
@ ---- ---------------- -------- -------- -------- -------- -------- --------
@    0     -17.08748137  0.0D+00  0.02330  0.01146  0.00000  0.00000    957.4
                                                                    

          ****************************************************
          *                                                  *
          *               NWPW PSPW Calculation              *
          *                                                  *
          * [ (Grassmann/Stiefel manifold implementation)  ] *
          *                                                  *
          *      [ NorthWest Chemistry implementation ]      *
          *                                                  *
          *            version #5.10   06/12/02              *
          *                                                  *
          *    This code was developed by Eric J. Bylaska,   *
          *    and was based upon algorithms and code        *
          *    developed by the group of Prof. John H. Weare *
          *                                                  *
          ****************************************************
     >>>  JOB STARTED       AT Wed Apr  7 12:52:35 2021  <<<
          ================ input data ========================

 input psi filename:./pspw_vs98_H2O1.movecs

 number of processors used:         2
 processor grid           :   2 x   1
 parallel mapping         :2d hilbert
 parallel mapping         :  balanced
 number of threads        :         1
 parallel io              :       off

 options:
      boundary conditions  = periodic    (version3)
      electron spin        = restricted
      exchange-correlation = VS98
      - Meta GGA Functional

 elements involved in the cluster:
      1: O   valence charge:  6.0000  lmax=  2
             comment    : Parameterized (Chem.Phys.Lett., vol 322, page 447) Hamman psp
             pseudpotential type            :   0
             highest angular component      :   2
             local potential used           :   2
             number of non-local projections:   4
             cutoff =   0.700   0.700   0.700

      2: H   valence charge:  1.0000  lmax=  1
             comment    : Parameterized (Chem.Phys.Lett., vol 322, page 447) Hamman psp
             pseudpotential type            :   0
             highest angular component      :   1
             local potential used           :   1
             number of non-local projections:   1
             cutoff =   0.800   0.800


 total charge:   0.000

 atomic composition:
     O   :    1     H   :    2

 number of electrons: spin up=     4 (   4 per task)  down=     4 (   4 per task) (Fourier space)
 number of orbitals : spin up=     4 (   4 per task)  down=     4 (   4 per task) (Fourier space)

 supercell:
      cell_name:  cell_default                                      
      lattice:    a1=<  20.000   0.000   0.000 >
                  a2=<   0.000  20.000   0.000 >
                  a3=<   0.000   0.000  20.000 >
      reciprocal: b1=<   0.314   0.000   0.000 >
                  b2=<   0.000   0.314   0.000 >
                  b3=<   0.000   0.000   0.314 >
      lattice:    a=      20.000 b=     20.000 c=      20.000
                  alpha=  90.000 beta=  90.000 gamma=  90.000
                  omega=      8000.0

      density cutoff=100.000  fft= 96x 96x 96(   191162 waves    95581 per task)
      wavefnc cutoff= 50.000  fft= 96x 96x 96(    67522 waves    33761 per task)
      Ewald summation: cut radius=    6.37  and  1
                       Madelung Wigner-Seitz=    1.76011888 (alpha=    2.83729748 rs=12.40700982)

 technical parameters:
      time step=      5.80     fictitious mass=  400000.0
      tolerance=0.100E-06 (energy)   0.100E-06 (density)
      maximum iterations =      1000 (   10 inner    100 outer )





== Energy Calculation ==


          ============ Grassmann lmbfgs iteration ============
     >>>  ITERATION STARTED AT Wed Apr  7 12:52:38 2021  <<<
    iter.           Energy         DeltaE       DeltaRho 
    ------------------------------------------------------
      10   -0.1708745608E+02   -0.67804E-03    0.39082E-01
      20   -0.1708970231E+02   -0.13543E-03    0.99441E-04
      30   -0.1709029281E+02   -0.30647E-04    0.31343E-04
      40   -0.1709045789E+02   -0.10321E-04    0.34222E-05
      50   -0.1709051967E+02   -0.33453E-05    0.18134E-05
      60   -0.1709055093E+02   -0.14338E-05    0.62260E-06
      70   -0.1709056080E+02   -0.70102E-06    0.22678E-06
      80   -0.1709056536E+02   -0.28492E-06    0.10168E-06
      90   -0.1709056739E+02   -0.11460E-06    0.56315E-07
     100   -0.1709056748E+02   -0.91839E-07    0.18818E-09
  *** tolerance ok. iteration terminated
     >>>  ITERATION ENDED   AT Wed Apr  7 12:58:19 2021  <<<


==  Summary Of Results  ==

 number of electrons: spin up=    4.00000  down=    4.00000 (real space)

 total     energy    :  -0.1709056748E+02 (   -0.56969E+01/ion)
 total orbital energy:  -0.3915811411E+01 (   -0.97895E+00/electron)
 hartree   energy    :   0.1687138806E+02 (    0.42178E+01/electron)
 exc-corr  energy    :  -0.4120111014E+01 (   -0.10300E+01/electron)
 ion-ion   energy    :   0.2451767722E+01 (    0.81726E+00/ion)

 kinetic (planewave) :   0.1231523855E+02 (    0.30788E+01/electron)
 V_local (planewave) :  -0.4340984957E+02 (   -0.10852E+02/electron)
 V_nl    (planewave) :  -0.1199001229E+01 (   -0.29975E+00/electron)
 V_Coul  (planewave) :   0.3374277612E+02 (    0.84357E+01/electron)
 V_xc.   (planewave) :  -0.5364975285E+01 (   -0.13412E+01/electron)
 Virial Coefficient  :  -0.1317964723E+01

 orbital energies:
    -0.2496807E+00 (  -6.794eV)
    -0.3318590E+00 (  -9.030eV)
    -0.4595181E+00 ( -12.504eV)
    -0.9168479E+00 ( -24.949eV)

 Total PSPW energy     :  -0.1709056748E+02


=== Spin Contamination ===

 <Sexact^2> =    0.0000000000000000     
 <S^2>      =    0.0000000000000000     



== Center of Charge ==

spin up     (   -0.0000,   -0.0247,   -0.0000 )
spin down   (   -0.0000,   -0.0247,   -0.0000 )
     total  (   -0.0000,   -0.0247,   -0.0000 )
ionic       (   -0.0000,    0.0678,    0.0000 )


== Molecular Dipole wrt Center of Mass ==

mu   =  (    0.0000,    0.7405,    0.0000 ) au
|mu| =     0.7405 au,       1.8819 Debye

 output psi filename:./pspw_vs98_H2O1.movecs

 Writing Crystallographic Information File:./H2O1.cif
   - cell not shifted (nwpw:cif_shift_cell .false.)


== Timing ==

cputime in seconds
  prologue    :   0.278554E+01
  main loop   :   0.341386E+03
  epilogue    :   0.136935E+00
  total       :   0.344308E+03
  cputime/step:   0.168170E+01       (     203 evalulations,      91 linesearches)


Time spent doing                        total          step       percent
  total time                 :   0.344309E+03  0.169610E+01       100.0 %
  i/o time                   :   0.301331E+00  0.148439E-02         0.1 %
  FFTs                       :   0.205108E+03  0.101038E+01        59.6 %
  dot products               :   0.934431E+00  0.460311E-02         0.3 %
  geodesic                   :   0.184201E+01  0.907395E-02         0.5 %
  ffm_dgemm                  :   0.275500E+00  0.135714E-02         0.1 %
  fmf_dgemm                  :   0.134065E+01  0.660420E-02         0.4 %
  mmm_dgemm                  :   0.582200E-02  0.286798E-04         0.0 %
  m_diagonalize              :   0.525694E-02  0.258963E-04         0.0 %
  exchange correlation       :   0.105594E+03  0.520169E+00        30.7 %
  local pseudopotentials     :   0.639100E-02  0.314828E-04         0.0 %
  non-local pseudopotentials :   0.148147E+01  0.729790E-02         0.4 %
  hartree potentials         :   0.308742E+00  0.152090E-02         0.1 %
  ion-ion interaction        :   0.467350E-01  0.230222E-03         0.0 %
  structure factors          :   0.308505E+00  0.151973E-02         0.1 %
  phase factors              :   0.130000E-04  0.640394E-07         0.0 %
  masking and packing        :   0.205484E+02  0.101223E+00         6.0 %
  queue fft                  :   0.296272E+02  0.145947E+00         8.6 %
  queue fft (serial)         :   0.126111E+02  0.621236E-01         3.7 %
  queue fft (message passing):   0.161012E+02  0.793162E-01         4.7 %
  non-local psp FFM          :   0.722496E+00  0.355909E-02         0.2 %
  non-local psp FMF          :   0.374948E+00  0.184703E-02         0.1 %
  non-local psp FFM A        :   0.200367E+00  0.987028E-03         0.1 %
  non-local psp FFM B        :   0.357649E+00  0.176182E-02         0.1 %

     >>>  JOB COMPLETED     AT Wed Apr  7 12:58:19 2021  <<<
 Line search: 
     step= 1.00 grad=-5.6D-03 hess= 2.6D-03 energy=    -17.090567 mode=downhill
 new step= 1.10                   predicted energy=    -17.090595

          --------
          Step   1
          --------


                         Geometry "geometry" -> "geometry"
                         ---------------------------------

 Output coordinates in angstroms (scale by  1.889725989 to convert to a.u.)

  No.       Tag          Charge          X              Y              Z
 ---- ---------------- ---------- -------------- -------------- --------------
    1 O                    8.0000    -0.00000001    -0.12396213    -0.00000000
    2 H                    1.0000    -0.72843289     0.50023106     0.00000000
    3 H                    1.0000     0.72843289     0.50023107     0.00000000

      Atomic Mass 
      ----------- 

      O                 15.994910
      H                  1.007825


 Effective nuclear repulsion energy (a.u.)       9.1894057024

            Nuclear Dipole moment (a.u.) 
            ----------------------------
        X                 Y               Z
 ---------------- ---------------- ----------------
    -0.0000000778     0.0165636446    -0.0000000000

          ****************************************************
          *                                                  *
          *               NWPW PSPW Calculation              *
          *                                                  *
          * [ (Grassmann/Stiefel manifold implementation)  ] *
          *                                                  *
          *      [ NorthWest Chemistry implementation ]      *
          *                                                  *
          *            version #5.10   06/12/02              *
          *                                                  *
          *    This code was developed by Eric J. Bylaska,   *
          *    and was based upon algorithms and code        *
          *    developed by the group of Prof. John H. Weare *
          *                                                  *
          ****************************************************
     >>>  JOB STARTED       AT Wed Apr  7 12:58:19 2021  <<<
          ================ input data ========================

 input psi filename:./pspw_vs98_H2O1.movecs

 number of processors used:         2
 processor grid           :   2 x   1
 parallel mapping         :2d hilbert
 parallel mapping         :  balanced
 number of threads        :         1
 parallel io              :       off

 options:
      boundary conditions  = periodic    (version3)
      electron spin        = restricted
      exchange-correlation = VS98
      - Meta GGA Functional

 elements involved in the cluster:
      1: O   valence charge:  6.0000  lmax=  2
             comment    : Parameterized (Chem.Phys.Lett., vol 322, page 447) Hamman psp
             pseudpotential type            :   0
             highest angular component      :   2
             local potential used           :   2
             number of non-local projections:   4
             cutoff =   0.700   0.700   0.700

      2: H   valence charge:  1.0000  lmax=  1
             comment    : Parameterized (Chem.Phys.Lett., vol 322, page 447) Hamman psp
             pseudpotential type            :   0
             highest angular component      :   1
             local potential used           :   1
             number of non-local projections:   1
             cutoff =   0.800   0.800


 total charge:   0.000

 atomic composition:
     O   :    1     H   :    2

 number of electrons: spin up=     4 (   4 per task)  down=     4 (   4 per task) (Fourier space)
 number of orbitals : spin up=     4 (   4 per task)  down=     4 (   4 per task) (Fourier space)

 supercell:
      cell_name:  cell_default                                      
      lattice:    a1=<  20.000   0.000   0.000 >
                  a2=<   0.000  20.000   0.000 >
                  a3=<   0.000   0.000  20.000 >
      reciprocal: b1=<   0.314   0.000   0.000 >
                  b2=<   0.000   0.314   0.000 >
                  b3=<   0.000   0.000   0.314 >
      lattice:    a=      20.000 b=     20.000 c=      20.000
                  alpha=  90.000 beta=  90.000 gamma=  90.000
                  omega=      8000.0

      density cutoff=100.000  fft= 96x 96x 96(   191162 waves    95581 per task)
      wavefnc cutoff= 50.000  fft= 96x 96x 96(    67522 waves    33761 per task)
      Ewald summation: cut radius=    6.37  and  1
                       Madelung Wigner-Seitz=    1.76011888 (alpha=    2.83729748 rs=12.40700982)

 technical parameters:
      time step=      5.80     fictitious mass=  400000.0
      tolerance=0.100E-06 (energy)   0.100E-06 (density)
      maximum iterations =      1000 (   10 inner    100 outer )





== Energy Calculation ==


          ============ Grassmann lmbfgs iteration ============
     >>>  ITERATION STARTED AT Wed Apr  7 12:58:22 2021  <<<
    iter.           Energy         DeltaE       DeltaRho 
    ------------------------------------------------------
      10   -0.1709015256E+02   -0.32006E-04    0.35694E-03
      20   -0.1709028022E+02   -0.43435E-05    0.86976E-05
      30   -0.1709030192E+02   -0.94300E-06    0.15086E-05
      40   -0.1709030745E+02   -0.30429E-06    0.25611E-06
      50   -0.1709030909E+02   -0.93040E-07    0.26263E-07
  *** tolerance ok. iteration terminated
     >>>  ITERATION ENDED   AT Wed Apr  7 13:01:30 2021  <<<


==  Summary Of Results  ==

 number of electrons: spin up=    4.00000  down=    4.00000 (real space)

 total     energy    :  -0.1709030909E+02 (   -0.56968E+01/ion)
 total orbital energy:  -0.3919230316E+01 (   -0.97981E+00/electron)
 hartree   energy    :   0.1687145277E+02 (    0.42179E+01/electron)
 exc-corr  energy    :  -0.4120181610E+01 (   -0.10300E+01/electron)
 ion-ion   energy    :   0.2455521952E+01 (    0.81851E+00/ion)

 kinetic (planewave) :   0.1231156188E+02 (    0.30779E+01/electron)
 V_local (planewave) :  -0.4341285444E+02 (   -0.10853E+02/electron)
 V_nl    (planewave) :  -0.1195809639E+01 (   -0.29895E+00/electron)
 V_Coul  (planewave) :   0.3374290554E+02 (    0.84357E+01/electron)
 V_xc.   (planewave) :  -0.5365033650E+01 (   -0.13413E+01/electron)
 Virial Coefficient  :  -0.1318337377E+01

 orbital energies:
    -0.2500974E+00 (  -6.806eV)
    -0.3348786E+00 (  -9.113eV)
    -0.4567920E+00 ( -12.430eV)
    -0.9178472E+00 ( -24.976eV)

 Total PSPW energy     :  -0.1709030909E+02


=== Spin Contamination ===

 <Sexact^2> =    0.0000000000000000     
 <S^2>      =    0.0000000000000000     



== Center of Charge ==

spin up     (   -0.0000,   -0.0327,    0.0000 )
spin down   (   -0.0000,   -0.0327,    0.0000 )
     total  (   -0.0000,   -0.0327,    0.0000 )
ionic       (   -0.0000,    0.0606,    0.0000 )


== Molecular Dipole wrt Center of Mass ==

mu   =  (    0.0000,    0.7468,   -0.0000 ) au
|mu| =     0.7468 au,       1.8980 Debye


Translation force removed: (    0.00000    0.01080    0.00000)


          =============  Ion Gradients =================
 Ion Forces:
        1 O    (    0.000000    0.005163    0.000001 )
        2 H    (   -0.001791   -0.020645   -0.000003 )
        3 H    (    0.001791   -0.020645   -0.000003 )
        C.O.M. (    0.000000   -0.000000   -0.000000 )
          ===============================================
          |F|       =   0.297574E-01
          |F|/nion  =   0.991914E-02
          max|Fatom|=   0.207226E-01 (   1.066eV/Angstrom)



 output psi filename:./pspw_vs98_H2O1.movecs

 Writing Crystallographic Information File:./H2O1.cif
   - cell not shifted (nwpw:cif_shift_cell .false.)


== Timing ==

cputime in seconds
  prologue    :   0.279325E+01
  main loop   :   0.187737E+03
  epilogue    :   0.141475E+00
  total       :   0.190672E+03
  cputime/step:   0.167622E+01       (     112 evalulations,      50 linesearches)


Time spent doing                        total          step       percent
[...]


== Timing ==

cputime in seconds
  prologue    :   0.279521E+01
  main loop   :   0.498764E+02
  epilogue    :   0.141591E+00
  total       :   0.528131E+02
  cputime/step:   0.171987E+01       (      29 evalulations,      11 linesearches)


Time spent doing                        total          step       percent
  total time                 :   0.528136E+02  0.182116E+01       100.0 %
  i/o time                   :   0.301094E+00  0.103826E-01         0.6 %
  FFTs                       :   0.298109E+02  0.102796E+01        56.4 %
  dot products               :   0.129673E+00  0.447148E-02         0.2 %
  geodesic                   :   0.240878E+00  0.830614E-02         0.5 %
  ffm_dgemm                  :   0.333130E-01  0.114872E-02         0.1 %
  fmf_dgemm                  :   0.176904E+00  0.610014E-02         0.3 %
  mmm_dgemm                  :   0.808000E-03  0.278621E-04         0.0 %
  m_diagonalize              :   0.763990E-03  0.263445E-04         0.0 %
  exchange correlation       :   0.155777E+02  0.537162E+00        29.5 %
  local pseudopotentials     :   0.646500E-02  0.222931E-03         0.0 %
  non-local pseudopotentials :   0.212020E+00  0.731103E-02         0.4 %
  hartree potentials         :   0.472090E-01  0.162790E-02         0.1 %
  ion-ion interaction        :   0.916700E-02  0.316103E-03         0.0 %
  structure factors          :   0.476029E-01  0.164148E-02         0.1 %
  phase factors              :   0.130000E-04  0.448276E-06         0.0 %
  masking and packing        :   0.302215E+01  0.104212E+00         5.7 %
  queue fft                  :   0.434329E+01  0.149769E+00         8.2 %
  queue fft (serial)         :   0.187199E+01  0.645515E-01         3.5 %
  queue fft (message passing):   0.234028E+01  0.806993E-01         4.4 %
  non-local psp FFM          :   0.103392E+00  0.356524E-02         0.2 %
  non-local psp FMF          :   0.536710E-01  0.185072E-02         0.1 %
  non-local psp FFM A        :   0.288900E-01  0.996205E-03         0.1 %
  non-local psp FFM B        :   0.515590E-01  0.177790E-02         0.1 %

     >>>  JOB COMPLETED     AT Wed Apr  7 13:17:47 2021  <<<
 Line search: 
     step= 1.00 grad=-3.9D-07 hess= 1.6D-07 energy=    -17.090722 mode=downhill
 new step= 1.25                   predicted energy=    -17.090722

          --------
          Step   5
          --------


                         Geometry "geometry" -> "geometry"
                         ---------------------------------

 Output coordinates in angstroms (scale by  1.889725989 to convert to a.u.)

  No.       Tag          Charge          X              Y              Z
 ---- ---------------- ---------- -------------- -------------- --------------
    1 O                    8.0000     0.00000000    -0.10767033     0.00000000
    2 H                    1.0000    -0.74212612     0.49208516     0.00000000
    3 H                    1.0000     0.74212612     0.49208516     0.00000000

      Atomic Mass 
      ----------- 

      O                 15.994910
      H                  1.007825


 Effective nuclear repulsion energy (a.u.)       9.2299518022

            Nuclear Dipole moment (a.u.) 
            ----------------------------
        X                 Y               Z
 ---------------- ---------------- ----------------
     0.0000000087     0.2320729266     0.0000000000

          ****************************************************
          *                                                  *
          *               NWPW PSPW Calculation              *
          *                                                  *
          * [ (Grassmann/Stiefel manifold implementation)  ] *
          *                                                  *
          *      [ NorthWest Chemistry implementation ]      *
          *                                                  *
          *            version #5.10   06/12/02              *
          *                                                  *
          *    This code was developed by Eric J. Bylaska,   *
          *    and was based upon algorithms and code        *
          *    developed by the group of Prof. John H. Weare *
          *                                                  *
          ****************************************************
     >>>  JOB STARTED       AT Wed Apr  7 13:17:47 2021  <<<
          ================ input data ========================

 input psi filename:./pspw_vs98_H2O1.movecs

 number of processors used:         2
 processor grid           :   2 x   1
 parallel mapping         :2d hilbert
 parallel mapping         :  balanced
 number of threads        :         1
 parallel io              :       off

 options:
      boundary conditions  = periodic    (version3)
      electron spin        = restricted
      exchange-correlation = VS98
      - Meta GGA Functional

 elements involved in the cluster:
      1: O   valence charge:  6.0000  lmax=  2
             comment    : Parameterized (Chem.Phys.Lett., vol 322, page 447) Hamman psp
             pseudpotential type            :   0
             highest angular component      :   2
             local potential used           :   2
             number of non-local projections:   4
             cutoff =   0.700   0.700   0.700

      2: H   valence charge:  1.0000  lmax=  1
             comment    : Parameterized (Chem.Phys.Lett., vol 322, page 447) Hamman psp
             pseudpotential type            :   0
             highest angular component      :   1
             local potential used           :   1
             number of non-local projections:   1
             cutoff =   0.800   0.800


 total charge:   0.000

 atomic composition:
     O   :    1     H   :    2

 number of electrons: spin up=     4 (   4 per task)  down=     4 (   4 per task) (Fourier space)
 number of orbitals : spin up=     4 (   4 per task)  down=     4 (   4 per task) (Fourier space)

 supercell:
      cell_name:  cell_default                                      
      lattice:    a1=<  20.000   0.000   0.000 >
                  a2=<   0.000  20.000   0.000 >
                  a3=<   0.000   0.000  20.000 >
      reciprocal: b1=<   0.314   0.000   0.000 >
                  b2=<   0.000   0.314   0.000 >
                  b3=<   0.000   0.000   0.314 >
      lattice:    a=      20.000 b=     20.000 c=      20.000
                  alpha=  90.000 beta=  90.000 gamma=  90.000
                  omega=      8000.0

      density cutoff=100.000  fft= 96x 96x 96(   191162 waves    95581 per task)
      wavefnc cutoff= 50.000  fft= 96x 96x 96(    67522 waves    33761 per task)
      Ewald summation: cut radius=    6.37  and  1
                       Madelung Wigner-Seitz=    1.76011888 (alpha=    2.83729748 rs=12.40700982)

 technical parameters:
      time step=      5.80     fictitious mass=  400000.0
      tolerance=0.100E-06 (energy)   0.100E-06 (density)
      maximum iterations =      1000 (   10 inner    100 outer )





== Energy Calculation ==


          ============ Grassmann lmbfgs iteration ============
     >>>  ITERATION STARTED AT Wed Apr  7 13:17:49 2021  <<<
    iter.           Energy         DeltaE       DeltaRho 
    ------------------------------------------------------
      10   -0.1709072272E+02   -0.58771E-07    0.18989E-06
      20   -0.1709072274E+02   -0.25989E-07    0.26659E-09
  *** tolerance ok. iteration terminated
     >>>  ITERATION ENDED   AT Wed Apr  7 13:18:39 2021  <<<


==  Summary Of Results  ==

 number of electrons: spin up=    4.00000  down=    4.00000 (real space)

 total     energy    :  -0.1709072274E+02 (   -0.56969E+01/ion)
 total orbital energy:  -0.3922566792E+01 (   -0.98064E+00/electron)
 hartree   energy    :   0.1689878866E+02 (    0.42247E+01/electron)
 exc-corr  energy    :  -0.4124411403E+01 (   -0.10311E+01/electron)
 ion-ion   energy    :   0.2484229772E+01 (    0.82808E+00/ion)

 kinetic (planewave) :   0.1233868313E+02 (    0.30847E+01/electron)
 V_local (planewave) :  -0.4347848286E+02 (   -0.10870E+02/electron)
 V_nl    (planewave) :  -0.1209530039E+01 (   -0.30238E+00/electron)
 V_Coul  (planewave) :   0.3379757732E+02 (    0.84494E+01/electron)
 V_xc.   (planewave) :  -0.5370814339E+01 (   -0.13427E+01/electron)
 Virial Coefficient  :  -0.1317908058E+01

 orbital energies:
    -0.2497529E+00 (  -6.796eV)
    -0.3285983E+00 (  -8.942eV)
    -0.4649421E+00 ( -12.652eV)
    -0.9179901E+00 ( -24.980eV)

 Total PSPW energy     :  -0.1709072274E+02


=== Spin Contamination ===

 <Sexact^2> =    0.0000000000000000     
 <S^2>      =    0.0000000000000000     



== Center of Charge ==

spin up     (    0.0000,   -0.0116,    0.0000 )
spin down   (    0.0000,   -0.0116,    0.0000 )
     total  (    0.0000,   -0.0116,    0.0000 )
ionic       (    0.0000,    0.0799,    0.0000 )


== Molecular Dipole wrt Center of Mass ==

mu   =  (    0.0000,    0.7316,   -0.0000 ) au
|mu| =     0.7316 au,       1.8595 Debye


Translation force removed: (   -0.00000   -0.00472    0.00000)


          =============  Ion Gradients =================
 Ion Forces:
        1 O    (   -0.000000    0.000071    0.000000 )
        2 H    (    0.000075   -0.000282   -0.000000 )
        3 H    (   -0.000074   -0.000282   -0.000000 )
        C.O.M. (    0.000000    0.000000   -0.000000 )
          ===============================================
          |F|       =   0.418714E-03
          |F|/nion  =   0.139571E-03
          max|Fatom|=   0.291842E-03 (   0.015eV/Angstrom)



 output psi filename:./pspw_vs98_H2O1.movecs

 Writing Crystallographic Information File:./H2O1.cif
   - cell not shifted (nwpw:cif_shift_cell .false.)


== Timing ==

cputime in seconds
  prologue    :   0.278821E+01
  main loop   :   0.496167E+02
  epilogue    :   0.157391E+00
  total       :   0.525623E+02
  cputime/step:   0.171092E+01       (      29 evalulations,      11 linesearches)


Time spent doing                        total          step       percent
  total time                 :   0.525628E+02  0.181251E+01       100.0 %
  i/o time                   :   0.315719E+00  0.108869E-01         0.6 %
  FFTs                       :   0.296698E+02  0.102310E+01        56.4 %
  dot products               :   0.135272E+00  0.466454E-02         0.3 %
  geodesic                   :   0.232766E+00  0.802641E-02         0.4 %
  ffm_dgemm                  :   0.333340E-01  0.114945E-02         0.1 %
  fmf_dgemm                  :   0.172009E+00  0.593134E-02         0.3 %
  mmm_dgemm                  :   0.754000E-03  0.260000E-04         0.0 %
  m_diagonalize              :   0.682994E-03  0.235515E-04         0.0 %
  exchange correlation       :   0.155908E+02  0.537612E+00        29.7 %
  local pseudopotentials     :   0.151790E-01  0.523414E-03         0.0 %
  non-local pseudopotentials :   0.222183E+00  0.766148E-02         0.4 %
  hartree potentials         :   0.460040E-01  0.158634E-02         0.1 %
  ion-ion interaction        :   0.181600E-01  0.626207E-03         0.0 %
  structure factors          :   0.533189E-01  0.183858E-02         0.1 %
  phase factors              :   0.139990E-04  0.482724E-06         0.0 %
  masking and packing        :   0.298533E+01  0.102942E+00         5.7 %
  queue fft                  :   0.427708E+01  0.147485E+00         8.1 %
  queue fft (serial)         :   0.183918E+01  0.634199E-01         3.5 %
  queue fft (message passing):   0.230541E+01  0.794967E-01         4.4 %
  non-local psp FFM          :   0.102498E+00  0.353441E-02         0.2 %
  non-local psp FMF          :   0.537750E-01  0.185431E-02         0.1 %
  non-local psp FFM A        :   0.289319E-01  0.997653E-03         0.1 %
  non-local psp FFM B        :   0.514550E-01  0.177431E-02         0.1 %

     >>>  JOB COMPLETED     AT Wed Apr  7 13:18:39 2021  <<<

  Step       Energy      Delta E   Gmax     Grms     Xrms     Xmax   Walltime
  ---- ---------------- -------- -------- -------- -------- -------- --------
@    5     -17.09072274 -6.1D-07  0.00028  0.00014  0.00043  0.00093   2521.5
                                     ok       ok       ok       ok  


      ----------------------
      Optimization converged
      ----------------------


  Step       Energy      Delta E   Gmax     Grms     Xrms     Xmax   Walltime
  ---- ---------------- -------- -------- -------- -------- -------- --------
@    5     -17.09072274 -6.1D-07  0.00028  0.00014  0.00043  0.00093   2521.5
                                     ok       ok       ok       ok  



                         Geometry "geometry" -> "geometry"
                         ---------------------------------

 Output coordinates in angstroms (scale by  1.889725989 to convert to a.u.)

  No.       Tag          Charge          X              Y              Z
 ---- ---------------- ---------- -------------- -------------- --------------
    1 O                    8.0000     0.00000000    -0.10767033     0.00000000
    2 H                    1.0000    -0.74212612     0.49208516     0.00000000
    3 H                    1.0000     0.74212612     0.49208516     0.00000000

      Atomic Mass 
      ----------- 

      O                 15.994910
      H                  1.007825


 Effective nuclear repulsion energy (a.u.)       9.2299518022

            Nuclear Dipole moment (a.u.) 
            ----------------------------
        X                 Y               Z
 ---------------- ---------------- ----------------
     0.0000000087     0.2320729266     0.0000000000

 ==============================================================================
                                internuclear distances
 ------------------------------------------------------------------------------
       center one      |      center two      | atomic units |  angstroms
 ------------------------------------------------------------------------------
    2 H                |   1 O                |     1.80314  |     0.95418
    3 H                |   1 O                |     1.80314  |     0.95418
 ------------------------------------------------------------------------------
                         number of included internuclear distances:          2
 ==============================================================================



 ==============================================================================
                                 internuclear angles
 ------------------------------------------------------------------------------
        center 1       |       center 2       |       center 3       |  degrees
 ------------------------------------------------------------------------------
    2 H                |   1 O                |   3 H                |   102.11
 ------------------------------------------------------------------------------
                            number of included internuclear angles:          1
 ==============================================================================




 Task  times  cpu:     1579.5s     wall:     1579.5s


                                NWChem Input Module
                                -------------------


 Summary of allocated global arrays
-----------------------------------
  No active global arrays



                         GA Statistics for process    0
                         ------------------------------

       create   destroy   get      put      acc     scatter   gather  read&inc
calls:    0        0        0        0        0        0        0        0     
number of processes/call 0.00e+00 0.00e+00 0.00e+00 0.00e+00 0.00e+00
bytes total:             0.00e+00 0.00e+00 0.00e+00 0.00e+00 0.00e+00 0.00e+00
bytes remote:            0.00e+00 0.00e+00 0.00e+00 0.00e+00 0.00e+00 0.00e+00
Max memory consumed for GA by this process: 0 bytes

MA_summarize_allocated_blocks: starting scan ...
MA_summarize_allocated_blocks: scan completed: 0 heap blocks, 0 stack blocks
MA usage statistics:

	allocation statistics:
					      heap	     stack
					      ----	     -----
	current number of blocks	         0	         0
	maximum number of blocks	       281	        24
	current total bytes		         0	         0
	maximum total bytes		 329959432	 109801128
	maximum total K-bytes		    329960	    109802
	maximum total M-bytes		       330	       110


                                     CITATION
                                     --------
                Please cite the following reference when publishing
                           results obtained with NWChem:

          E. Apr, E. J. Bylaska, W. A. de Jong, N. Govind, K. Kowalski,
       T. P. Straatsma, M. Valiev, H. J. J. van Dam, Y. Alexeev, J. Anchell,
       V. Anisimov, F. W. Aquino, R. Atta-Fynn, J. Autschbach, N. P. Bauman,
     J. C. Becca, D. E. Bernholdt, K. Bhaskaran-Nair, S. Bogatko, P. Borowski,
        J. Boschen, J. Brabec, A. Bruner, E. Caut, Y. Chen, G. N. Chuev,
      C. J. Cramer, J. Daily, M. J. O. Deegan, T. H. Dunning Jr., M. Dupuis,
   K. G. Dyall, G. I. Fann, S. A. Fischer, A. Fonari, H. Frchtl, L. Gagliardi,
      J. Garza, N. Gawande, S. Ghosh, K. Glaesemann, A. W. Gtz, J. Hammond,
       V. Helms, E. D. Hermes, K. Hirao, S. Hirata, M. Jacquelin, L. Jensen,
   B. G. Johnson, H. Jnsson, R. A. Kendall, M. Klemm, R. Kobayashi, V. Konkov,
      S. Krishnamoorthy, M. Krishnan, Z. Lin, R. D. Lins, R. J. Littlefield,
      A. J. Logsdail, K. Lopata, W. Ma, A. V. Marenich, J. Martin del Campo,
   D. Mejia-Rodriguez, J. E. Moore, J. M. Mullin, T. Nakajima, D. R. Nascimento,
    J. A. Nichols, P. J. Nichols, J. Nieplocha, A. Otero-de-la-Roza, B. Palmer,
    A. Panyala, T. Pirojsirikul, B. Peng, R. Peverati, J. Pittner, L. Pollack,
   R. M. Richard, P. Sadayappan, G. C. Schatz, W. A. Shelton, D. W. Silverstein,
   D. M. A. Smith, T. A. Soares, D. Song, M. Swart, H. L. Taylor, G. S. Thomas,
            V. Tipparaju, D. G. Truhlar, K. Tsemekhman, T. Van Voorhis,
     . Vzquez-Mayagoitia, P. Verma, O. Villa, A. Vishnu, K. D. Vogiatzis,
        D. Wang, J. H. Weare, M. J. Williamson, T. L. Windus, K. Woliski,
        A. T. Wong, Q. Wu, C. Yang, Q. Yu, M. Zacharias, Z. Zhang, Y. Zhao,
                                and R. J. Harrison
                        "NWChem: Past, present, and future
                         J. Chem. Phys. 152, 184102 (2020)
                               doi:10.1063/5.0004997

                                      AUTHORS
                                      -------
     E. Apra, E. J. Bylaska, N. Govind, K. Kowalski, M. Valiev, W. A. de Jong,
      T. P. Straatsma, H. J. J. van Dam, D. Wang, T. L. Windus, N. P. Bauman,
       A. Panyala, J. Hammond, J. Autschbach, K. Bhaskaran-Nair, J. Brabec,
    K. Lopata, S. A. Fischer, S. Krishnamoorthy, M. Jacquelin, W. Ma, M. Klemm,
       O. Villa, Y. Chen, V. Anisimov, F. Aquino, S. Hirata, M. T. Hackler,
           Eric Hermes, L. Jensen, J. E. Moore, J. C. Becca, V. Konjkov,
            D. Mejia-Rodriguez, T. Risthaus, M. Malagoli, A. Marenich,
   A. Otero-de-la-Roza, J. Mullin, P. Nichols, R. Peverati, J. Pittner, Y. Zhao,
        P.-D. Fan, A. Fonari, M. J. Williamson, R. J. Harrison, J. R. Rehr,
      M. Dupuis, D. Silverstein, D. M. A. Smith, J. Nieplocha, V. Tipparaju,
      M. Krishnan, B. E. Van Kuiken, A. Vazquez-Mayagoitia, M. Swart, Q. Wu,
   T. Van Voorhis, A. A. Auer, M. Nooijen, L. D. Crosby, E. Brown, G. Cisneros,
     G. I. Fann, H. Fruchtl, J. Garza, K. Hirao, R. A. Kendall, J. A. Nichols,
       K. Tsemekhman, K. Wolinski, J. Anchell, D. E. Bernholdt, P. Borowski,
       T. Clark, D. Clerc, H. Dachsel, M. J. O. Deegan, K. Dyall, D. Elwood,
      E. Glendening, M. Gutowski, A. C. Hess, J. Jaffe, B. G. Johnson, J. Ju,
        R. Kobayashi, R. Kutteh, Z. Lin, R. Littlefield, X. Long, B. Meng,
      T. Nakajima, S. Niu, L. Pollack, M. Rosing, K. Glaesemann, G. Sandrone,
      M. Stave, H. Taylor, G. Thomas, J. H. van Lenthe, A. T. Wong, Z. Zhang.

 Total times  cpu:     2521.6s     wall:     2521.6s
