All connections between all procs tested: SUCCESS
 argument  1 = h2o-ssb-d.nw



============================== echo of input deck ==============================
title "h2o ssb-d-dft"

echo
start h2o-ssb-d

geometry units au
 O 0       0        0
 H 0       1.430   -1.107
 H 0      -1.430   -1.107
end

basis
  O library 6-31g*
  H library 6-31g*
end

dft
  iterations 99
  CONVERGENCE density 1.0e-6
  CONVERGENCE gradient 1.0e-6
  convergence damp 90 nolevelshifting
  convergence diison 0.01
  TOLERANCES tight
  grid fine
  xc ssb-d
end

task dft energy
================================================================================


                                         
                                         


              Northwest Computational Chemistry Package (NWChem) 6.3
              ------------------------------------------------------


                    Environmental Molecular Sciences Laboratory
                       Pacific Northwest National Laboratory
                                Richland, WA 99352

                              Copyright (c) 1994-2013
                       Pacific Northwest National Laboratory
                            Battelle Memorial Institute

             NWChem is an open-source computational chemistry package
                        distributed under the terms of the
                      Educational Community License (ECL) 2.0
             A copy of the license is included with this distribution
                              in the LICENSE.TXT file

                                  ACKNOWLEDGMENT
                                  --------------

            This software and its documentation were developed at the
            EMSL at Pacific Northwest National Laboratory, a multiprogram
            national laboratory, operated for the U.S. Department of Energy
            by Battelle under Contract Number DE-AC05-76RL01830. Support
            for this work was provided by the Department of Energy Office
            of Biological and Environmental Research, Office of Basic
            Energy Sciences, and the Office of Advanced Scientific Computing.


           Job information
           ---------------

    hostname        = arcen
    program         = /home/d3y133/nwchem-dev/nwchem-dev-2014-06-04/QA/../bin/LINUX64/nwchem
    date            = Thu Jun  5 22:19:04 2014

    compiled        = Thu_Jun_05_12:39:44_2014
    source          = /home/d3y133/nwchem-dev/nwchem-dev-2014-06-04
    nwchem branch   = Development
    nwchem revision = 25716
    ga revision     = 10494
    input           = h2o-ssb-d.nw
    prefix          = h2o-ssb-d.
    data base       = /home/d3y133/nwchem-dev/nwchem-dev-2014-06-04/QA/scratchdir/h2o-ssb-d.db
    status          = startup
    nproc           =        2
    time left       =     -1s



           Memory information
           ------------------

    heap     =   13107198 doubles =    100.0 Mbytes
    stack    =   13107195 doubles =    100.0 Mbytes
    global   =   26214400 doubles =    200.0 Mbytes (distinct from heap & stack)
    total    =   52428793 doubles =    400.0 Mbytes
    verify   = yes
    hardfail = no 


           Directory information
           ---------------------

  0 permanent = /home/d3y133/nwchem-dev/nwchem-dev-2014-06-04/QA/scratchdir
  0 scratch   = /home/d3y133/nwchem-dev/nwchem-dev-2014-06-04/QA/scratchdir




                                NWChem Input Module
                                -------------------


                                   h2o ssb-d-dft
                                   -------------
 C2V symmetry detected

          ------
          auto-z
          ------


                             Geometry "geometry" -> ""
                             -------------------------

 Output coordinates in a.u. (scale by  1.000000000 to convert to a.u.)

  No.       Tag          Charge          X              Y              Z
 ---- ---------------- ---------- -------------- -------------- --------------
    1 O                    8.0000     0.00000000     0.00000000     0.22140000
    2 H                    1.0000    -1.43000000     0.00000000    -0.88560000
    3 H                    1.0000     1.43000000     0.00000000    -0.88560000

      Atomic Mass 
      ----------- 

      O                 15.994910
      H                  1.007825


 Effective nuclear repulsion energy (a.u.)       9.1971984402

            Nuclear Dipole moment (a.u.) 
            ----------------------------
        X                 Y               Z
 ---------------- ---------------- ----------------
     0.0000000000     0.0000000000     0.0000000000

      Symmetry information
      --------------------

 Group name             C2v       
 Group number             16
 Group order               4
 No. of unique centers     2

      Symmetry unique atoms

     1    2



                                Z-matrix (autoz)
                                -------- 

 Units are Angstrom for bonds and degrees for angles

      Type          Name      I     J     K     L     M      Value
      ----------- --------  ----- ----- ----- ----- ----- ----------
    1 Stretch                  1     2                       0.95697
    2 Stretch                  1     3                       0.95697
    3 Bend                     2     1     3               104.51124


            XYZ format geometry
            -------------------
     3
 geometry
 O                     0.00000000     0.00000000     0.11715984
 H                    -0.75672347     0.00000000    -0.46863937
 H                     0.75672347     0.00000000    -0.46863937

 ==============================================================================
                                internuclear distances
 ------------------------------------------------------------------------------
       center one      |      center two      | atomic units |       a.u.
 ------------------------------------------------------------------------------
    2 H                |   1 O                |     1.80841  |     1.80841
    3 H                |   1 O                |     1.80841  |     1.80841
 ------------------------------------------------------------------------------
                         number of included internuclear distances:          2
 ==============================================================================



 ==============================================================================
                                 internuclear angles
 ------------------------------------------------------------------------------
        center 1       |       center 2       |       center 3       |  degrees
 ------------------------------------------------------------------------------
    2 H                |   1 O                |   3 H                |   104.51
 ------------------------------------------------------------------------------
                            number of included internuclear angles:          1
 ==============================================================================



  library name resolved from: environment
  library file name is: </home/d3y133/nwchem-dev/nwchem-dev-2014-06-04/QA/../src/basis/libraries/>
  
                      Basis "ao basis" -> "" (cartesian)
                      -----
  O (Oxygen)
  ----------
            Exponent  Coefficients 
       -------------- ---------------------------------------------------------
  1 S  5.48467170E+03  0.001831
  1 S  8.25234950E+02  0.013950
  1 S  1.88046960E+02  0.068445
  1 S  5.29645000E+01  0.232714
  1 S  1.68975700E+01  0.470193
  1 S  5.79963530E+00  0.358521

  2 S  1.55396160E+01 -0.110778
  2 S  3.59993360E+00 -0.148026
  2 S  1.01376180E+00  1.130767

  3 P  1.55396160E+01  0.070874
  3 P  3.59993360E+00  0.339753
  3 P  1.01376180E+00  0.727159

  4 S  2.70005800E-01  1.000000

  5 P  2.70005800E-01  1.000000

  6 D  8.00000000E-01  1.000000

  H (Hydrogen)
  ------------
            Exponent  Coefficients 
       -------------- ---------------------------------------------------------
  1 S  1.87311370E+01  0.033495
  1 S  2.82539370E+00  0.234727
  1 S  6.40121700E-01  0.813757

  2 S  1.61277800E-01  1.000000



 Summary of "ao basis" -> "" (cartesian)
 ------------------------------------------------------------------------------
       Tag                 Description            Shells   Functions and Types
 ---------------- ------------------------------  ------  ---------------------
 O                           6-31g*                  6       15   3s2p1d
 H                           6-31g*                  2        2   2s



                                 NWChem DFT Module
                                 -----------------


                                   h2o ssb-d-dft




 Summary of "ao basis" -> "ao basis" (cartesian)
 ------------------------------------------------------------------------------
       Tag                 Description            Shells   Functions and Types
 ---------------- ------------------------------  ------  ---------------------
 O                           6-31g*                  6       15   3s2p1d
 H                           6-31g*                  2        2   2s


      Symmetry analysis of basis
      --------------------------

        a1         10
        a2          1
        b1          5
        b2          3

  Caching 1-el integrals 

            General Information
            -------------------
          SCF calculation type: DFT
          Wavefunction type:  closed shell.
          No. of atoms     :     3
          No. of electrons :    10
           Alpha electrons :     5
            Beta electrons :     5
          Charge           :     0
          Spin multiplicity:     1
          Use of symmetry is: on ; symmetry adaption is: on 
          Maximum number of iterations:  99
          AO basis - number of functions:    19
                     number of shells:    10
          Convergence on energy requested: 1.00D-06
          Convergence on density requested: 1.00D-06
          Convergence on gradient requested: 1.00D-06

              XC Information
              --------------
                        SSB-D Method XC Functional
                        Slater Exchange Functional  1.080 local    
                         SSB-1 Exchange Functional  1.000 non-local
                           KT1 gradient correction  0.359 non-local
            Perdew 1991 LDA Correlation Functional  1.000 local    
              simplified PBE Correlation Potential  1.000 non-local

             Grid Information
             ----------------
          Grid used for XC integration:  fine      
          Radial quadrature: Mura-Knowles        
          Angular quadrature: Lebedev. 
          Tag              B.-S. Rad. Rad. Pts. Rad. Cut. Ang. Pts.
          ---              ---------- --------- --------- ---------
          O                   0.60       70           5.0       590
          H                   0.35       60           6.0       590
          Grid pruning is: on 
          Number of quadrature shells:   130
          Spatial weights used:  Erf1

          Convergence Information
          -----------------------
          Convergence aids based upon iterative change in 
          total energy or number of iterations. 
          Levelshifting, if invoked, occurs when the 
          HOMO/LUMO gap drops below (HL_TOL): 1.00D-02
          DIIS, if invoked, will attempt to extrapolate 
          using up to (NFOCK): 10 stored Fock matrices.

                    Damping(90%)  Levelshifting(0.0)       DIIS
                  --------------- ------------------- ---------------
          dE  on:    start             N/A                start   
          dE off:    2 iters           N/A               99 iters 


      Screening Tolerance Information
      -------------------------------
          Density screening/tol_rho: 1.00D-10
          AO Gaussian exp screening on grid/accAOfunc:  14
          CD Gaussian exp screening on grid/accCDfunc:  20
          XC Gaussian exp screening on grid/accXCfunc:  20
          Schwarz screening/accCoul: 1.00D-08


      Superposition of Atomic Density Guess
      -------------------------------------

 Sum of atomic energies:         -75.75081731

      Non-variational initial energy
      ------------------------------

 Total energy =     -75.919952
 1-e energy   =    -121.737767
 2-e energy   =      36.620616
 HOMO         =      -0.470482
 LUMO         =       0.114886


      Symmetry analysis of molecular orbitals - initial
      -------------------------------------------------

  Numbering of irreducible representations: 

     1 a1          2 a2          3 b1          4 b2      

  Orbital symmetries:

     1 a1          2 a1          3 b1          4 a1          5 b2      
     6 a1          7 b1          8 b1          9 a1         10 b2      
    11 a1         12 b1         13 a1         14 a1         15 a2      

   Time after variat. SCF:      0.0
   Time prior to 1st pass:      0.0

 #quartets = 1.009D+03 #integrals = 5.756D+03 #direct =  0.0% #cached =100.0%


 Integral file          = /home/d3y133/nwchem-dev/nwchem-dev-2014-06-04/QA/scratchdir/h2o-ssb-d.aoints.0
 Record size in doubles =    65536    No. of integs per rec  =    43688
 Max. records in memory =        2    Max. records in file   = 94999998
 No. of bits per label  =        8    No. of bits per value  =       64


File balance: exchanges=     0  moved=     0  time=   0.0


 Grid_pts file          = /home/d3y133/nwchem-dev/nwchem-dev-2014-06-04/QA/scratchdir/h2o-ssb-d.gridpts.0
 Record size in doubles =  12289        No. of grid_pts per rec  =   3070
 Max. records in memory =     15        Max. recs in file   = 506625431


           Memory utilization after 1st SCF pass: 
           Heap Space remaining (MW):       12.79            12790134
          Stack Space remaining (MW):       13.11            13106964

   convergence    iter        energy       DeltaE   RMS-Dens  Diis-err    time
 ---------------- ----- ----------------- --------- --------- ---------  ------
 d=90,ls=0.0,diis     1    -76.8983467817 -8.61D+01  4.70D-02  3.42D-01     0.1
 d=90,ls=0.0,diis     2    -76.9054434856 -7.10D-03  1.93D-02  2.13D-01     0.2
 d= 0,ls=0.0,diis     3    -76.9094429963 -4.00D-03  1.78D-02  1.76D-01     0.2
 d= 0,ls=0.0,diis     4    -76.9391985655 -2.98D-02  3.00D-04  1.20D-04     0.3
 d= 0,ls=0.0,diis     5    -76.9392099810 -1.14D-05  2.97D-05  4.86D-07     0.4
 d= 0,ls=0.0,diis     6    -76.9392100358 -5.48D-08  3.52D-06  7.49D-09     0.4
 d= 0,ls=0.0,diis     7    -76.9392100366 -8.28D-10  2.30D-07  2.75D-11     0.5


         Total DFT energy =      -76.939210036631
      One electron energy =     -123.161056719273
           Coulomb energy =       46.927124898916
    Exchange-Corr. energy =       -9.902446423246
 Nuclear repulsion energy =        9.197198440198

    Dispersion correction =       -0.000030233226

 Numeric. integr. density =       10.000000404054

     Total iterative time =      0.4s



                  Occupations of the irreducible representations
                  ----------------------------------------------

                     irrep           alpha         beta
                     --------     --------     --------
                     a1                3.0          3.0
                     a2                0.0          0.0
                     b1                1.0          1.0
                     b2                1.0          1.0


                       DFT Final Molecular Orbital Analysis
                       ------------------------------------

 Vector    1  Occ=2.000000D+00  E=-1.893083D+01  Symmetry=a1
              MO Center= -2.0D-18, -2.2D-21,  1.2D-01, r^2= 1.5D-02
   Bfn.  Coefficient  Atom+Function         Bfn.  Coefficient  Atom+Function  
  ----- ------------  ---------------      ----- ------------  ---------------
     1      0.995135  1 O  s          

 Vector    2  Occ=2.000000D+00  E=-9.407672D-01  Symmetry=a1
              MO Center=  4.9D-17, -9.0D-20, -9.1D-02, r^2= 4.9D-01
   Bfn.  Coefficient  Atom+Function         Bfn.  Coefficient  Atom+Function  
  ----- ------------  ---------------      ----- ------------  ---------------
     2      0.481300  1 O  s                  6      0.415606  1 O  s          
     1     -0.206609  1 O  s          

 Vector    3  Occ=2.000000D+00  E=-4.791437D-01  Symmetry=b1
              MO Center= -1.9D-16, -1.3D-18, -1.1D-01, r^2= 7.7D-01
   Bfn.  Coefficient  Atom+Function         Bfn.  Coefficient  Atom+Function  
  ----- ------------  ---------------      ----- ------------  ---------------
     3      0.516131  1 O  px                 7      0.268471  1 O  px         
    16     -0.245559  2 H  s                 18      0.245559  3 H  s          

 Vector    4  Occ=2.000000D+00  E=-3.255334D-01  Symmetry=a1
              MO Center=  2.8D-17, -4.3D-17,  1.9D-01, r^2= 6.9D-01
   Bfn.  Coefficient  Atom+Function         Bfn.  Coefficient  Atom+Function  
  ----- ------------  ---------------      ----- ------------  ---------------
     5      0.549835  1 O  pz                 6      0.402671  1 O  s          
     9      0.370684  1 O  pz                 2      0.190867  1 O  s          

 Vector    5  Occ=2.000000D+00  E=-2.378343D-01  Symmetry=b2
              MO Center=  8.9D-17,  9.4D-18,  9.5D-02, r^2= 6.0D-01
   Bfn.  Coefficient  Atom+Function         Bfn.  Coefficient  Atom+Function  
  ----- ------------  ---------------      ----- ------------  ---------------
     4      0.640998  1 O  py                 8      0.509834  1 O  py         

 Vector    6  Occ=0.000000D+00  E= 4.032729D-02  Symmetry=a1
              MO Center=  5.8D-15, -1.6D-17, -6.0D-01, r^2= 2.4D+00
   Bfn.  Coefficient  Atom+Function         Bfn.  Coefficient  Atom+Function  
  ----- ------------  ---------------      ----- ------------  ---------------
     6      1.240359  1 O  s                 17     -0.962716  2 H  s          
    19     -0.962716  3 H  s                  9     -0.474144  1 O  pz         
     5     -0.284801  1 O  pz         

 Vector    7  Occ=0.000000D+00  E= 1.255456D-01  Symmetry=b1
              MO Center= -5.9D-15, -5.0D-19, -5.6D-01, r^2= 2.5D+00
   Bfn.  Coefficient  Atom+Function         Bfn.  Coefficient  Atom+Function  
  ----- ------------  ---------------      ----- ------------  ---------------
    17      1.277487  2 H  s                 19     -1.277487  3 H  s          
     7      0.757589  1 O  px                 3      0.423515  1 O  px         

 Vector    8  Occ=0.000000D+00  E= 7.199651D-01  Symmetry=b1
              MO Center=  2.2D-16,  1.4D-18, -1.5D-01, r^2= 1.6D+00
   Bfn.  Coefficient  Atom+Function         Bfn.  Coefficient  Atom+Function  
  ----- ------------  ---------------      ----- ------------  ---------------
    16      0.833356  2 H  s                 18     -0.833356  3 H  s          
    17     -0.675411  2 H  s                 19      0.675411  3 H  s          
     7      0.406567  1 O  px                12      0.353308  1 O  dxz        
     3      0.193459  1 O  px         

 Vector    9  Occ=0.000000D+00  E= 8.056339D-01  Symmetry=a1
              MO Center= -5.3D-16,  3.6D-18, -3.7D-01, r^2= 1.3D+00
   Bfn.  Coefficient  Atom+Function         Bfn.  Coefficient  Atom+Function  
  ----- ------------  ---------------      ----- ------------  ---------------
    16      0.799094  2 H  s                 18      0.799094  3 H  s          
    17     -0.607820  2 H  s                 19     -0.607820  3 H  s          
     5      0.566016  1 O  pz                 6      0.352625  1 O  s          
     2     -0.279672  1 O  s                 13     -0.182134  1 O  dyy        
     9     -0.174833  1 O  pz         

 Vector   10  Occ=0.000000D+00  E= 8.486538D-01  Symmetry=a1
              MO Center=  3.0D-16, -2.9D-15,  4.8D-01, r^2= 1.2D+00
   Bfn.  Coefficient  Atom+Function         Bfn.  Coefficient  Atom+Function  
  ----- ------------  ---------------      ----- ------------  ---------------
     6      1.336181  1 O  s                  9      0.895030  1 O  pz         
     2     -0.778750  1 O  s                  5     -0.697465  1 O  pz         
    16      0.308042  2 H  s                 18      0.308042  3 H  s          
    13     -0.287565  1 O  dyy               15     -0.273172  1 O  dzz        
    17     -0.253043  2 H  s                 19     -0.253043  3 H  s          

 Vector   11  Occ=0.000000D+00  E= 8.562040D-01  Symmetry=b2
              MO Center= -7.0D-17,  2.7D-15,  1.1D-01, r^2= 1.1D+00
   Bfn.  Coefficient  Atom+Function         Bfn.  Coefficient  Atom+Function  
  ----- ------------  ---------------      ----- ------------  ---------------
     8     -1.036619  1 O  py                 4      0.961842  1 O  py         

 Vector   12  Occ=0.000000D+00  E= 1.030858D+00  Symmetry=b1
              MO Center=  3.1D-15, -6.3D-17,  1.0D-01, r^2= 1.5D+00
   Bfn.  Coefficient  Atom+Function         Bfn.  Coefficient  Atom+Function  
  ----- ------------  ---------------      ----- ------------  ---------------
     7      1.660265  1 O  px                 3     -0.983850  1 O  px         
    17      0.949504  2 H  s                 19     -0.949504  3 H  s          

 Vector   13  Occ=0.000000D+00  E= 1.150345D+00  Symmetry=a1
              MO Center= -3.0D-15,  1.4D-16, -3.7D-01, r^2= 1.4D+00
   Bfn.  Coefficient  Atom+Function         Bfn.  Coefficient  Atom+Function  
  ----- ------------  ---------------      ----- ------------  ---------------
     6      3.626571  1 O  s                  2     -1.465867  1 O  s          
     9     -1.093178  1 O  pz                17     -0.808490  2 H  s          
    19     -0.808490  3 H  s                 10     -0.662980  1 O  dxx        
     5      0.408641  1 O  pz                15     -0.370075  1 O  dzz        
    16     -0.317907  2 H  s                 18     -0.317907  3 H  s          

 Vector   14  Occ=0.000000D+00  E= 1.637742D+00  Symmetry=a1
              MO Center= -1.7D-16, -2.3D-17,  1.7D-01, r^2= 6.2D-01
   Bfn.  Coefficient  Atom+Function         Bfn.  Coefficient  Atom+Function  
  ----- ------------  ---------------      ----- ------------  ---------------
    15      1.012570  1 O  dzz               10     -0.574378  1 O  dxx        
    13     -0.358312  1 O  dyy                6     -0.304131  1 O  s          
     9      0.165621  1 O  pz         

 Vector   15  Occ=0.000000D+00  E= 1.653054D+00  Symmetry=a2
              MO Center= -2.1D-16,  1.9D-16,  1.2D-01, r^2= 6.1D-01
   Bfn.  Coefficient  Atom+Function         Bfn.  Coefficient  Atom+Function  
  ----- ------------  ---------------      ----- ------------  ---------------
    11      1.732051  1 O  dxy        


 center of mass
 --------------
 x =   0.00000000 y =   0.00000000 z =   0.09751021

 moments of inertia (a.u.)
 ------------------
           2.193637940261           0.000000000000           0.000000000000
           0.000000000000           6.315440625261           0.000000000000
           0.000000000000           0.000000000000           4.121802685000

     Multipole analysis of the density
     ---------------------------------

     L   x y z        total         alpha         beta         nuclear
     -   - - -        -----         -----         ----         -------
     0   0 0 0      0.000000     -5.000000     -5.000000     10.000000

     1   1 0 0      0.000000      0.000000      0.000000      0.000000
     1   0 1 0      0.000000      0.000000      0.000000      0.000000
     1   0 0 1     -0.777890     -0.388945     -0.388945      0.000000

     2   2 0 0     -3.152793     -3.621297     -3.621297      4.089800
     2   1 1 0      0.000000      0.000000      0.000000      0.000000
     2   1 0 1      0.000000      0.000000      0.000000      0.000000
     2   0 2 0     -5.316024     -2.658012     -2.658012      0.000000
     2   0 1 1      0.000000      0.000000      0.000000      0.000000
     2   0 0 2     -4.430170     -3.195444     -3.195444      1.960718


 Parallel integral file used       2 records with       0 large values


 Task  times  cpu:        0.5s     wall:        0.6s
 Summary of allocated global arrays
-----------------------------------
  No active global arrays



                         GA Statistics for process    0
                         ------------------------------

       create   destroy   get      put      acc     scatter   gather  read&inc
calls:  193      193     2539      657     1018        0        0      225     
number of processes/call 1.02e+00 1.04e+00 1.04e+00 0.00e+00 0.00e+00
bytes total:             1.40e+06 4.65e+05 6.66e+05 0.00e+00 0.00e+00 1.80e+03
bytes remote:            1.37e+05 5.16e+04 6.16e+04 0.00e+00 0.00e+00 0.00e+00
Max memory consumed for GA by this process: 105032 bytes
MA_summarize_allocated_blocks: starting scan ...
MA_summarize_allocated_blocks: scan completed: 0 heap blocks, 0 stack blocks
MA usage statistics:

	allocation statistics:
					      heap	     stack
					      ----	     -----
	current number of blocks	         0	         0
	maximum number of blocks	        24	        54
	current total bytes		         0	         0
	maximum total bytes		   2536496	  22510520
	maximum total K-bytes		      2537	     22511
	maximum total M-bytes		         3	        23


                                NWChem Input Module
                                -------------------





                                     CITATION
                                     --------
                Please cite the following reference when publishing
                           results obtained with NWChem:

                 M. Valiev, E.J. Bylaska, N. Govind, K. Kowalski,
              T.P. Straatsma, H.J.J. van Dam, D. Wang, J. Nieplocha,
                        E. Apra, T.L. Windus, W.A. de Jong
                 "NWChem: a comprehensive and scalable open-source
                  solution for large scale molecular simulations"
                      Comput. Phys. Commun. 181, 1477 (2010)
                           doi:10.1016/j.cpc.2010.04.018

                              AUTHORS & CONTRIBUTORS
                              ----------------------
          E. Apra, E. J. Bylaska, W. A. de Jong, N. Govind, K. Kowalski,
       T. P. Straatsma, M. Valiev, H. J. J. van Dam, D. Wang, T. L. Windus,
        J. Hammond, J. Autschbach, K. Bhaskaran-Nair, J. Brabec, K. Lopata,
   F. Aquino, S. Hirata, M. T. Hackler, T. Risthaus, M. Malagoli,  A. Marenich,
   A. Otero-de-la-Roza, J. Mullin, P. Nichols, R. Peverati, J. Pittner, Y. Zhao,
          P.-D. Fan, A. Fonari, R. J. Harrison, M.Dupuis, D. Silverstein,
    D. M. A. Smith, J. Nieplocha, V. Tipparaju, M. Krishnan, B. E. Van Kuiken,
        A. Vazquez-Mayagoitia, L. Jensen, M. Swart, Q. Wu, T. Van Voorhis,
     A. A. Auer, M. Nooijen, L. D. Crosby, E. Brown, G. Cisneros, G. I. Fann,
     H. Fruchtl, J. Garza, K. Hirao, R. Kendall, J. A. Nichols, K. Tsemekhman,
      K. Wolinski, J. Anchell, D. Bernholdt, P. Borowski, T. Clark, D. Clerc,
      H. Dachsel, M. Deegan, K. Dyall, D. Elwood, E. Glendening, M. Gutowski,
      A. Hess, J. Jaffe, B. Johnson, J. Ju, R. Kobayashi, R. Kutteh, Z. Lin,
   R. Littlefield, X. Long, B. Meng, T. Nakajima, S. Niu, L. Pollack, M. Rosing,
   K. Glaesemann, G. Sandrone, M. Stave, H. Taylor, G. Thomas, J. H. van Lenthe,
                                A. Wong, Z. Zhang.

 Total times  cpu:        0.5s     wall:        1.6s
