 argument  1 = geom_zmatrix.nw
 


============================== echo of input deck ==============================
start geom_zmatrix
echo
  geometry autosym units angstrom noautoz print
         zmatrix
            O
            H    1 r2
            H    1 r2    2 a3
            O    1 r3    2 a4    3 a4 -1
            H    4 r2    1 a4    2 d1
            H    4 r2    1 a4    3 d1
            variables
            r2 0.962
            r3 2.000000
            a3 105.1
            a4 127.45
            d1 90.000000
         end
        end
basis
* library 6-31G*
end
print low
task dft

GEOMETRY
  ZMATRIX
    C
    O  1 dst1
    C  1 dst2 2 ang1
    H  1 dst3 2 ang2 3 ang3 1
    H  1 dst4 2 ang4 3 ang5 -1
    H  2 dst5 1 ang6 3 tor1
    H  3 dst6 1 ang7 2 tor2
    H  3 dst7 1 ang8 7 ang9 1
    H  3 dst8 1 ang10 7 ang11 -1
    VARIABLES
     ang10  109.47042118
     dst8  1.08998960
     ang5  109.47042118
     ang4  109.46955544
     ang11  109.46955544
     dst6  1.09000000
     ang3  109.47042118
     ang8  109.47042118
     ang2  109.46955544
     dst5  0.98005555
     dst3  1.08998960
     dst1  1.42000000
     ang6  109.47213930
     ang9  109.46955544
     dst2  1.53000204
     ang7  109.47119359
     dst4  1.08998960
     dst7  1.08998960
     ang1  109.47119359
     tor2  180.00000000
     tor1  180.00000000
  END
END


task dft
================================================================================


                                         
                                         
 
 
              Northwest Computational Chemistry Package (NWChem) 6.6
              ------------------------------------------------------
 
 
                    Environmental Molecular Sciences Laboratory
                       Pacific Northwest National Laboratory
                                Richland, WA 99352
 
                              Copyright (c) 1994-2015
                       Pacific Northwest National Laboratory
                            Battelle Memorial Institute
 
             NWChem is an open-source computational chemistry package
                        distributed under the terms of the
                      Educational Community License (ECL) 2.0
             A copy of the license is included with this distribution
                              in the LICENSE.TXT file
 
                                  ACKNOWLEDGMENT
                                  --------------

            This software and its documentation were developed at the
            EMSL at Pacific Northwest National Laboratory, a multiprogram
            national laboratory, operated for the U.S. Department of Energy
            by Battelle under Contract Number DE-AC05-76RL01830. Support
            for this work was provided by the Department of Energy Office
            of Biological and Environmental Research, Office of Basic
            Energy Sciences, and the Office of Advanced Scientific Computing.


           Job information
           ---------------

    hostname        = lagrange
    program         = /home/edo/nwchem/bin/LINUX64/nwchem
    date            = Thu May 12 18:56:22 2016

    compiled        = Thu_May_12_18:52:44_2016
    source          = /home/edo/nwchem
    nwchem branch   = Development
    nwchem revision = 28196
    ga revision     = 10645
    input           = geom_zmatrix.nw
    prefix          = geom_zmatrix.
    data base       = ./geom_zmatrix.db
    status          = startup
    nproc           =        2
    time left       =     -1s



           Memory information
           ------------------

    heap     =   13107198 doubles =    100.0 Mbytes
    stack    =   13107195 doubles =    100.0 Mbytes
    global   =   26214400 doubles =    200.0 Mbytes (distinct from heap & stack)
    total    =   52428793 doubles =    400.0 Mbytes
    verify   = yes
    hardfail = no 


           Directory information
           ---------------------
 
  0 permanent = .
  0 scratch   = .
 
 
 
 
                                NWChem Input Module
                                -------------------
 
 

 Scaling coordinates for geometry "geometry" by  1.889725989
 (inverse scale =  0.529177249)

 D2D symmetry detected
 
 
                             Geometry "geometry" -> ""
                             -------------------------
 
 Output coordinates in angstroms (scale by  1.889725989 to convert to a.u.)
 
  No.       Tag          Charge          X              Y              Z
 ---- ---------------- ---------- -------------- -------------- --------------
    1 O                    8.0000     0.00000000     0.00000000     1.00000000
    2 H                    1.0000    -0.54002924     0.54002924     1.58496225
    3 H                    1.0000     0.54002924    -0.54002924     1.58496225
    4 O                    8.0000     0.00000000     0.00000000    -1.00000000
    5 H                    1.0000     0.54002924     0.54002924    -1.58496225
    6 H                    1.0000    -0.54002924    -0.54002924    -1.58496225
 
      Atomic Mass 
      ----------- 
 
      O                 15.994910
      H                  1.007825
 

 Effective nuclear repulsion energy (a.u.)      42.1435904691

            Nuclear Dipole moment (a.u.) 
            ----------------------------
        X                 Y               Z
 ---------------- ---------------- ----------------
    -0.0000000000     0.0000000000    -0.0000000000
 
      Symmetry information
      --------------------
 
 Group name             D2d       
 Group number             32
 Group order               8
 No. of unique centers     2
 
      Symmetry unique atoms
 
     1    2
 


                                Z-matrix (user)
                                -------- 

 Units are Angstrom for bonds and degrees for angles

  Constrained variables are marked with a plus sign (+).

 
      Type          Name      I     J     K     L     M      Value
      ----------- --------  ----- ----- ----- ----- ----- ----------
    1+Stretch      r2          2     1                       0.96200
    2+Stretch      r2          3     1                       0.96200
    3 Bend         a3          3     1     2               105.10000
    4 Stretch      r3          4     1                       2.00000
    5+Bend         a4          4     1     2               127.45000
    6+Bend(2)      a4          4     1     3    -1         127.45000
    7+Stretch      r2          5     4                       0.96200
    8+Bend         a4          5     4     1               127.45000
    9+Torsion      d1          5     4     1     2          90.00000
   10+Stretch      r2          6     4                       0.96200
   11+Bend         a4          6     4     1               127.45000
   12+Torsion      d1          6     4     1     3          90.00000
 
 ==============================================================================
                                internuclear distances
 ------------------------------------------------------------------------------
       center one      |      center two      | atomic units |  angstroms
 ------------------------------------------------------------------------------
    2 H                |   1 O                |     1.81792  |     0.96200
    3 H                |   1 O                |     1.81792  |     0.96200
    5 H                |   4 O                |     1.81792  |     0.96200
    6 H                |   4 O                |     1.81792  |     0.96200
 ------------------------------------------------------------------------------
                         number of included internuclear distances:          4
 ==============================================================================



 ==============================================================================
                                 internuclear angles
 ------------------------------------------------------------------------------
        center 1       |       center 2       |       center 3       |  degrees
 ------------------------------------------------------------------------------
    2 H                |   1 O                |   3 H                |   105.10
    5 H                |   4 O                |   6 H                |   105.10
 ------------------------------------------------------------------------------
                            number of included internuclear angles:          2
 ==============================================================================





 Summary of "ao basis" -> "" (cartesian)
 ------------------------------------------------------------------------------
       Tag                 Description            Shells   Functions and Types
 ---------------- ------------------------------  ------  ---------------------
 *                           6-31G*                   on all atoms 


 
                                 NWChem DFT Module
                                 -----------------
 
 
                      Basis "ao basis" -> "ao basis" (cartesian)
                      -----
  O (Oxygen)
  ----------
            Exponent  Coefficients 
       -------------- ---------------------------------------------------------
  1 S  5.48467170E+03  0.001831
  1 S  8.25234950E+02  0.013950
  1 S  1.88046960E+02  0.068445
  1 S  5.29645000E+01  0.232714
  1 S  1.68975700E+01  0.470193
  1 S  5.79963530E+00  0.358521
 
  2 S  1.55396160E+01 -0.110778
  2 S  3.59993360E+00 -0.148026
  2 S  1.01376180E+00  1.130767
 
  3 P  1.55396160E+01  0.070874
  3 P  3.59993360E+00  0.339753
  3 P  1.01376180E+00  0.727159
 
  4 S  2.70005800E-01  1.000000
 
  5 P  2.70005800E-01  1.000000
 
  6 D  8.00000000E-01  1.000000
 
  H (Hydrogen)
  ------------
            Exponent  Coefficients 
       -------------- ---------------------------------------------------------
  1 S  1.87311370E+01  0.033495
  1 S  2.82539370E+00  0.234727
  1 S  6.40121700E-01  0.813757
 
  2 S  1.61277800E-01  1.000000
 


 Summary of "ao basis" -> "ao basis" (cartesian)
 ------------------------------------------------------------------------------
       Tag                 Description            Shells   Functions and Types
 ---------------- ------------------------------  ------  ---------------------
 O                           6-31G*                  6       15   3s2p1d
 H                           6-31G*                  2        2   2s


 
  Caching 1-el integrals 
   Time after variat. SCF:      0.1
   Time prior to 1st pass:      0.1
  Resetting Diis


         Total DFT energy =     -151.654032042993
      One electron energy =     -294.181087751598
           Coulomb energy =      117.948703114610
    Exchange-Corr. energy =      -17.565237875151
 Nuclear repulsion energy =       42.143590469147

 Numeric. integr. density =       20.000002065267

     Total iterative time =      0.3s


 
                  Occupations of the irreducible representations
                  ----------------------------------------------
 
                     irrep           alpha         beta
                     --------     --------     --------
                     a1                3.0          3.0
                     a2                0.0          0.0
                     b1                0.0          0.0
                     b2                3.0          3.0
                     e                 4.0          4.0
 
 
                       DFT Final Molecular Orbital Analysis
                       ------------------------------------
 
 Vector    1  Occ=2.000000D+00  E=-1.856686D+01  Symmetry=b2
              MO Center=  1.4D-21, -2.1D-21, -1.0D-16, r^2= 1.0D+00
   Bfn.  Coefficient  Atom+Function         Bfn.  Coefficient  Atom+Function  
  ----- ------------  ---------------      ----- ------------  ---------------
     1      0.700298  1 O  s                 20     -0.700298  4 O  s          
 
 Vector    2  Occ=2.000000D+00  E=-1.856682D+01  Symmetry=a1
              MO Center= -3.3D-18, -9.3D-18,  1.3D-17, r^2= 1.0D+00
   Bfn.  Coefficient  Atom+Function         Bfn.  Coefficient  Atom+Function  
  ----- ------------  ---------------      ----- ------------  ---------------
     1      0.700466  1 O  s                 20      0.700466  4 O  s          
 
 Vector    3  Occ=2.000000D+00  E=-8.843380D-01  Symmetry=a1
              MO Center=  1.4D-16, -6.1D-16, -1.8D-14, r^2= 1.9D+00
   Bfn.  Coefficient  Atom+Function         Bfn.  Coefficient  Atom+Function  
  ----- ------------  ---------------      ----- ------------  ---------------
     2      0.322233  1 O  s                 21      0.322233  4 O  s          
     6      0.308740  1 O  s                 25      0.308740  4 O  s          
     1     -0.148222  1 O  s                 20     -0.148222  4 O  s          
    16      0.094968  2 H  s                 18      0.094968  3 H  s          
    35      0.094968  5 H  s                 37      0.094968  6 H  s          
 
 Vector    4  Occ=2.000000D+00  E=-8.634081D-01  Symmetry=b2
              MO Center= -7.7D-18, -1.1D-17,  1.8D-14, r^2= 2.1D+00
   Bfn.  Coefficient  Atom+Function         Bfn.  Coefficient  Atom+Function  
  ----- ------------  ---------------      ----- ------------  ---------------
     2      0.323404  1 O  s                 21     -0.323404  4 O  s          
     6      0.303206  1 O  s                 25     -0.303206  4 O  s          
     1     -0.146919  1 O  s                 20      0.146919  4 O  s          
     5      0.113597  1 O  pz                24      0.113597  4 O  pz         
    16      0.101633  2 H  s                 18      0.101633  3 H  s          
 
 Vector    5  Occ=2.000000D+00  E=-4.395191D-01  Symmetry=e
              MO Center=  5.1D-16, -7.5D-16,  9.8D-01, r^2= 1.3D+00
   Bfn.  Coefficient  Atom+Function         Bfn.  Coefficient  Atom+Function  
  ----- ------------  ---------------      ----- ------------  ---------------
     3      0.354131  1 O  px                 4     -0.343833  1 O  py         
    16     -0.219779  2 H  s                 18      0.219779  3 H  s          
     7      0.182119  1 O  px                 8     -0.174773  1 O  py         
    17     -0.142524  2 H  s                 19      0.142524  3 H  s          
    22      0.129316  4 O  px                23      0.097648  4 O  py         
 
 Vector    6  Occ=2.000000D+00  E=-4.395191D-01  Symmetry=e
              MO Center=  3.6D-16,  3.1D-16, -9.8D-01, r^2= 1.3D+00
   Bfn.  Coefficient  Atom+Function         Bfn.  Coefficient  Atom+Function  
  ----- ------------  ---------------      ----- ------------  ---------------
    23      0.354131  4 O  py                22      0.343833  4 O  px         
    35      0.219779  5 H  s                 37     -0.219779  6 H  s          
    27      0.182119  4 O  py                26      0.174773  4 O  px         
    36      0.142524  5 H  s                 38     -0.142524  6 H  s          
     4      0.129316  1 O  py                 3     -0.097648  1 O  px         
 
 Vector    7  Occ=2.000000D+00  E=-3.499270D-01  Symmetry=a1
              MO Center= -2.4D-15, -1.4D-15, -2.2D-15, r^2= 1.4D+00
   Bfn.  Coefficient  Atom+Function         Bfn.  Coefficient  Atom+Function  
  ----- ------------  ---------------      ----- ------------  ---------------
     5      0.382057  1 O  pz                24     -0.382057  4 O  pz         
     9      0.244433  1 O  pz                28     -0.244433  4 O  pz         
     6     -0.215464  1 O  s                 25     -0.215464  4 O  s          
    16      0.094274  2 H  s                 18      0.094274  3 H  s          
    35      0.094274  5 H  s                 37      0.094274  6 H  s          
 
 Vector    8  Occ=2.000000D+00  E=-2.031626D-01  Symmetry=e
              MO Center=  2.8D-16, -3.2D-16, -1.0D+00, r^2= 6.5D-01
   Bfn.  Coefficient  Atom+Function         Bfn.  Coefficient  Atom+Function  
  ----- ------------  ---------------      ----- ------------  ---------------
    22      0.449860  4 O  px                23     -0.447057  4 O  py         
    26      0.363378  4 O  px                27     -0.362836  4 O  py         
     3     -0.050297  1 O  px                31     -0.046124  4 O  dxz        
    33      0.045143  4 O  dyz               16      0.027136  2 H  s          
    18     -0.027136  3 H  s                  7     -0.026434  1 O  px         
 
 Vector    9  Occ=2.000000D+00  E=-2.031626D-01  Symmetry=e
              MO Center= -1.2D-15, -1.7D-15,  1.0D+00, r^2= 6.5D-01
   Bfn.  Coefficient  Atom+Function         Bfn.  Coefficient  Atom+Function  
  ----- ------------  ---------------      ----- ------------  ---------------
     4      0.449860  1 O  py                 3      0.447057  1 O  px         
     7      0.362836  1 O  px                 8      0.363378  1 O  py         
    23     -0.050297  4 O  py                14      0.046124  1 O  dyz        
    12      0.045143  1 O  dxz               35     -0.027136  5 H  s          
    37      0.027136  6 H  s                 27     -0.026434  4 O  py         
 
 Vector   10  Occ=2.000000D+00  E=-1.928590D-01  Symmetry=b2
              MO Center=  2.9D-15,  3.8D-15,  2.0D-15, r^2= 1.8D+00
   Bfn.  Coefficient  Atom+Function         Bfn.  Coefficient  Atom+Function  
  ----- ------------  ---------------      ----- ------------  ---------------
     6      0.453967  1 O  s                 25     -0.453967  4 O  s          
     5     -0.394698  1 O  pz                24     -0.394698  4 O  pz         
     9     -0.281017  1 O  pz                28     -0.281017  4 O  pz         
     2      0.177853  1 O  s                 21     -0.177853  4 O  s          
    17     -0.148506  2 H  s                 19     -0.148506  3 H  s          
 
 Vector   11  Occ=0.000000D+00  E= 5.108432D-02  Symmetry=a1
              MO Center= -3.6D-16,  1.5D-16,  4.2D-16, r^2= 5.4D+00
   Bfn.  Coefficient  Atom+Function         Bfn.  Coefficient  Atom+Function  
  ----- ------------  ---------------      ----- ------------  ---------------
     6      0.900621  1 O  s                 25      0.900621  4 O  s          
    17     -0.672486  2 H  s                 19     -0.672486  3 H  s          
    36     -0.672486  5 H  s                 38     -0.672486  6 H  s          
     9      0.278821  1 O  pz                28     -0.278821  4 O  pz         
     5      0.177905  1 O  pz                24     -0.177905  4 O  pz         
 
 Vector   12  Occ=0.000000D+00  E= 8.335714D-02  Symmetry=b2
              MO Center=  1.9D-15,  1.4D-15, -1.8D-15, r^2= 5.2D+00
   Bfn.  Coefficient  Atom+Function         Bfn.  Coefficient  Atom+Function  
  ----- ------------  ---------------      ----- ------------  ---------------
     6      0.813279  1 O  s                 25     -0.813279  4 O  s          
    17     -0.685003  2 H  s                 19     -0.685003  3 H  s          
    36      0.685003  5 H  s                 38      0.685003  6 H  s          
     9      0.397649  1 O  pz                28      0.397649  4 O  pz         
     5      0.289514  1 O  pz                24      0.289514  4 O  pz         
 
 Vector   13  Occ=0.000000D+00  E= 1.447397D-01  Symmetry=e
              MO Center=  4.7D-16, -8.7D-16,  3.7D-01, r^2= 5.1D+00
   Bfn.  Coefficient  Atom+Function         Bfn.  Coefficient  Atom+Function  
  ----- ------------  ---------------      ----- ------------  ---------------
    17      0.989606  2 H  s                 19     -0.989606  3 H  s          
    36     -0.788505  5 H  s                 38      0.788505  6 H  s          
     8     -0.417022  1 O  py                 7      0.405707  1 O  px         
    27      0.334870  4 O  py                26      0.320670  4 O  px         
     4     -0.242657  1 O  py                 3      0.235537  1 O  px         
 
 Vector   14  Occ=0.000000D+00  E= 1.447397D-01  Symmetry=e
              MO Center= -2.4D-15,  2.6D-16, -3.7D-01, r^2= 5.1D+00
   Bfn.  Coefficient  Atom+Function         Bfn.  Coefficient  Atom+Function  
  ----- ------------  ---------------      ----- ------------  ---------------
    36      0.989606  5 H  s                 38     -0.989606  6 H  s          
    17      0.788505  2 H  s                 19     -0.788505  3 H  s          
    26     -0.417022  4 O  px                27     -0.405707  4 O  py         
     7      0.334870  1 O  px                 8     -0.320670  1 O  py         
    22     -0.242657  4 O  px                23     -0.235537  4 O  py         
 
 Vector   15  Occ=0.000000D+00  E= 7.254776D-01  Symmetry=e
              MO Center= -2.7D-15, -5.3D-16,  2.1D-02, r^2= 2.6D+00
   Bfn.  Coefficient  Atom+Function         Bfn.  Coefficient  Atom+Function  
  ----- ------------  ---------------      ----- ------------  ---------------
    16      0.489571  2 H  s                 18     -0.489571  3 H  s          
    35     -0.471289  5 H  s                 37      0.471289  6 H  s          
     7      0.464590  1 O  px                26      0.464901  4 O  px         
    17     -0.329080  2 H  s                 19      0.329080  3 H  s          
    36      0.316791  5 H  s                 38     -0.316791  6 H  s          
 
 Vector   16  Occ=0.000000D+00  E= 7.254776D-01  Symmetry=e
              MO Center=  2.4D-16, -3.0D-15, -2.1D-02, r^2= 2.6D+00
   Bfn.  Coefficient  Atom+Function         Bfn.  Coefficient  Atom+Function  
  ----- ------------  ---------------      ----- ------------  ---------------
    35     -0.489571  5 H  s                 37      0.489571  6 H  s          
    16     -0.471289  2 H  s                 18      0.471289  3 H  s          
     8      0.464901  1 O  py                27      0.464590  4 O  py         
    36      0.329080  5 H  s                 38     -0.329080  6 H  s          
    17      0.316791  2 H  s                 19     -0.316791  3 H  s          
 
 Vector   17  Occ=0.000000D+00  E= 8.333426D-01  Symmetry=a1
              MO Center=  2.1D-15,  3.0D-15, -1.5D-16, r^2= 3.3D+00
   Bfn.  Coefficient  Atom+Function         Bfn.  Coefficient  Atom+Function  
  ----- ------------  ---------------      ----- ------------  ---------------
    16      0.550272  2 H  s                 18      0.550272  3 H  s          
    35      0.550272  5 H  s                 37      0.550272  6 H  s          
     5     -0.437407  1 O  pz                24      0.437407  4 O  pz         
    17     -0.391121  2 H  s                 19     -0.391121  3 H  s          
    36     -0.391121  5 H  s                 38     -0.391121  6 H  s          
 
 Vector   18  Occ=0.000000D+00  E= 8.594648D-01  Symmetry=b2
              MO Center= -9.6D-17, -1.1D-17,  5.4D-16, r^2= 3.9D+00
   Bfn.  Coefficient  Atom+Function         Bfn.  Coefficient  Atom+Function  
  ----- ------------  ---------------      ----- ------------  ---------------
    16      0.593064  2 H  s                 18      0.593064  3 H  s          
    35     -0.593064  5 H  s                 37     -0.593064  6 H  s          
     6      0.499264  1 O  s                 25     -0.499264  4 O  s          
    17     -0.483241  2 H  s                 19     -0.483241  3 H  s          
    36      0.483241  5 H  s                 38      0.483241  6 H  s          
 
 Vector   19  Occ=0.000000D+00  E= 8.930457D-01  Symmetry=e
              MO Center= -1.7D-16, -1.0D-15, -5.3D-02, r^2= 2.9D+00
   Bfn.  Coefficient  Atom+Function         Bfn.  Coefficient  Atom+Function  
  ----- ------------  ---------------      ----- ------------  ---------------
    36      0.630326  5 H  s                 38     -0.630326  6 H  s          
     4      0.608599  1 O  py                 8     -0.604963  1 O  py         
    23      0.538523  4 O  py                27     -0.473737  4 O  py         
    35     -0.418400  5 H  s                 37      0.418400  6 H  s          
     7     -0.379864  1 O  px                17      0.336733  2 H  s          
 
 Vector   20  Occ=0.000000D+00  E= 8.930457D-01  Symmetry=e
              MO Center=  6.3D-15, -1.1D-15,  5.3D-02, r^2= 2.9D+00
   Bfn.  Coefficient  Atom+Function         Bfn.  Coefficient  Atom+Function  
  ----- ------------  ---------------      ----- ------------  ---------------
    17      0.630326  2 H  s                 19     -0.630326  3 H  s          
    22     -0.608599  4 O  px                26      0.604963  4 O  px         
     3     -0.538523  1 O  px                 7      0.473737  1 O  px         
    16     -0.418400  2 H  s                 18      0.418400  3 H  s          
    27     -0.379864  4 O  py                36     -0.336733  5 H  s          
 
 Vector   21  Occ=0.000000D+00  E= 9.419130D-01  Symmetry=a1
              MO Center= -4.9D-15,  3.4D-15,  6.9D-17, r^2= 1.8D+00
   Bfn.  Coefficient  Atom+Function         Bfn.  Coefficient  Atom+Function  
  ----- ------------  ---------------      ----- ------------  ---------------
     6      1.106493  1 O  s                 25      1.106493  4 O  s          
     2     -0.698000  1 O  s                 21     -0.698000  4 O  s          
     5      0.446024  1 O  pz                24     -0.446024  4 O  pz         
     9     -0.382819  1 O  pz                28      0.382819  4 O  pz         
    17     -0.290074  2 H  s                 19     -0.290074  3 H  s          
 
 Vector   22  Occ=0.000000D+00  E= 1.057653D+00  Symmetry=e
              MO Center= -1.2D-16,  1.2D-18,  5.0D-01, r^2= 2.2D+00
   Bfn.  Coefficient  Atom+Function         Bfn.  Coefficient  Atom+Function  
  ----- ------------  ---------------      ----- ------------  ---------------
     7      1.170501  1 O  px                 8     -1.060756  1 O  py         
    17      0.771451  2 H  s                 19     -0.771451  3 H  s          
     3     -0.642965  1 O  px                 4      0.562066  1 O  py         
    26     -0.532345  4 O  px                22      0.359302  4 O  px         
    27      0.196273  4 O  py                33     -0.196207  4 O  dyz        
 
 Vector   23  Occ=0.000000D+00  E= 1.057653D+00  Symmetry=e
              MO Center=  8.1D-15,  1.1D-14, -5.0D-01, r^2= 2.2D+00
   Bfn.  Coefficient  Atom+Function         Bfn.  Coefficient  Atom+Function  
  ----- ------------  ---------------      ----- ------------  ---------------
    27      1.170501  4 O  py                26      1.060756  4 O  px         
    36     -0.771451  5 H  s                 38      0.771451  6 H  s          
    23     -0.642965  4 O  py                22     -0.562066  4 O  px         
     8     -0.532345  1 O  py                 4      0.359302  1 O  py         
     7     -0.196273  1 O  px                12     -0.196207  1 O  dxz        
 
 Vector   24  Occ=0.000000D+00  E= 1.058988D+00  Symmetry=b2
              MO Center= -8.1D-15, -1.1D-14,  1.1D-14, r^2= 3.1D+00
   Bfn.  Coefficient  Atom+Function         Bfn.  Coefficient  Atom+Function  
  ----- ------------  ---------------      ----- ------------  ---------------
     9      1.350774  1 O  pz                28      1.350774  4 O  pz         
     6      0.709860  1 O  s                 25     -0.709860  4 O  s          
     5     -0.591506  1 O  pz                24     -0.591506  4 O  pz         
    17     -0.380028  2 H  s                 19     -0.380028  3 H  s          
    36      0.380028  5 H  s                 38      0.380028  6 H  s          
 
 Vector   25  Occ=0.000000D+00  E= 1.162858D+00  Symmetry=a1
              MO Center= -1.8D-15, -9.9D-16, -1.3D-14, r^2= 3.7D+00
   Bfn.  Coefficient  Atom+Function         Bfn.  Coefficient  Atom+Function  
  ----- ------------  ---------------      ----- ------------  ---------------
     6      2.441218  1 O  s                 25      2.441218  4 O  s          
     2     -0.945468  1 O  s                 21     -0.945468  4 O  s          
     9      0.850075  1 O  pz                28     -0.850075  4 O  pz         
    17     -0.545272  2 H  s                 19     -0.545272  3 H  s          
    36     -0.545272  5 H  s                 38     -0.545272  6 H  s          
 
 Vector   26  Occ=0.000000D+00  E= 1.218020D+00  Symmetry=b2
              MO Center= -6.3D-16, -3.9D-16, -5.5D-16, r^2= 2.5D+00
   Bfn.  Coefficient  Atom+Function         Bfn.  Coefficient  Atom+Function  
  ----- ------------  ---------------      ----- ------------  ---------------
     6      2.665740  1 O  s                 25     -2.665740  4 O  s          
     2     -1.163861  1 O  s                 21      1.163861  4 O  s          
    15     -0.500300  1 O  dzz               34      0.500300  4 O  dzz        
    17     -0.401088  2 H  s                 19     -0.401088  3 H  s          
    36      0.401088  5 H  s                 38      0.401088  6 H  s          
 
 Vector   27  Occ=0.000000D+00  E= 1.515460D+00  Symmetry=a1
              MO Center= -1.2D-16, -1.9D-16,  8.4D-16, r^2= 1.6D+00
   Bfn.  Coefficient  Atom+Function         Bfn.  Coefficient  Atom+Function  
  ----- ------------  ---------------      ----- ------------  ---------------
    15      0.777455  1 O  dzz               34      0.777455  4 O  dzz        
     6     -0.563608  1 O  s                 25     -0.563608  4 O  s          
    10     -0.230614  1 O  dxx               13     -0.230614  1 O  dyy        
    29     -0.230614  4 O  dxx               32     -0.230614  4 O  dyy        
     2      0.152378  1 O  s                 21      0.152378  4 O  s          
 
 Vector   28  Occ=0.000000D+00  E= 1.689784D+00  Symmetry=b1
              MO Center= -1.9D-16,  3.6D-16, -9.2D-15, r^2= 1.6D+00
   Bfn.  Coefficient  Atom+Function         Bfn.  Coefficient  Atom+Function  
  ----- ------------  ---------------      ----- ------------  ---------------
    10      0.611364  1 O  dxx               13     -0.611364  1 O  dyy        
    29      0.611364  4 O  dxx               32     -0.611364  4 O  dyy        
 
 Vector   29  Occ=0.000000D+00  E= 1.714960D+00  Symmetry=a2
              MO Center=  1.6D-16, -1.8D-16,  9.0D-15, r^2= 1.6D+00
   Bfn.  Coefficient  Atom+Function         Bfn.  Coefficient  Atom+Function  
  ----- ------------  ---------------      ----- ------------  ---------------
    10      0.613385  1 O  dxx               13     -0.613385  1 O  dyy        
    29     -0.613385  4 O  dxx               32      0.613385  4 O  dyy        
 
 Vector   30  Occ=0.000000D+00  E= 1.793576D+00  Symmetry=e
              MO Center= -5.6D-17, -4.1D-17,  8.1D-01, r^2= 9.3D-01
   Bfn.  Coefficient  Atom+Function         Bfn.  Coefficient  Atom+Function  
  ----- ------------  ---------------      ----- ------------  ---------------
    12      1.193851  1 O  dxz               14      1.194642  1 O  dyz        
    27      0.348371  4 O  py                26      0.315914  4 O  px         
    33      0.220949  4 O  dyz               31     -0.216631  4 O  dxz        
     8     -0.149432  1 O  py                36     -0.147602  5 H  s          
    38      0.147602  6 H  s                 35     -0.127482  5 H  s          
 
 Vector   31  Occ=0.000000D+00  E= 1.793576D+00  Symmetry=e
              MO Center=  9.0D-17, -9.7D-17, -8.1D-01, r^2= 9.3D-01
   Bfn.  Coefficient  Atom+Function         Bfn.  Coefficient  Atom+Function  
  ----- ------------  ---------------      ----- ------------  ---------------
    31      1.194642  4 O  dxz               33     -1.193851  4 O  dyz        
     7     -0.348371  1 O  px                 8      0.315914  1 O  py         
    12      0.220949  1 O  dxz               14      0.216631  1 O  dyz        
    26      0.149432  4 O  px                17     -0.147602  2 H  s          
    19      0.147602  3 H  s                 16     -0.127482  2 H  s          
 
 Vector   32  Occ=0.000000D+00  E= 2.228267D+00  Symmetry=b2
              MO Center=  6.8D-17,  1.7D-16,  4.1D-14, r^2= 2.1D+00
   Bfn.  Coefficient  Atom+Function         Bfn.  Coefficient  Atom+Function  
  ----- ------------  ---------------      ----- ------------  ---------------
    11      1.325986  1 O  dxy               30      1.325986  4 O  dxy        
     6     -1.064339  1 O  s                 25      1.064339  4 O  s          
    16      0.578107  2 H  s                 18      0.578107  3 H  s          
    35     -0.578107  5 H  s                 37     -0.578107  6 H  s          
     9     -0.530256  1 O  pz                28     -0.530256  4 O  pz         
 
 Vector   33  Occ=0.000000D+00  E= 2.273036D+00  Symmetry=a1
              MO Center= -6.2D-17,  7.8D-17, -4.1D-14, r^2= 2.1D+00
   Bfn.  Coefficient  Atom+Function         Bfn.  Coefficient  Atom+Function  
  ----- ------------  ---------------      ----- ------------  ---------------
    11      1.342306  1 O  dxy               30     -1.342306  4 O  dxy        
     6     -1.156810  1 O  s                 25     -1.156810  4 O  s          
    16      0.592386  2 H  s                 18      0.592386  3 H  s          
    35      0.592386  5 H  s                 37      0.592386  6 H  s          
     9     -0.544554  1 O  pz                28      0.544554  4 O  pz         
 
 Vector   34  Occ=0.000000D+00  E= 2.414884D+00  Symmetry=b2
              MO Center=  2.4D-16,  2.4D-17,  1.9D-16, r^2= 1.5D+00
   Bfn.  Coefficient  Atom+Function         Bfn.  Coefficient  Atom+Function  
  ----- ------------  ---------------      ----- ------------  ---------------
     9      0.941947  1 O  pz                28      0.941947  4 O  pz         
    15     -0.690120  1 O  dzz               34      0.690120  4 O  dzz        
     6     -0.676225  1 O  s                 25      0.676225  4 O  s          
    10      0.448664  1 O  dxx               13      0.448664  1 O  dyy        
    29     -0.448664  4 O  dxx               32     -0.448664  4 O  dyy        
 
 Vector   35  Occ=0.000000D+00  E= 2.545203D+00  Symmetry=e
              MO Center=  1.3D-16, -2.8D-17,  9.8D-01, r^2= 1.0D+00
   Bfn.  Coefficient  Atom+Function         Bfn.  Coefficient  Atom+Function  
  ----- ------------  ---------------      ----- ------------  ---------------
    12      1.533212  1 O  dxz               14     -1.536402  1 O  dyz        
    16      0.931221  2 H  s                 18     -0.931221  3 H  s          
     8     -0.623007  1 O  py                 7      0.613381  1 O  px         
    33     -0.310858  4 O  dyz               31     -0.294688  4 O  dxz        
    35     -0.183703  5 H  s                 37      0.183703  6 H  s          
 
 Vector   36  Occ=0.000000D+00  E= 2.545203D+00  Symmetry=e
              MO Center= -1.6D-16, -2.2D-16, -9.8D-01, r^2= 1.0D+00
   Bfn.  Coefficient  Atom+Function         Bfn.  Coefficient  Atom+Function  
  ----- ------------  ---------------      ----- ------------  ---------------
    31      1.536402  4 O  dxz               33      1.533212  4 O  dyz        
    35      0.931221  5 H  s                 37     -0.931221  6 H  s          
    26     -0.623007  4 O  px                27     -0.613381  4 O  py         
    12      0.310858  1 O  dxz               14     -0.294688  1 O  dyz        
    16      0.183703  2 H  s                 18     -0.183703  3 H  s          
 
 Vector   37  Occ=0.000000D+00  E= 3.527501D+00  Symmetry=a1
              MO Center=  1.9D-17,  9.4D-17,  2.3D-15, r^2= 2.1D+00
   Bfn.  Coefficient  Atom+Function         Bfn.  Coefficient  Atom+Function  
  ----- ------------  ---------------      ----- ------------  ---------------
     6      2.578683  1 O  s                 25      2.578683  4 O  s          
    10     -1.127644  1 O  dxx               13     -1.127644  1 O  dyy        
    29     -1.127644  4 O  dxx               32     -1.127644  4 O  dyy        
    15     -1.087021  1 O  dzz               34     -1.087021  4 O  dzz        
    17     -0.408216  2 H  s                 19     -0.408216  3 H  s          
 
 Vector   38  Occ=0.000000D+00  E= 3.647243D+00  Symmetry=b2
              MO Center=  9.5D-17,  6.8D-18, -1.4D-15, r^2= 2.1D+00
   Bfn.  Coefficient  Atom+Function         Bfn.  Coefficient  Atom+Function  
  ----- ------------  ---------------      ----- ------------  ---------------
     6      3.073326  1 O  s                 25     -3.073326  4 O  s          
    10     -1.238145  1 O  dxx               13     -1.238145  1 O  dyy        
    29      1.238145  4 O  dxx               32      1.238145  4 O  dyy        
    15     -1.043910  1 O  dzz               34      1.043910  4 O  dzz        
    17     -0.376387  2 H  s                 19     -0.376387  3 H  s          
 
 
 
                                NWChem Input Module
                                -------------------
 
 

 Scaling coordinates for geometry "geometry" by  1.889725989
 (inverse scale =  0.529177249)

 
 
                         Geometry "geometry" -> "        "
                         ---------------------------------
 
 Output coordinates in angstroms (scale by  1.889725989 to convert to a.u.)
 
  No.       Tag          Charge          X              Y              Z
 ---- ---------------- ---------- -------------- -------------- --------------
    1 C                    6.0000    -0.54068938    -0.06592616     0.00000000
    2 O                    8.0000     0.34483642    -1.17599105     0.00000000
    3 C                    6.0000     0.26892361     1.23231613     0.00000000
    4 H                    1.0000    -1.16890266    -0.10233220     0.89000000
    5 H                    1.0000    -1.16890266    -0.10233220    -0.89000000
    6 H                    1.0000    -0.17375420    -2.00759953     0.00000000
    7 H                    1.0000    -0.41081098     2.08440819     0.00000000
    8 H                    1.0000     0.89713689     1.26872217    -0.89000000
    9 H                    1.0000     0.89713689     1.26872217     0.89000000
 
      Atomic Mass 
      ----------- 
 
      C                 12.000000
      O                 15.994910
      H                  1.007825
 

 Effective nuclear repulsion energy (a.u.)      81.5448752882

            Nuclear Dipole moment (a.u.) 
            ----------------------------
        X                 Y               Z
 ---------------- ---------------- ----------------
    -0.0000000000     0.0000000000     0.0000000000
 
      Symmetry information
      --------------------
 
 Group name             Cs        
 Group number              2
 Group order               2
 No. of unique centers     7
 
      Symmetry unique atoms
 
     1    2    3    4    6    7    8
 


                                Z-matrix (user)
                                -------- 

 Units are Angstrom for bonds and degrees for angles
 
      Type          Name      I     J     K     L     M      Value
      ----------- --------  ----- ----- ----- ----- ----- ----------
    1 Stretch      dst1        2     1                       1.42000
    2 Stretch      dst2        3     1                       1.53000
    3 Bend         ang1        3     1     2               109.47119
    4 Stretch      dst3        4     1                       1.08999
    5 Bend         ang2        4     1     2               109.46956
    6 Bend(2)      ang3        4     1     3     1         109.47042
    7 Stretch      dst4        5     1                       1.08999
    8 Bend         ang4        5     1     2               109.46956
    9 Bend(2)      ang5        5     1     3    -1         109.47042
   10 Stretch      dst5        6     2                       0.98006
   11 Bend         ang6        6     2     1               109.47214
   12 Torsion      tor1        6     2     1     3         180.00000
   13 Stretch      dst6        7     3                       1.09000
   14 Bend         ang7        7     3     1               109.47119
   15 Torsion      tor2        7     3     1     2         180.00000
   16 Stretch      dst7        8     3                       1.08999
   17 Bend         ang8        8     3     1               109.47042
   18 Bend(2)      ang9        8     3     7     1         109.46956
   19 Stretch      dst8        9     3                       1.08999
   20 Bend         ang10       9     3     1               109.47042
   21 Bend(2)      ang11       9     3     7    -1         109.46956
 
 
            XYZ format geometry
            -------------------
     9
 geometry
 C                    -0.54068938    -0.06592616     0.00000000
 O                     0.34483642    -1.17599105     0.00000000
 C                     0.26892361     1.23231613     0.00000000
 H                    -1.16890266    -0.10233220     0.89000000
 H                    -1.16890266    -0.10233220    -0.89000000
 H                    -0.17375420    -2.00759953     0.00000000
 H                    -0.41081098     2.08440819     0.00000000
 H                     0.89713689     1.26872217    -0.89000000
 H                     0.89713689     1.26872217     0.89000000
 
 ==============================================================================
                                internuclear distances
 ------------------------------------------------------------------------------
       center one      |      center two      | atomic units |  angstroms
 ------------------------------------------------------------------------------
    2 O                |   1 C                |     2.68341  |     1.42000
    3 C                |   1 C                |     2.89128  |     1.53000
    4 H                |   1 C                |     2.05978  |     1.08999
    5 H                |   1 C                |     2.05978  |     1.08999
    6 H                |   2 O                |     1.85204  |     0.98006
    7 H                |   3 C                |     2.05980  |     1.09000
    8 H                |   3 C                |     2.05978  |     1.08999
    9 H                |   3 C                |     2.05978  |     1.08999
 ------------------------------------------------------------------------------
                         number of included internuclear distances:          8
 ==============================================================================



 ==============================================================================
                                 internuclear angles
 ------------------------------------------------------------------------------
        center 1       |       center 2       |       center 3       |  degrees
 ------------------------------------------------------------------------------
    2 O                |   1 C                |   3 C                |   109.47
    2 O                |   1 C                |   4 H                |   109.47
    2 O                |   1 C                |   5 H                |   109.47
    3 C                |   1 C                |   4 H                |   109.47
    3 C                |   1 C                |   5 H                |   109.47
    4 H                |   1 C                |   5 H                |   109.48
    1 C                |   2 O                |   6 H                |   109.47
    1 C                |   3 C                |   7 H                |   109.47
    1 C                |   3 C                |   8 H                |   109.47
    1 C                |   3 C                |   9 H                |   109.47
    7 H                |   3 C                |   8 H                |   109.47
    7 H                |   3 C                |   9 H                |   109.47
    8 H                |   3 C                |   9 H                |   109.48
 ------------------------------------------------------------------------------
                            number of included internuclear angles:         13
 ==============================================================================



 
                                 NWChem DFT Module
                                 -----------------
 
 
 
  Caching 1-el integrals 

 !! nbf/nmo/basis-name mismatch 
           nbf=  57 nbf_file=  38
           nmo=  57 nmo_file=  38
           basis="ao basis" basis_file="ao basis"

  Either an incorrect movecs file was 
 specified, or linear dependence has changed,
  or the basis name was changed. 
 
  Load of old vectors failed.   Forcing atomic density guess
 
   Time after variat. SCF:      0.5
   Time prior to 1st pass:      0.5
  Resetting Diis


         Total DFT energy =     -153.719366137030
      One electron energy =     -371.327128812492
           Coulomb energy =      156.374811512481
    Exchange-Corr. energy =      -20.311924125209
 Nuclear repulsion energy =       81.544875288190

 Numeric. integr. density =       25.999998758444

     Total iterative time =      0.8s


 
                  Occupations of the irreducible representations
                  ----------------------------------------------
 
                     irrep           alpha         beta
                     --------     --------     --------
                     a'               10.0         10.0
                     a"                3.0          3.0
 
 
                       DFT Final Molecular Orbital Analysis
                       ------------------------------------
 
 Vector    1  Occ=2.000000D+00  E=-1.860529D+01  Symmetry=a'
              MO Center=  3.4D-01, -1.2D+00,  8.5D-20, r^2= 1.5D-02
   Bfn.  Coefficient  Atom+Function         Bfn.  Coefficient  Atom+Function  
  ----- ------------  ---------------      ----- ------------  ---------------
    16      0.990412  2 O  s                 17      0.029551  2 O  s          
    21      0.026098  2 O  s          
 
 Vector    2  Occ=2.000000D+00  E=-9.825009D+00  Symmetry=a'
              MO Center= -5.4D-01, -6.6D-02, -1.1D-17, r^2= 2.8D-02
   Bfn.  Coefficient  Atom+Function         Bfn.  Coefficient  Atom+Function  
  ----- ------------  ---------------      ----- ------------  ---------------
     1      0.989431  1 C  s                  2      0.070053  1 C  s          
 
 Vector    3  Occ=2.000000D+00  E=-9.772533D+00  Symmetry=a'
              MO Center=  2.7D-01,  1.2D+00,  1.8D-17, r^2= 2.8D-02
   Bfn.  Coefficient  Atom+Function         Bfn.  Coefficient  Atom+Function  
  ----- ------------  ---------------      ----- ------------  ---------------
    31      0.989325  3 C  s                 32      0.071026  3 C  s          
 
 Vector    4  Occ=2.000000D+00  E=-9.105556D-01  Symmetry=a'
              MO Center=  9.3D-02, -1.1D+00, -3.1D-17, r^2= 6.4D-01
   Bfn.  Coefficient  Atom+Function         Bfn.  Coefficient  Atom+Function  
  ----- ------------  ---------------      ----- ------------  ---------------
    17      0.435325  2 O  s                 21      0.425443  2 O  s          
    16     -0.200722  2 O  s                  2      0.145889  1 C  s          
    18     -0.124119  2 O  px                50      0.123885  6 H  s          
     4     -0.086782  1 C  py                 1     -0.079963  1 C  s          
     3      0.062307  1 C  px                 6      0.061536  1 C  s          
 
 Vector    5  Occ=2.000000D+00  E=-6.664899D-01  Symmetry=a'
              MO Center= -5.4D-02,  5.5D-01, -1.4D-15, r^2= 1.8D+00
   Bfn.  Coefficient  Atom+Function         Bfn.  Coefficient  Atom+Function  
  ----- ------------  ---------------      ----- ------------  ---------------
    32      0.289184  3 C  s                 36      0.261232  3 C  s          
     2      0.235116  1 C  s                  6      0.206912  1 C  s          
    31     -0.157928  3 C  s                 21     -0.142831  2 O  s          
    19      0.128680  2 O  py                 1     -0.124395  1 C  s          
    17     -0.121351  2 O  s                  4      0.103303  1 C  py         
 
 Vector    6  Occ=2.000000D+00  E=-5.393062D-01  Symmetry=a'
              MO Center= -1.0D-01,  3.2D-01,  3.3D-15, r^2= 2.6D+00
   Bfn.  Coefficient  Atom+Function         Bfn.  Coefficient  Atom+Function  
  ----- ------------  ---------------      ----- ------------  ---------------
     2      0.259308  1 C  s                  6      0.251305  1 C  s          
    36     -0.239745  3 C  s                 32     -0.232110  3 C  s          
    19      0.202362  2 O  py                 1     -0.129042  1 C  s          
    21     -0.124835  2 O  s                 31      0.121634  3 C  s          
    46      0.115176  4 H  s                 48      0.115176  5 H  s          
 
 Vector    7  Occ=2.000000D+00  E=-4.575119D-01  Symmetry=a'
              MO Center= -1.9D-01, -5.7D-01, -1.8D-15, r^2= 1.8D+00
   Bfn.  Coefficient  Atom+Function         Bfn.  Coefficient  Atom+Function  
  ----- ------------  ---------------      ----- ------------  ---------------
    19      0.400909  2 O  py                 3      0.296431  1 C  px         
    23      0.192389  2 O  py                50     -0.187418  6 H  s          
     7      0.128001  1 C  px                51     -0.122720  6 H  s          
    33      0.111070  3 C  px                 4     -0.107426  1 C  py         
    46     -0.102659  4 H  s                 48     -0.102659  5 H  s          
 
 Vector    8  Occ=2.000000D+00  E=-4.103657D-01  Symmetry=a"
              MO Center= -3.0D-01,  2.0D-01,  4.3D-15, r^2= 1.9D+00
   Bfn.  Coefficient  Atom+Function         Bfn.  Coefficient  Atom+Function  
  ----- ------------  ---------------      ----- ------------  ---------------
     5      0.372364  1 C  pz                35      0.245866  3 C  pz         
    20      0.172906  2 O  pz                 9      0.161128  1 C  pz         
    46      0.157051  4 H  s                 48     -0.157051  5 H  s          
    47      0.121537  4 H  s                 49     -0.121537  5 H  s          
    39      0.116679  3 C  pz                24      0.106792  2 O  pz         
 
 Vector    9  Occ=2.000000D+00  E=-3.454832D-01  Symmetry=a'
              MO Center=  1.6D-01,  1.2D-01, -2.1D-15, r^2= 2.1D+00
   Bfn.  Coefficient  Atom+Function         Bfn.  Coefficient  Atom+Function  
  ----- ------------  ---------------      ----- ------------  ---------------
     4      0.341586  1 C  py                18      0.314608  2 O  px         
    33     -0.279187  3 C  px                21      0.219883  2 O  s          
     8      0.193541  1 C  py                34     -0.194414  3 C  py         
    22      0.186626  2 O  px                37     -0.112951  3 C  px         
    54     -0.106209  8 H  s                 56     -0.106209  9 H  s          
 
 Vector   10  Occ=2.000000D+00  E=-3.343540D-01  Symmetry=a'
              MO Center=  6.2D-02,  1.2D+00, -6.1D-15, r^2= 1.9D+00
   Bfn.  Coefficient  Atom+Function         Bfn.  Coefficient  Atom+Function  
  ----- ------------  ---------------      ----- ------------  ---------------
    34      0.322370  3 C  py                33     -0.282561  3 C  px         
    52      0.269205  7 H  s                 53      0.255948  7 H  s          
    19      0.195216  2 O  py                38      0.147394  3 C  py         
     4     -0.135455  1 C  py                37     -0.130314  3 C  px         
    23      0.110565  2 O  py                21      0.105670  2 O  s          
 
 Vector   11  Occ=2.000000D+00  E=-3.141463D-01  Symmetry=a"
              MO Center=  2.5D-01,  7.4D-01,  5.7D-15, r^2= 2.2D+00
   Bfn.  Coefficient  Atom+Function         Bfn.  Coefficient  Atom+Function  
  ----- ------------  ---------------      ----- ------------  ---------------
    35      0.382149  3 C  pz                 5     -0.218474  1 C  pz         
    39      0.207756  3 C  pz                54     -0.202031  8 H  s          
    56      0.202031  9 H  s                 20     -0.190434  2 O  pz         
    55     -0.177433  8 H  s                 57      0.177433  9 H  s          
    24     -0.130933  2 O  pz                47     -0.115027  4 H  s          
 
 Vector   12  Occ=2.000000D+00  E=-2.691407D-01  Symmetry=a'
              MO Center=  1.1D-01, -5.2D-01, -8.5D-16, r^2= 2.0D+00
   Bfn.  Coefficient  Atom+Function         Bfn.  Coefficient  Atom+Function  
  ----- ------------  ---------------      ----- ------------  ---------------
    18      0.449403  2 O  px                21      0.320436  2 O  s          
    22      0.307822  2 O  px                 3     -0.288939  1 C  px         
    34      0.187759  3 C  py                33      0.158892  3 C  px         
    36     -0.156968  3 C  s                 50     -0.136933  6 H  s          
    47      0.133787  4 H  s                 49      0.133787  5 H  s          
 
 Vector   13  Occ=2.000000D+00  E=-2.051030D-01  Symmetry=a"
              MO Center=  5.3D-02, -9.1D-01, -1.1D-16, r^2= 1.4D+00
   Bfn.  Coefficient  Atom+Function         Bfn.  Coefficient  Atom+Function  
  ----- ------------  ---------------      ----- ------------  ---------------
    20      0.589662  2 O  pz                24      0.460046  2 O  pz         
    47     -0.214883  4 H  s                 49      0.214883  5 H  s          
     5     -0.183688  1 C  pz                46     -0.145488  4 H  s          
    48      0.145488  5 H  s                 55     -0.098370  8 H  s          
    57      0.098370  9 H  s                 39     -0.055473  3 C  pz         
 
 Vector   14  Occ=0.000000D+00  E= 4.534078D-02  Symmetry=a'
              MO Center= -4.2D-01, -1.4D+00, -5.6D-17, r^2= 3.3D+00
   Bfn.  Coefficient  Atom+Function         Bfn.  Coefficient  Atom+Function  
  ----- ------------  ---------------      ----- ------------  ---------------
    51      1.163303  6 H  s                 21     -0.986981  2 O  s          
     6     -0.642418  1 C  s                 47      0.476126  4 H  s          
    49      0.476126  5 H  s                 53      0.410045  7 H  s          
     7      0.373465  1 C  px                22      0.315326  2 O  px         
     8     -0.295661  1 C  py                23      0.259300  2 O  py         
 
 Vector   15  Occ=0.000000D+00  E= 9.180332D-02  Symmetry=a'
              MO Center= -1.2D-01,  6.4D-01,  5.0D-15, r^2= 4.8D+00
   Bfn.  Coefficient  Atom+Function         Bfn.  Coefficient  Atom+Function  
  ----- ------------  ---------------      ----- ------------  ---------------
    36      1.751543  3 C  s                  6      1.129889  1 C  s          
    55     -0.896943  8 H  s                 57     -0.896943  9 H  s          
    47     -0.739189  4 H  s                 49     -0.739189  5 H  s          
    53     -0.690976  7 H  s                 21     -0.534711  2 O  s          
    51      0.419059  6 H  s                  7     -0.364946  1 C  px         
 
 Vector   16  Occ=0.000000D+00  E= 1.311982D-01  Symmetry=a"
              MO Center= -2.8D-01,  4.8D-01,  1.8D-14, r^2= 4.3D+00
   Bfn.  Coefficient  Atom+Function         Bfn.  Coefficient  Atom+Function  
  ----- ------------  ---------------      ----- ------------  ---------------
    47      1.124018  4 H  s                 49     -1.124018  5 H  s          
    55     -0.952840  8 H  s                 57      0.952840  9 H  s          
     9     -0.855452  1 C  pz                39     -0.680150  3 C  pz         
     5     -0.354969  1 C  pz                35     -0.281182  3 C  pz         
    24      0.138943  2 O  pz                54     -0.080694  8 H  s          
 
 Vector   17  Occ=0.000000D+00  E= 1.389537D-01  Symmetry=a'
              MO Center= -5.2D-01,  5.1D-01, -4.4D-14, r^2= 5.1D+00
   Bfn.  Coefficient  Atom+Function         Bfn.  Coefficient  Atom+Function  
  ----- ------------  ---------------      ----- ------------  ---------------
     6      2.006574  1 C  s                 36     -1.954889  3 C  s          
    47     -1.109993  4 H  s                 49     -1.109993  5 H  s          
    53      0.883137  7 H  s                 55      0.634337  8 H  s          
    57      0.634337  9 H  s                 51      0.424575  6 H  s          
     7     -0.415925  1 C  px                 8      0.403350  1 C  py         
 
 Vector   18  Occ=0.000000D+00  E= 1.441958D-01  Symmetry=a'
              MO Center= -3.3D-02,  1.5D+00,  5.6D-15, r^2= 3.7D+00
   Bfn.  Coefficient  Atom+Function         Bfn.  Coefficient  Atom+Function  
  ----- ------------  ---------------      ----- ------------  ---------------
    53      1.732215  7 H  s                 37      1.000906  3 C  px         
    38     -0.843286  3 C  py                55     -0.786588  8 H  s          
    57     -0.786588  9 H  s                 51     -0.425163  6 H  s          
    33      0.317332  3 C  px                34     -0.263861  3 C  py         
     7     -0.241400  1 C  px                21      0.240955  2 O  s          
 
 Vector   19  Occ=0.000000D+00  E= 1.674516D-01  Symmetry=a"
              MO Center= -2.4D-02,  6.9D-01,  1.6D-14, r^2= 4.2D+00
   Bfn.  Coefficient  Atom+Function         Bfn.  Coefficient  Atom+Function  
  ----- ------------  ---------------      ----- ------------  ---------------
    39      1.285317  3 C  pz                55      1.217212  8 H  s          
    57     -1.217212  9 H  s                  9     -1.151240  1 C  pz         
    47      1.082100  4 H  s                 49     -1.082100  5 H  s          
     5     -0.333162  1 C  pz                35      0.306763  3 C  pz         
    24      0.195214  2 O  pz                20      0.113601  2 O  pz         
 
 Vector   20  Occ=0.000000D+00  E= 1.717038D-01  Symmetry=a'
              MO Center= -3.3D-01, -3.4D-01, -2.4D-16, r^2= 2.7D+00
   Bfn.  Coefficient  Atom+Function         Bfn.  Coefficient  Atom+Function  
  ----- ------------  ---------------      ----- ------------  ---------------
     6      1.064520  1 C  s                  8     -1.069488  1 C  py         
     7      0.928923  1 C  px                21     -0.872757  2 O  s          
    23     -0.803216  2 O  py                51     -0.684592  6 H  s          
    37     -0.619620  3 C  px                55      0.456805  8 H  s          
    57      0.456805  9 H  s                 36     -0.420375  3 C  s          
 
 Vector   21  Occ=0.000000D+00  E= 1.915124D-01  Symmetry=a'
              MO Center= -4.3D-02,  6.9D-01, -1.4D-17, r^2= 2.7D+00
   Bfn.  Coefficient  Atom+Function         Bfn.  Coefficient  Atom+Function  
  ----- ------------  ---------------      ----- ------------  ---------------
    38      1.466305  3 C  py                 6      1.447581  1 C  s          
    36     -1.321082  3 C  s                  7      1.254780  1 C  px         
     8      1.095282  1 C  py                37      0.849976  3 C  px         
    47      0.400174  4 H  s                 49      0.400174  5 H  s          
     3      0.320765  1 C  px                21     -0.309388  2 O  s          
 
 Vector   22  Occ=0.000000D+00  E= 4.793981D-01  Symmetry=a'
              MO Center= -2.0D-01,  5.7D-01,  3.3D-16, r^2= 3.3D+00
   Bfn.  Coefficient  Atom+Function         Bfn.  Coefficient  Atom+Function  
  ----- ------------  ---------------      ----- ------------  ---------------
     8      0.886712  1 C  py                37     -0.747797  3 C  px         
     7      0.605901  1 C  px                 4     -0.547813  1 C  py         
    38     -0.509427  3 C  py                33      0.499568  3 C  px         
    36     -0.483493  3 C  s                 34      0.451938  3 C  py         
     6     -0.426209  1 C  s                  3     -0.213188  1 C  px         
 
 Vector   23  Occ=0.000000D+00  E= 5.042113D-01  Symmetry=a'
              MO Center= -5.5D-01, -2.3D-02, -5.5D-17, r^2= 2.0D+00
   Bfn.  Coefficient  Atom+Function         Bfn.  Coefficient  Atom+Function  
  ----- ------------  ---------------      ----- ------------  ---------------
     7      1.596153  1 C  px                21     -0.946045  2 O  s          
     8     -0.906941  1 C  py                 3     -0.770138  1 C  px         
     6      0.588747  1 C  s                  4      0.547877  1 C  py         
     2     -0.352151  1 C  s                 23     -0.352462  2 O  py         
    37     -0.351255  3 C  px                36     -0.241680  3 C  s          
 
 Vector   24  Occ=0.000000D+00  E= 5.147164D-01  Symmetry=a"
              MO Center= -2.5D-02,  1.0D+00,  1.2D-15, r^2= 2.3D+00
   Bfn.  Coefficient  Atom+Function         Bfn.  Coefficient  Atom+Function  
  ----- ------------  ---------------      ----- ------------  ---------------
    39      1.300133  3 C  pz                35     -0.662224  3 C  pz         
    54      0.390729  8 H  s                 56     -0.390729  9 H  s          
     9      0.289852  1 C  pz                46     -0.269168  4 H  s          
    48      0.269168  5 H  s                 55      0.214239  8 H  s          
    57     -0.214239  9 H  s                  5     -0.195982  1 C  pz         
 
 Vector   25  Occ=0.000000D+00  E= 5.293757D-01  Symmetry=a'
              MO Center=  4.3D-01,  7.7D-01, -2.4D-15, r^2= 2.6D+00
   Bfn.  Coefficient  Atom+Function         Bfn.  Coefficient  Atom+Function  
  ----- ------------  ---------------      ----- ------------  ---------------
    38      1.463522  3 C  py                 7      0.894831  1 C  px         
    37     -0.844180  3 C  px                34     -0.685982  3 C  py         
     6      0.611190  1 C  s                 21     -0.593447  2 O  s          
    36     -0.468806  3 C  s                 52     -0.420002  7 H  s          
    53     -0.384627  7 H  s                 33      0.348060  3 C  px         
 
 Vector   26  Occ=0.000000D+00  E= 6.081018D-01  Symmetry=a'
              MO Center= -1.9D-01,  4.2D-01,  2.1D-15, r^2= 2.9D+00
   Bfn.  Coefficient  Atom+Function         Bfn.  Coefficient  Atom+Function  
  ----- ------------  ---------------      ----- ------------  ---------------
     8      1.743890  1 C  py                37      1.469960  3 C  px         
    36     -1.009679  3 C  s                 38      0.943612  3 C  py         
     7      0.931162  1 C  px                 6      0.744706  1 C  s          
     4     -0.675425  1 C  py                33     -0.578236  3 C  px         
     3     -0.403735  1 C  px                34     -0.386648  3 C  py         
 
 Vector   27  Occ=0.000000D+00  E= 6.286984D-01  Symmetry=a"
              MO Center= -1.4D-01,  2.1D-01, -1.4D-15, r^2= 2.8D+00
   Bfn.  Coefficient  Atom+Function         Bfn.  Coefficient  Atom+Function  
  ----- ------------  ---------------      ----- ------------  ---------------
     9      2.163464  1 C  pz                39     -1.590924  3 C  pz         
     5     -0.746433  1 C  pz                47     -0.692390  4 H  s          
    49      0.692390  5 H  s                 55     -0.561358  8 H  s          
    57      0.561358  9 H  s                 35      0.535247  3 C  pz         
    20     -0.348899  2 O  pz                46     -0.240854  4 H  s          
 
 Vector   28  Occ=0.000000D+00  E= 7.538445D-01  Symmetry=a'
              MO Center=  1.4D-01, -1.2D+00,  4.2D-16, r^2= 2.3D+00
   Bfn.  Coefficient  Atom+Function         Bfn.  Coefficient  Atom+Function  
  ----- ------------  ---------------      ----- ------------  ---------------
    50      0.824389  6 H  s                 51     -0.643840  6 H  s          
    18      0.548110  2 O  px                36      0.438842  3 C  s          
    22     -0.422016  2 O  px                53     -0.390648  7 H  s          
    37     -0.367220  3 C  px                46      0.299089  4 H  s          
    48      0.299089  5 H  s                  8     -0.278658  1 C  py         
 
 Vector   29  Occ=0.000000D+00  E= 8.138639D-01  Symmetry=a"
              MO Center= -8.1D-01, -3.3D-03, -4.4D-16, r^2= 2.7D+00
   Bfn.  Coefficient  Atom+Function         Bfn.  Coefficient  Atom+Function  
  ----- ------------  ---------------      ----- ------------  ---------------
     9      1.613411  1 C  pz                47     -1.516318  4 H  s          
    49      1.516318  5 H  s                  5     -0.839459  1 C  pz         
    46      0.587267  4 H  s                 48     -0.587267  5 H  s          
    55      0.550064  8 H  s                 57     -0.550064  9 H  s          
    39      0.529557  3 C  pz                24     -0.371486  2 O  pz         
 
 Vector   30  Occ=0.000000D+00  E= 8.312426D-01  Symmetry=a'
              MO Center= -3.5D-01,  2.4D-01, -9.6D-16, r^2= 3.7D+00
   Bfn.  Coefficient  Atom+Function         Bfn.  Coefficient  Atom+Function  
  ----- ------------  ---------------      ----- ------------  ---------------
    53      0.705864  7 H  s                 52     -0.697760  7 H  s          
    21      0.656457  2 O  s                 51     -0.585622  6 H  s          
    46     -0.487530  4 H  s                 47      0.486535  4 H  s          
    48     -0.487530  5 H  s                 49      0.486535  5 H  s          
    50      0.430332  6 H  s                  3     -0.382409  1 C  px         
 
 Vector   31  Occ=0.000000D+00  E= 8.547209D-01  Symmetry=a'
              MO Center=  2.2D-01,  1.4D+00,  7.7D-15, r^2= 2.6D+00
   Bfn.  Coefficient  Atom+Function         Bfn.  Coefficient  Atom+Function  
  ----- ------------  ---------------      ----- ------------  ---------------
    53      1.501961  7 H  s                 37      1.039350  3 C  px         
    55     -0.852100  8 H  s                 57     -0.852100  9 H  s          
    33     -0.701847  3 C  px                38     -0.591372  3 C  py         
    54      0.584521  8 H  s                 56      0.584521  9 H  s          
    52     -0.524604  7 H  s                 23     -0.456331  2 O  py         
 
 Vector   32  Occ=0.000000D+00  E= 8.691668D-01  Symmetry=a"
              MO Center=  6.2D-01,  8.6D-01, -2.5D-15, r^2= 2.8D+00
   Bfn.  Coefficient  Atom+Function         Bfn.  Coefficient  Atom+Function  
  ----- ------------  ---------------      ----- ------------  ---------------
    55      1.289705  8 H  s                 57     -1.289705  9 H  s          
    39      1.027322  3 C  pz                35     -0.680011  3 C  pz         
    54     -0.670516  8 H  s                 56      0.670516  9 H  s          
    24      0.372430  2 O  pz                42      0.362482  3 C  dxz        
    20     -0.358682  2 O  pz                46     -0.220146  4 H  s          
 
 Vector   33  Occ=0.000000D+00  E= 8.921188D-01  Symmetry=a'
              MO Center= -2.0D-01, -3.2D-01, -5.0D-15, r^2= 3.8D+00
   Bfn.  Coefficient  Atom+Function         Bfn.  Coefficient  Atom+Function  
  ----- ------------  ---------------      ----- ------------  ---------------
     6      2.574042  1 C  s                 47     -1.115915  4 H  s          
    49     -1.115915  5 H  s                  2     -1.039772  1 C  s          
     7     -0.749387  1 C  px                22      0.700445  2 O  px         
    51     -0.600894  6 H  s                 37     -0.565220  3 C  px         
     8     -0.557980  1 C  py                21      0.544772  2 O  s          
 
 Vector   34  Occ=0.000000D+00  E= 9.434302D-01  Symmetry=a'
              MO Center=  9.1D-02, -1.7D-01,  1.7D-15, r^2= 4.7D+00
   Bfn.  Coefficient  Atom+Function         Bfn.  Coefficient  Atom+Function  
  ----- ------------  ---------------      ----- ------------  ---------------
    36      2.120283  3 C  s                 21      1.168056  2 O  s          
    53     -0.998168  7 H  s                 32     -0.859734  3 C  s          
    51     -0.857980  6 H  s                  6     -0.687302  1 C  s          
    17     -0.631258  2 O  s                 55     -0.600987  8 H  s          
    57     -0.600987  9 H  s                 23     -0.524894  2 O  py         
 
 Vector   35  Occ=0.000000D+00  E= 9.598792D-01  Symmetry=a"
              MO Center=  2.4D-01, -7.8D-01,  6.4D-16, r^2= 2.5D+00
   Bfn.  Coefficient  Atom+Function         Bfn.  Coefficient  Atom+Function  
  ----- ------------  ---------------      ----- ------------  ---------------
    24     -1.182622  2 O  pz                 9      1.076653  1 C  pz         
    20      0.780124  2 O  pz                39     -0.512336  3 C  pz         
    46     -0.350768  4 H  s                 48      0.350768  5 H  s          
    12      0.298905  1 C  dxz               54     -0.228289  8 H  s          
    56      0.228289  9 H  s                 44     -0.219557  3 C  dyz        
 
 Vector   36  Occ=0.000000D+00  E= 9.683250D-01  Symmetry=a'
              MO Center=  1.4D-01,  4.0D-01, -8.7D-16, r^2= 3.7D+00
   Bfn.  Coefficient  Atom+Function         Bfn.  Coefficient  Atom+Function  
  ----- ------------  ---------------      ----- ------------  ---------------
    36      2.960474  3 C  s                  6      1.808223  1 C  s          
    32     -1.393281  3 C  s                  2     -1.034053  1 C  s          
    55     -0.946619  8 H  s                 57     -0.946619  9 H  s          
    53     -0.902879  7 H  s                 23      0.653722  2 O  py         
    47     -0.636473  4 H  s                 49     -0.636473  5 H  s          
 
 Vector   37  Occ=0.000000D+00  E= 1.103221D+00  Symmetry=a'
              MO Center= -2.8D-02, -5.7D-01,  5.0D-16, r^2= 2.8D+00
   Bfn.  Coefficient  Atom+Function         Bfn.  Coefficient  Atom+Function  
  ----- ------------  ---------------      ----- ------------  ---------------
     6      2.865295  1 C  s                 36     -1.899762  3 C  s          
    21      1.139690  2 O  s                 23     -1.115252  2 O  py         
     2     -0.986179  1 C  s                  8      0.915431  1 C  py         
    37      0.914269  3 C  px                22     -0.869878  2 O  px         
    51     -0.642100  6 H  s                 17     -0.515904  2 O  s          
 
 Vector   38  Occ=0.000000D+00  E= 1.308935D+00  Symmetry=a'
              MO Center=  3.8D-01,  8.1D-02, -7.7D-16, r^2= 2.7D+00
   Bfn.  Coefficient  Atom+Function         Bfn.  Coefficient  Atom+Function  
  ----- ------------  ---------------      ----- ------------  ---------------
    36      4.246787  3 C  s                 21     -1.927984  2 O  s          
     8     -1.426682  1 C  py                32     -1.427408  3 C  s          
    23     -1.165445  2 O  py                38     -0.957753  3 C  py         
     6     -0.942538  1 C  s                 17      0.812645  2 O  s          
    55     -0.537337  8 H  s                 57     -0.537337  9 H  s          
 
 Vector   39  Occ=0.000000D+00  E= 1.378835D+00  Symmetry=a"
              MO Center= -7.0D-02,  2.5D-02, -8.3D-18, r^2= 1.7D+00
   Bfn.  Coefficient  Atom+Function         Bfn.  Coefficient  Atom+Function  
  ----- ------------  ---------------      ----- ------------  ---------------
    14      1.091223  1 C  dyz               44     -0.828575  3 C  dyz        
    27      0.534642  2 O  dxz               29     -0.517958  2 O  dyz        
     9     -0.195302  1 C  pz                24      0.167632  2 O  pz         
    39     -0.149312  3 C  pz                47      0.147708  4 H  s          
    49     -0.147708  5 H  s                 54     -0.140490  8 H  s          
 
 Vector   40  Occ=0.000000D+00  E= 1.415547D+00  Symmetry=a'
              MO Center= -9.9D-02, -8.2D-02,  5.3D-17, r^2= 2.0D+00
   Bfn.  Coefficient  Atom+Function         Bfn.  Coefficient  Atom+Function  
  ----- ------------  ---------------      ----- ------------  ---------------
     6      2.903809  1 C  s                 36     -1.742519  3 C  s          
    21     -1.092560  2 O  s                  2     -0.749709  1 C  s          
    23     -0.709391  2 O  py                10      0.537655  1 C  dxx        
     7      0.457687  1 C  px                38      0.426289  3 C  py         
    40     -0.392114  3 C  dxx               32      0.388441  3 C  s          
 
 Vector   41  Occ=0.000000D+00  E= 1.605942D+00  Symmetry=a'
              MO Center= -1.3D-01, -2.7D-01,  1.2D-15, r^2= 2.8D+00
   Bfn.  Coefficient  Atom+Function         Bfn.  Coefficient  Atom+Function  
  ----- ------------  ---------------      ----- ------------  ---------------
     6      6.035639  1 C  s                 21     -3.818903  2 O  s          
    36     -3.762481  3 C  s                  2     -1.465975  1 C  s          
     7      1.178177  1 C  px                22      1.132953  2 O  px         
    17      1.117031  2 O  s                 38      1.080679  3 C  py         
    32      0.852040  3 C  s                 37      0.591977  3 C  px         
 
 Vector   42  Occ=0.000000D+00  E= 1.681895D+00  Symmetry=a"
              MO Center=  3.2D-01, -1.1D+00,  6.5D-17, r^2= 7.9D-01
   Bfn.  Coefficient  Atom+Function         Bfn.  Coefficient  Atom+Function  
  ----- ------------  ---------------      ----- ------------  ---------------
    27      1.186977  2 O  dxz               29      1.186284  2 O  dyz        
     9     -0.409652  1 C  pz                12      0.346216  1 C  dxz        
    47      0.166201  4 H  s                 49     -0.166201  5 H  s          
    46      0.159961  4 H  s                 48     -0.159961  5 H  s          
    24      0.157256  2 O  pz                42      0.126214  3 C  dxz        
 
 Vector   43  Occ=0.000000D+00  E= 1.706097D+00  Symmetry=a'
              MO Center=  1.3D-01,  2.4D-01, -1.7D-16, r^2= 2.0D+00
   Bfn.  Coefficient  Atom+Function         Bfn.  Coefficient  Atom+Function  
  ----- ------------  ---------------      ----- ------------  ---------------
     8      0.805648  1 C  py                40     -0.686612  3 C  dxx        
    11      0.550137  1 C  dxy               25      0.550988  2 O  dxx        
    37      0.518004  3 C  px                 6      0.483416  1 C  s          
    43      0.475539  3 C  dyy               36     -0.407136  3 C  s          
    28     -0.377648  2 O  dyy               23     -0.260161  2 O  py         
 
 Vector   44  Occ=0.000000D+00  E= 1.873178D+00  Symmetry=a"
              MO Center=  2.8D-02,  5.7D-01, -1.3D-15, r^2= 1.9D+00
   Bfn.  Coefficient  Atom+Function         Bfn.  Coefficient  Atom+Function  
  ----- ------------  ---------------      ----- ------------  ---------------
    44      1.451351  3 C  dyz                9      1.378717  1 C  pz         
    39     -0.875902  3 C  pz                27      0.542991  2 O  dxz        
    14      0.519745  1 C  dyz               46     -0.449521  4 H  s          
    48      0.449521  5 H  s                 12     -0.439745  1 C  dxz        
    29     -0.426052  2 O  dyz               24     -0.393242  2 O  pz         
 
 Vector   45  Occ=0.000000D+00  E= 1.878395D+00  Symmetry=a'
              MO Center= -8.9D-02,  5.3D-01, -2.2D-16, r^2= 1.6D+00
   Bfn.  Coefficient  Atom+Function         Bfn.  Coefficient  Atom+Function  
  ----- ------------  ---------------      ----- ------------  ---------------
    41      0.785211  3 C  dxy               11      0.777963  1 C  dxy        
    45     -0.534467  3 C  dzz                7      0.452469  1 C  px         
    15     -0.437654  1 C  dzz               37     -0.390852  3 C  px         
    32     -0.330378  3 C  s                 40      0.330451  3 C  dxx        
     2     -0.315102  1 C  s                  4     -0.261032  1 C  py         
 
 Vector   46  Occ=0.000000D+00  E= 1.977558D+00  Symmetry=a'
              MO Center= -2.9D-01, -3.5D-01, -8.7D-18, r^2= 1.4D+00
   Bfn.  Coefficient  Atom+Function         Bfn.  Coefficient  Atom+Function  
  ----- ------------  ---------------      ----- ------------  ---------------
    15      0.678354  1 C  dzz               11      0.659511  1 C  dxy        
    21     -0.651685  2 O  s                  7     -0.603730  1 C  px         
    30      0.545058  2 O  dzz               17      0.482448  2 O  s          
    22      0.479799  2 O  px                41      0.415281  3 C  dxy        
    10     -0.366047  1 C  dxx               46     -0.357952  4 H  s          
 
 Vector   47  Occ=0.000000D+00  E= 2.115664D+00  Symmetry=a"
              MO Center=  8.0D-02,  2.3D-01, -2.7D-16, r^2= 2.0D+00
   Bfn.  Coefficient  Atom+Function         Bfn.  Coefficient  Atom+Function  
  ----- ------------  ---------------      ----- ------------  ---------------
    42      1.252843  3 C  dxz               14     -0.878765  1 C  dyz        
    27      0.762584  2 O  dxz               29     -0.655809  2 O  dyz        
    12     -0.515767  1 C  dxz               54      0.471033  8 H  s          
    56     -0.471033  9 H  s                  9      0.406305  1 C  pz         
    39      0.316841  3 C  pz                24     -0.307353  2 O  pz         
 
 Vector   48  Occ=0.000000D+00  E= 2.154569D+00  Symmetry=a'
              MO Center=  7.1D-02,  6.6D-01, -1.5D-16, r^2= 1.8D+00
   Bfn.  Coefficient  Atom+Function         Bfn.  Coefficient  Atom+Function  
  ----- ------------  ---------------      ----- ------------  ---------------
    41      1.146002  3 C  dxy                6     -0.816765  1 C  s          
    52      0.639836  7 H  s                 45      0.564225  3 C  dzz        
    36      0.557585  3 C  s                 38     -0.552848  3 C  py         
    11     -0.432562  1 C  dxy               13      0.425669  1 C  dyy        
    21      0.423619  2 O  s                 40     -0.412435  3 C  dxx        
 
 Vector   49  Occ=0.000000D+00  E= 2.251425D+00  Symmetry=a"
              MO Center= -1.3D-01,  5.0D-01,  1.0D-16, r^2= 1.6D+00
   Bfn.  Coefficient  Atom+Function         Bfn.  Coefficient  Atom+Function  
  ----- ------------  ---------------      ----- ------------  ---------------
    42      1.269734  3 C  dxz               12      1.241558  1 C  dxz        
    14      0.702040  1 C  dyz               44      0.561316  3 C  dyz        
    46      0.435826  4 H  s                 48     -0.435826  5 H  s          
    54      0.419006  8 H  s                 56     -0.419006  9 H  s          
    27     -0.363091  2 O  dxz                9     -0.356805  1 C  pz         
 
 Vector   50  Occ=0.000000D+00  E= 2.282143D+00  Symmetry=a'
              MO Center=  1.1D-01, -1.8D-02,  6.2D-18, r^2= 2.4D+00
   Bfn.  Coefficient  Atom+Function         Bfn.  Coefficient  Atom+Function  
  ----- ------------  ---------------      ----- ------------  ---------------
    21      0.916639  2 O  s                 26      0.863499  2 O  dxy        
    50     -0.836550  6 H  s                 43     -0.729963  3 C  dyy        
     8      0.674476  1 C  py                36     -0.670911  3 C  s          
    22     -0.579926  2 O  px                45      0.545687  3 C  dzz        
    11      0.514740  1 C  dxy               30     -0.504916  2 O  dzz        
 
 Vector   51  Occ=0.000000D+00  E= 2.327697D+00  Symmetry=a"
              MO Center= -1.5D-01, -2.1D-01,  3.2D-18, r^2= 1.6D+00
   Bfn.  Coefficient  Atom+Function         Bfn.  Coefficient  Atom+Function  
  ----- ------------  ---------------      ----- ------------  ---------------
    12      1.329240  1 C  dxz               29     -0.981783  2 O  dyz        
    14     -0.838625  1 C  dyz               42     -0.786296  3 C  dxz        
    27      0.692970  2 O  dxz               46      0.319343  4 H  s          
    48     -0.319343  5 H  s                 54     -0.261192  8 H  s          
    56      0.261192  9 H  s                 24     -0.239811  2 O  pz         
 
 Vector   52  Occ=0.000000D+00  E= 2.418633D+00  Symmetry=a'
              MO Center=  1.1D-01, -6.0D-01,  5.6D-17, r^2= 1.9D+00
   Bfn.  Coefficient  Atom+Function         Bfn.  Coefficient  Atom+Function  
  ----- ------------  ---------------      ----- ------------  ---------------
    21      2.085623  2 O  s                  6     -1.674329  1 C  s          
    50     -0.859887  6 H  s                 30     -0.762722  2 O  dzz        
    28      0.752412  2 O  dyy                7     -0.738877  1 C  px         
    17     -0.635823  2 O  s                 22     -0.622993  2 O  px         
    15      0.566294  1 C  dzz               36      0.545908  3 C  s          
 
 Vector   53  Occ=0.000000D+00  E= 2.541503D+00  Symmetry=a'
              MO Center= -1.3D-01,  2.8D-01,  7.6D-17, r^2= 1.8D+00
   Bfn.  Coefficient  Atom+Function         Bfn.  Coefficient  Atom+Function  
  ----- ------------  ---------------      ----- ------------  ---------------
     6      1.601379  1 C  s                 41     -1.339834  3 C  dxy        
    36     -1.270193  3 C  s                 13      0.840182  1 C  dyy        
    11      0.743956  1 C  dxy               38      0.675826  3 C  py         
    15     -0.558673  1 C  dzz               26      0.517535  2 O  dxy        
    21     -0.502356  2 O  s                  8      0.480848  1 C  py         
 
 Vector   54  Occ=0.000000D+00  E= 2.749780D+00  Symmetry=a'
              MO Center=  2.3D-03, -6.7D-01, -2.1D-19, r^2= 1.6D+00
   Bfn.  Coefficient  Atom+Function         Bfn.  Coefficient  Atom+Function  
  ----- ------------  ---------------      ----- ------------  ---------------
    21      2.015308  2 O  s                 26     -1.896575  2 O  dxy        
    11      1.619622  1 C  dxy               23      1.374561  2 O  py         
     6     -1.253104  1 C  s                  8      0.828624  1 C  py         
    22     -0.686642  2 O  px                 4      0.675093  1 C  py         
    17     -0.590601  2 O  s                 30     -0.480714  2 O  dzz        
 
 Vector   55  Occ=0.000000D+00  E= 3.635348D+00  Symmetry=a'
              MO Center=  3.2D-01, -1.1D+00,  8.7D-18, r^2= 1.2D+00
   Bfn.  Coefficient  Atom+Function         Bfn.  Coefficient  Atom+Function  
  ----- ------------  ---------------      ----- ------------  ---------------
    21      4.878968  2 O  s                 30     -1.779888  2 O  dzz        
    25     -1.656375  2 O  dxx               28     -1.550977  2 O  dyy        
     6     -1.451045  1 C  s                  2      0.654375  1 C  s          
    22     -0.647806  2 O  px                 7     -0.538433  1 C  px         
    51     -0.539797  6 H  s                 16     -0.510248  2 O  s          
 
 Vector   56  Occ=0.000000D+00  E= 4.090334D+00  Symmetry=a'
              MO Center= -4.5D-02,  7.0D-01, -1.2D-16, r^2= 1.4D+00
   Bfn.  Coefficient  Atom+Function         Bfn.  Coefficient  Atom+Function  
  ----- ------------  ---------------      ----- ------------  ---------------
    32      2.222347  3 C  s                  2      1.740006  1 C  s          
    36      1.553206  3 C  s                 45     -1.482148  3 C  dzz        
     6      1.434220  1 C  s                 40     -1.433982  3 C  dxx        
    43     -1.392367  3 C  dyy               15     -1.216922  1 C  dzz        
    10     -1.169020  1 C  dxx               13     -1.129998  1 C  dyy        
 
 Vector   57  Occ=0.000000D+00  E= 4.315614D+00  Symmetry=a'
              MO Center= -2.1D-01,  4.5D-01, -2.1D-17, r^2= 1.5D+00
   Bfn.  Coefficient  Atom+Function         Bfn.  Coefficient  Atom+Function  
  ----- ------------  ---------------      ----- ------------  ---------------
     6      2.602658  1 C  s                 36     -2.424308  3 C  s          
     2      2.140185  1 C  s                 32     -1.789897  3 C  s          
    13     -1.674987  1 C  dyy               10     -1.541825  1 C  dxx        
    15     -1.396692  1 C  dzz               43      1.372412  3 C  dyy        
    40      1.257426  3 C  dxx               45      1.171087  3 C  dzz        
 
 
 
                                NWChem Input Module
                                -------------------
 
 
 
 
                                     CITATION
                                     --------
                Please cite the following reference when publishing
                           results obtained with NWChem:
 
                 M. Valiev, E.J. Bylaska, N. Govind, K. Kowalski,
              T.P. Straatsma, H.J.J. van Dam, D. Wang, J. Nieplocha,
                        E. Apra, T.L. Windus, W.A. de Jong
                 "NWChem: a comprehensive and scalable open-source
                  solution for large scale molecular simulations"
                      Comput. Phys. Commun. 181, 1477 (2010)
                           doi:10.1016/j.cpc.2010.04.018
 
                                      AUTHORS
                                      -------
          E. Apra, E. J. Bylaska, W. A. de Jong, N. Govind, K. Kowalski,
       T. P. Straatsma, M. Valiev, H. J. J. van Dam, D. Wang, T. L. Windus,
        J. Hammond, J. Autschbach, K. Bhaskaran-Nair, J. Brabec, K. Lopata,
       S. A. Fischer, S. Krishnamoorthy, W. Ma, M. Klemm, O. Villa, Y. Chen,
    V. Anisimov, F. Aquino, S. Hirata, M. T. Hackler, T. Risthaus, M. Malagoli,
       A. Marenich, A. Otero-de-la-Roza, J. Mullin, P. Nichols, R. Peverati,
     J. Pittner, Y. Zhao, P.-D. Fan, A. Fonari, M. Williamson, R. J. Harrison,
       J. R. Rehr, M. Dupuis, D. Silverstein, D. M. A. Smith, J. Nieplocha,
        V. Tipparaju, M. Krishnan, B. E. Van Kuiken, A. Vazquez-Mayagoitia,
        L. Jensen, M. Swart, Q. Wu, T. Van Voorhis, A. A. Auer, M. Nooijen,
      L. D. Crosby, E. Brown, G. Cisneros, G. I. Fann, H. Fruchtl, J. Garza,
        K. Hirao, R. A. Kendall, J. A. Nichols, K. Tsemekhman, K. Wolinski,
     J. Anchell, D. E. Bernholdt, P. Borowski, T. Clark, D. Clerc, H. Dachsel,
   M. J. O. Deegan, K. Dyall, D. Elwood, E. Glendening, M. Gutowski, A. C. Hess,
         J. Jaffe, B. G. Johnson, J. Ju, R. Kobayashi, R. Kutteh, Z. Lin,
   R. Littlefield, X. Long, B. Meng, T. Nakajima, S. Niu, L. Pollack, M. Rosing,
   K. Glaesemann, G. Sandrone, M. Stave, H. Taylor, G. Thomas, J. H. van Lenthe,
                               A. T. Wong, Z. Zhang.

 Total times  cpu:        1.4s     wall:        1.5s
