 argument  1 = /Users/edo/nwchem/nwchem/QA/tests/libxc_tddftgrad_h2/libxc_tddftgrad_h2.nw
 0nheap value is              13107201



============================== echo of input deck ==============================
echo
#https://github.com/nwchemgit/nwchem/issues/228
title "H2"

start h2

geometry
  H     0.00000000      0.00000000      0.0000000
  H     0.              0.              0.7299595
  symmetry c2v
end

basis
  * library 6-31G
end

dft
xc pbe0
end

tddft
  nroots 5
  notriplet
  civecs
  grad
   root 1
  end
  end

task tddft gradient

dft
xc hyb_gga_xc_pbeh
end

task tddft gradient
================================================================================


                                         
                                         


             Northwest Computational Chemistry Package (NWChem) 7.0.1
             --------------------------------------------------------


                    Environmental Molecular Sciences Laboratory
                       Pacific Northwest National Laboratory
                                Richland, WA 99352

                              Copyright (c) 1994-2020
                       Pacific Northwest National Laboratory
                            Battelle Memorial Institute

             NWChem is an open-source computational chemistry package
                        distributed under the terms of the
                      Educational Community License (ECL) 2.0
             A copy of the license is included with this distribution
                              in the LICENSE.TXT file

                                  ACKNOWLEDGMENT
                                  --------------

            This software and its documentation were developed at the
            EMSL at Pacific Northwest National Laboratory, a multiprogram
            national laboratory, operated for the U.S. Department of Energy
            by Battelle under Contract Number DE-AC05-76RL01830. Support
            for this work was provided by the Department of Energy Office
            of Biological and Environmental Research, Office of Basic
            Energy Sciences, and the Office of Advanced Scientific Computing.


           Job information
           ---------------

    hostname        = WE40672
    program         = /Users/edo/nwchem/nwchem/bin/MACX64/nwchem
    date            = Fri Jul  2 17:39:17 2021

    compiled        = Tue_Jun_29_16:39:45_2021
    source          = /Users/edo/nwchem/nwchem
    nwchem branch   = 7.0.0
    nwchem revision = nwchem_on_git-2706-g6b694a93b3
    ga revision     = 5.8.0
    use scalapack   = F
    input           = /Users/edo/nwchem/nwchem/QA/tests/libxc_tddftgrad_h2/libxc_tddftgrad_h2.nw
    prefix          = h2.
    data base       = ./h2.db
    status          = startup
    nproc           =        1
    time left       =     -1s



           Memory information
           ------------------

    heap     =   13107196 doubles =    100.0 Mbytes
    stack    =   13107201 doubles =    100.0 Mbytes
    global   =   26214400 doubles =    200.0 Mbytes (distinct from heap & stack)
    total    =   52428797 doubles =    400.0 Mbytes
    verify   = yes
    hardfail = no 


           Directory information
           ---------------------

  0 permanent = .
  0 scratch   = .




                                NWChem Input Module
                                -------------------


                                        H2
                                        --

 Scaling coordinates for geometry "geometry" by  1.889725989
 (inverse scale =  0.529177249)

 Turning off AUTOSYM since
 SYMMETRY directive was detected!


          ------
          auto-z
          ------
  no constraints, skipping    0.0000000000000000     
  no constraints, skipping    0.0000000000000000     


                             Geometry "geometry" -> ""
                             -------------------------

 Output coordinates in angstroms (scale by  1.889725989 to convert to a.u.)

  No.       Tag          Charge          X              Y              Z
 ---- ---------------- ---------- -------------- -------------- --------------
    1 H                    1.0000     0.00000000     0.00000000    -0.36497975
    2 H                    1.0000     0.00000000     0.00000000     0.36497975

      Atomic Mass 
      ----------- 

      H                  1.007825


 Effective nuclear repulsion energy (a.u.)       0.7249405604

            Nuclear Dipole moment (a.u.) 
            ----------------------------
        X                 Y               Z
 ---------------- ---------------- ----------------
     0.0000000000     0.0000000000     0.0000000000

      Symmetry information
      --------------------

 Group name             C2v       
 Group number             16
 Group order               4
 No. of unique centers     2

      Symmetry unique atoms

     1    2



                                Z-matrix (autoz)
                                -------- 

 Units are Angstrom for bonds and degrees for angles

      Type          Name      I     J     K     L     M      Value
      ----------- --------  ----- ----- ----- ----- ----- ----------
    1 Stretch                  1     2                       0.72996


            XYZ format geometry
            -------------------
     2
 geometry
 H                     0.00000000     0.00000000    -0.36497975
 H                     0.00000000     0.00000000     0.36497975



 Summary of "ao basis" -> "" (cartesian)
 ------------------------------------------------------------------------------
       Tag                 Description            Shells   Functions and Types
 ---------------- ------------------------------  ------  ---------------------
 *                           6-31G                    on all atoms 


 tddft_input: filename not found; default name will be used
 10nheap value is              13107196

                                 NWChem DFT Module
                                 -----------------


                                        H2


                      Basis "ao basis" -> "ao basis" (cartesian)
                      -----
  H (Hydrogen)
  ------------
            Exponent  Coefficients 
       -------------- ---------------------------------------------------------
  1 S  1.87311370E+01  0.033495
  1 S  2.82539370E+00  0.234727
  1 S  6.40121700E-01  0.813757

  2 S  1.61277800E-01  1.000000



 Summary of "ao basis" -> "ao basis" (cartesian)
 ------------------------------------------------------------------------------
       Tag                 Description            Shells   Functions and Types
 ---------------- ------------------------------  ------  ---------------------
 H                           6-31G                   2        2   2s




 Summary of "ao basis" -> "ao basis" (cartesian)
 ------------------------------------------------------------------------------
       Tag                 Description            Shells   Functions and Types
 ---------------- ------------------------------  ------  ---------------------
 H                           6-31G                   2        2   2s


      Symmetry analysis of basis
      --------------------------

        a1          4
        a2          0
        b1          0
        b2          0

  Caching 1-el integrals 

            General Information
            -------------------
          SCF calculation type: DFT
          Wavefunction type:  closed shell.
          No. of atoms     :     2
          No. of electrons :     2
           Alpha electrons :     1
            Beta electrons :     1
          Charge           :     0
          Spin multiplicity:     1
          Use of symmetry is: off; symmetry adaption is: on 
          Maximum number of iterations:  50
          AO basis - number of functions:     4
                     number of shells:     4
          Convergence on energy requested:  1.00D-06
          Convergence on density requested:  1.00D-05
          Convergence on gradient requested:  5.00D-04

              XC Information
              --------------
                         PBE0 Method XC Functional
                     Hartree-Fock (Exact) Exchange  0.250          
          PerdewBurkeErnzerhof Exchange Functional  0.750          
            Perdew 1991 LDA Correlation Functional  1.000 local    
           PerdewBurkeErnz. Correlation Functional  1.000 non-local

             Grid Information
             ----------------
          Grid used for XC integration:  medium    
          Radial quadrature: Mura-Knowles        
          Angular quadrature: Lebedev. 
          Tag              B.-S. Rad. Rad. Pts. Rad. Cut. Ang. Pts.
          ---              ---------- --------- --------- ---------
          H                   0.35       45           5.0       434
          Grid pruning is: on 
          Number of quadrature shells:    90
          Spatial weights used:  Erf1

          Convergence Information
          -----------------------
          Convergence aids based upon iterative change in 
          total energy or number of iterations. 
          Levelshifting, if invoked, occurs when the 
          HOMO/LUMO gap drops below (HL_TOL):  1.00D-02
          DIIS, if invoked, will attempt to extrapolate 
          using up to (NFOCK): 10 stored Fock matrices.

                    Damping( 0%)  Levelshifting(0.5)       DIIS
                  --------------- ------------------- ---------------
          dE  on:    start            ASAP                start   
          dE off:    2 iters         50 iters            50 iters 


      Screening Tolerance Information
      -------------------------------
          Density screening/tol_rho:  1.00D-10
          AO Gaussian exp screening on grid/accAOfunc:  14
          CD Gaussian exp screening on grid/accCDfunc:  20
          XC Gaussian exp screening on grid/accXCfunc:  20
          Schwarz screening/accCoul:  1.00D-08


      Superposition of Atomic Density Guess
      -------------------------------------

 Sum of atomic energies:          -0.99646508

      Non-variational initial energy
      ------------------------------

 Total energy =      -0.847394
 1-e energy   =      -2.230586
 2-e energy   =       0.658251
 HOMO         =      -0.586448
 LUMO         =       0.178256


      Symmetry analysis of molecular orbitals - initial
      -------------------------------------------------

  Numbering of irreducible representations: 

     1 a1          2 a2          3 b1          4 b2      

  Orbital symmetries:

     1 a1          2 a1          3 a1          4 a1      

   Time after variat. SCF:      0.0
   Time prior to 1st pass:      0.0

 Grid_pts file          = ./h2.gridpts.0
 Record size in doubles =  12289        No. of grid_pts per rec  =   3070
 Max. records in memory =     15        Max. recs in file   = *********


           Memory utilization after 1st SCF pass: 
           Heap Space remaining (MW):        6.63             6630668
          Stack Space remaining (MW):       13.11            13107060

   convergence    iter        energy       DeltaE   RMS-Dens  Diis-err    time
 ---------------- ----- ----------------- --------- --------- ---------  ------
 d= 0,ls=0.0,diis     1     -1.1619247384 -1.89D+00  1.93D-02  8.53D-03     0.1
 d= 0,ls=0.0,diis     2     -1.1637388386 -1.81D-03  1.91D-03  1.00D-04     0.1
 d= 0,ls=0.0,diis     3     -1.1637605149 -2.17D-05  3.14D-07  1.25D-10     0.1
  Singularity in Pulay matrix. Error and Fock matrices removed. 
  Singularity in Pulay matrix. Error and Fock matrices removed. 
 d= 0,ls=0.0,diis     4     -1.1637605149 -7.35D-12  1.82D-06  9.10D-11     0.1


         Total DFT energy =       -1.163760514921
      One electron energy =       -2.509768891568
           Coulomb energy =        1.316171483134
    Exchange-Corr. energy =       -0.695103666887
 Nuclear repulsion energy =        0.724940560401

 Numeric. integr. density =        1.999999937126

     Total iterative time =      0.1s



                  Occupations of the irreducible representations
                  ----------------------------------------------

                     irrep           alpha         beta
                     --------     --------     --------
                     a1                1.0          1.0
                     a2                0.0          0.0
                     b1                0.0          0.0
                     b2                0.0          0.0


                       DFT Final Molecular Orbital Analysis
                       ------------------------------------

 Vector    1  Occ=2.000000D+00  E=-4.445184D-01  Symmetry=a1
              MO Center=  0.0D+00,  0.0D+00, -5.9D-10, r^2= 7.1D-01
   Bfn.  Coefficient  Atom+Function         Bfn.  Coefficient  Atom+Function  
  ----- ------------  ---------------      ----- ------------  ---------------
     1      0.333174  1 H  s                  3      0.333174  2 H  s          
     2      0.265131  1 H  s                  4      0.265131  2 H  s          

 Vector    2  Occ=0.000000D+00  E= 1.189397D-01  Symmetry=a1
              MO Center=  0.0D+00,  0.0D+00,  4.4D-10, r^2= 1.9D+00
   Bfn.  Coefficient  Atom+Function         Bfn.  Coefficient  Atom+Function  
  ----- ------------  ---------------      ----- ------------  ---------------
     2      1.672664  1 H  s                  4     -1.672664  2 H  s          
     1      0.175474  1 H  s                  3     -0.175474  2 H  s          

 Vector    3  Occ=0.000000D+00  E= 6.002237D-01  Symmetry=a1
              MO Center=  0.0D+00,  0.0D+00, -6.9D-10, r^2= 1.6D+00
   Bfn.  Coefficient  Atom+Function         Bfn.  Coefficient  Atom+Function  
  ----- ------------  ---------------      ----- ------------  ---------------
     1      0.759841  1 H  s                  3      0.759841  2 H  s          
     2     -0.687238  1 H  s                  4     -0.687238  2 H  s          

 Vector    4  Occ=0.000000D+00  E= 1.153841D+00  Symmetry=a1
              MO Center=  0.0D+00,  0.0D+00,  8.4D-10, r^2= 1.1D+00
   Bfn.  Coefficient  Atom+Function         Bfn.  Coefficient  Atom+Function  
  ----- ------------  ---------------      ----- ------------  ---------------
     2      1.440302  1 H  s                  4     -1.440302  2 H  s          
     1     -1.123869  1 H  s                  3      1.123869  2 H  s          


 center of mass
 --------------
 x =   0.00000000 y =   0.00000000 z =   0.00000000

 moments of inertia (a.u.)
 ------------------
           0.958849250615           0.000000000000           0.000000000000
           0.000000000000           0.958849250615           0.000000000000
           0.000000000000           0.000000000000           0.000000000000

     Multipole analysis of the density
     ---------------------------------

     L   x y z        total         alpha         beta         nuclear
     -   - - -        -----         -----         ----         -------
     0   0 0 0     -0.000000     -1.000000     -1.000000      2.000000

     1   1 0 0      0.000000      0.000000      0.000000      0.000000
     1   0 1 0      0.000000      0.000000      0.000000      0.000000
     1   0 0 1      0.000000      0.000000      0.000000      0.000000

     2   2 0 0     -1.486610     -0.743305     -0.743305      0.000000
     2   1 1 0      0.000000      0.000000      0.000000      0.000000
     2   1 0 1      0.000000      0.000000      0.000000      0.000000
     2   0 2 0     -1.486610     -0.743305     -0.743305      0.000000
     2   0 1 1      0.000000      0.000000      0.000000      0.000000
     2   0 0 2     -1.180067     -1.065736     -1.065736      0.951405

                                NWChem TDDFT Module
                                -------------------


                                        H2


            General Information
            -------------------
           No. of orbitals :       8
            Alpha orbitals :       4
             Beta orbitals :       4
        Alpha frozen cores :       0
         Beta frozen cores :       0
     Alpha frozen virtuals :       0
      Beta frozen virtuals :       0
         Spin multiplicity :       1
    Number of AO functions :       4
        Use of symmetry is : off
      Symmetry adaption is : on 
         Schwarz screening :  0.10D-07

              XC Information
              --------------
                  PBE0 Method XC Functional
              Hartree-Fock (Exact) Exchange   0.25          
   PerdewBurkeErnzerhof Exchange Functional   0.75          
     Perdew 1991 LDA Correlation Functional   1.00 local    
    PerdewBurkeErnz. Correlation Functional   1.00 non-local

             TDDFT Information
             -----------------
          Calculation type : TDDFT             
         Wavefunction type : Restricted singlets
          No. of electrons :       2
           Alpha electrons :       1
            Beta electrons :       1
              No. of roots :       5
          Max subspacesize :    5000
            Max iterations :     100
               Target root :       1
           Target symmetry : none
      Symmetry restriction : off
                 Algorithm : Optimal
        Davidson threshold :  0.10D-03

            Memory Information
            ------------------
          Available GA space size is          26214384 doubles
          Available MA space size is          19922260 doubles
          Length of a trial vector is            3
          Algorithm : Incore multiple tensor contraction
          Estimated peak GA usage is             60734 doubles
          Estimated peak MA usage is             18000 doubles

    3 smallest eigenvalue differences (eV) 
--------------------------------------------------------
  No. Spin  Occ  Vir  Irrep   E(Occ)    E(Vir)   E(Diff)
--------------------------------------------------------
    1    1    1    2 a1       -0.445     0.119    15.332
    2    1    1    3 a1       -0.445     0.600    28.429
    3    1    1    4 a1       -0.445     1.154    43.494
--------------------------------------------------------
          Number of roots decreased from         5 to    3

  Entering Davidson iterations
  Restricted singlet excited states

  Iter   NTrls   NConv    DeltaV     DeltaE      Time   
  ----  ------  ------  ---------  ---------  --------- 
    1      3       3     0.27E-09   0.10+100        0.0
  ----  ------  ------  ---------  ---------  --------- 
  Convergence criterion met

  Ground state a1         -1.163760514921 a.u.

  ----------------------------------------------------------------------------
  Root   1 singlet a1             0.547529230 a.u.               14.8990 eV 
  ----------------------------------------------------------------------------
     Transition Moments    X  0.00000   Y  0.00000   Z  1.30171
     Transition Moments   XX -0.00000  XY  0.00000  XZ  0.00000
     Transition Moments   YY -0.00000  YZ  0.00000  ZZ -0.00000
     Dipole Oscillator Strength                    0.6185114132
     Electric Quadrupole                           0.0000000000
     Magnetic Dipole                               0.0000000000
     Total Oscillator Strength                     0.6185114132

     Occ.    1  a1  ---  Virt.    2  a1   1.00083 X
     Occ.    1  a1  ---  Virt.    2  a1  -0.07258 Y
     Occ.    1  a1  ---  Virt.    4  a1   0.07423 X
  ----------------------------------------------------------------------------
  Root   2 singlet a1             1.043449022 a.u.               28.3937 eV 
  ----------------------------------------------------------------------------
     Transition Moments    X  0.00000   Y  0.00000   Z -0.00000
     Transition Moments   XX  1.14711  XY  0.00000  XZ  0.00000
     Transition Moments   YY  1.14711  YZ  0.00000  ZZ  1.07350
     Dipole Oscillator Strength                    0.0000000000
     Electric Quadrupole                           0.0000000109
     Magnetic Dipole                               0.0000000000
     Total Oscillator Strength                     0.0000000109

     Occ.    1  a1  ---  Virt.    3  a1   1.00139 X
     Occ.    1  a1  ---  Virt.    3  a1  -0.05279 Y
  ----------------------------------------------------------------------------
  Root   3 singlet a1             1.587689192 a.u.               43.2032 eV 
  ----------------------------------------------------------------------------
     Transition Moments    X  0.00000   Y  0.00000   Z -0.27100
     Transition Moments   XX  0.00000  XY  0.00000  XZ  0.00000
     Transition Moments   YY  0.00000  YZ  0.00000  ZZ -0.00000
     Dipole Oscillator Strength                    0.0777325944
     Electric Quadrupole                           0.0000000000
     Magnetic Dipole                               0.0000000000
     Total Oscillator Strength                     0.0777325944

     Occ.    1  a1  ---  Virt.    2  a1  -0.07963 X
     Occ.    1  a1  ---  Virt.    2  a1   0.05224 Y
     Occ.    1  a1  ---  Virt.    4  a1   0.99900 X

              Target root =      1
          Target symmetry = none
      Ground state energy =     -1.163760514921
        Excitation energy =      0.547529230210
     Excited state energy =     -0.616231284710

  stored tddft:energy  -0.61623128471042499     
 fn_civecs: ./h2.civecs_singlet                                                                                                                                                                                                                                            

  CI vectors are stored in ./h2.civecs_singlet             


                           NWChem TDDFT Gradient Module
                           ----------------------------


 ./h2.civecs_singlet                                                                                                                                                                                                                                            
                                        H2


 Calculated gradients of:
 Number of Singlet roots   1
 Singlet roots    1

 Start at time  cpu:        0.2s  wall:        0.2s

 nroot:                     1
TDDFT Energy Check(  1) =       0.54752922996623


Iterative solution of linear equations
  No. of variables        3
  No. of equations        1
  Maximum subspace       40
        Iterations      250
       Convergence  1.0D-04
        Start time      0.4


   iter   nsub   residual    time
   ----  ------  --------  ---------
     1      1    3.67D-02       0.4
     2      2    1.91D-10       0.4

     Multipole analysis of the density
     ---------------------------------

     L   x y z        total
     -   - - -        -----
     0   0 0 0     -0.000000

     1   1 0 0      0.000000
     1   0 1 0      0.000000
     1   0 0 1      0.000000

     2   2 0 0     -1.945524
     2   1 1 0      0.000000
     2   1 0 1      0.000000
     2   0 2 0     -1.945524
     2   0 1 1      0.000000
     2   0 0 2     -4.503833


     No. of electrons (tr(P*S)):     0.2000000E+01



                         Root   1

                         TDDFT ENERGY GRADIENTS

    atom               coordinates                        gradient
                 x          y          z           x          y          z
   1 H       0.000000   0.000000  -0.689712    0.000000  -0.000000   0.203464
   2 H       0.000000   0.000000   0.689712   -0.000000  -0.000000  -0.203464

 TDDFT Gradient time  cpu:        0.4s  wall:        0.4s

 Task  times  cpu:        0.6s     wall:        0.6s


                                NWChem Input Module
                                -------------------


 10nheap value is               6815100

                                 NWChem DFT Module
                                 -----------------


                                        H2




 Summary of "ao basis" -> "ao basis" (cartesian)
 ------------------------------------------------------------------------------
       Tag                 Description            Shells   Functions and Types
 ---------------- ------------------------------  ------  ---------------------
 H                           6-31G                   2        2   2s


      Symmetry analysis of basis
      --------------------------

        a1          4
        a2          0
        b1          0
        b2          0

  Caching 1-el integrals 

            General Information
            -------------------
          SCF calculation type: DFT
          Wavefunction type:  closed shell.
          No. of atoms     :     2
          No. of electrons :     2
           Alpha electrons :     1
            Beta electrons :     1
          Charge           :     0
          Spin multiplicity:     1
          Use of symmetry is: off; symmetry adaption is: on 
          Maximum number of iterations:  50
          AO basis - number of functions:     4
                     number of shells:     4
          Convergence on energy requested:  1.00D-06
          Convergence on density requested:  1.00D-05
          Convergence on gradient requested:  5.00D-04

              XC Information
              --------------
          Using LibXC version      5.1.5
                     Hartree-Fock (Exact) Exchange  0.250          
                                   hyb_gga_xc_pbeh  1.000

             Grid Information
             ----------------
          Grid used for XC integration:  medium    
          Radial quadrature: Mura-Knowles        
          Angular quadrature: Lebedev. 
          Tag              B.-S. Rad. Rad. Pts. Rad. Cut. Ang. Pts.
          ---              ---------- --------- --------- ---------
          H                   0.35       45           5.0       434
          Grid pruning is: on 
          Number of quadrature shells:    90
          Spatial weights used:  Erf1

          Convergence Information
          -----------------------
          Convergence aids based upon iterative change in 
          total energy or number of iterations. 
          Levelshifting, if invoked, occurs when the 
          HOMO/LUMO gap drops below (HL_TOL):  1.00D-02
          DIIS, if invoked, will attempt to extrapolate 
          using up to (NFOCK): 10 stored Fock matrices.

                    Damping( 0%)  Levelshifting(0.5)       DIIS
                  --------------- ------------------- ---------------
          dE  on:    start            ASAP                start   
          dE off:    2 iters         50 iters            50 iters 


      Screening Tolerance Information
      -------------------------------
          Density screening/tol_rho:  1.00D-10
          AO Gaussian exp screening on grid/accAOfunc:  14
          CD Gaussian exp screening on grid/accCDfunc:  20
          XC Gaussian exp screening on grid/accXCfunc:  20
          Schwarz screening/accCoul:  1.00D-08


 Loading old vectors from job with title :

H2


      Symmetry analysis of molecular orbitals - initial
      -------------------------------------------------

  Numbering of irreducible representations: 

     1 a1          2 a2          3 b1          4 b2      

  Orbital symmetries:

     1 a1          2 a1          3 a1          4 a1      

   Time after variat. SCF:      0.6
   Time prior to 1st pass:      0.6

 Grid_pts file          = ./h2.gridpts.0
 Record size in doubles =  12289        No. of grid_pts per rec  =   3070
 Max. records in memory =     15        Max. recs in file   = *********


           Memory utilization after 1st SCF pass: 
           Heap Space remaining (MW):        6.63             6630668
          Stack Space remaining (MW):       13.11            13107060

   convergence    iter        energy       DeltaE   RMS-Dens  Diis-err    time
 ---------------- ----- ----------------- --------- --------- ---------  ------
 d= 0,ls=0.0,diis     1     -1.1637605149 -1.89D+00  5.18D-10  2.44D-18     0.7
  Singularity in Pulay matrix. Error and Fock matrices removed. 
 d= 0,ls=0.0,diis     2     -1.1637605149 -2.22D-16  1.46D-10  3.16D-19     0.7


         Total DFT energy =       -1.163760514916
      One electron energy =       -2.509770777822
           Coulomb energy =        1.316175419609
    Exchange-Corr. energy =       -0.695105717104
 Nuclear repulsion energy =        0.724940560401

 Numeric. integr. density =        1.999999937126

     Total iterative time =      0.1s



                  Occupations of the irreducible representations
                  ----------------------------------------------

                     irrep           alpha         beta
                     --------     --------     --------
                     a1                1.0          1.0
                     a2                0.0          0.0
                     b1                0.0          0.0
                     b2                0.0          0.0


                       DFT Final Molecular Orbital Analysis
                       ------------------------------------

 Vector    1  Occ=2.000000D+00  E=-4.445184D-01  Symmetry=a1
              MO Center=  0.0D+00,  0.0D+00, -6.1D-11, r^2= 7.1D-01
   Bfn.  Coefficient  Atom+Function         Bfn.  Coefficient  Atom+Function  
  ----- ------------  ---------------      ----- ------------  ---------------
     1      0.333174  1 H  s                  3      0.333174  2 H  s          
     2      0.265131  1 H  s                  4      0.265131  2 H  s          

 Vector    2  Occ=0.000000D+00  E= 1.189397D-01  Symmetry=a1
              MO Center=  0.0D+00,  0.0D+00,  4.4D-11, r^2= 1.9D+00
   Bfn.  Coefficient  Atom+Function         Bfn.  Coefficient  Atom+Function  
  ----- ------------  ---------------      ----- ------------  ---------------
     2      1.672664  1 H  s                  4     -1.672664  2 H  s          
     1      0.175474  1 H  s                  3     -0.175474  2 H  s          

 Vector    3  Occ=0.000000D+00  E= 6.002237D-01  Symmetry=a1
              MO Center=  0.0D+00,  0.0D+00, -8.7D-11, r^2= 1.6D+00
   Bfn.  Coefficient  Atom+Function         Bfn.  Coefficient  Atom+Function  
  ----- ------------  ---------------      ----- ------------  ---------------
     1      0.759841  1 H  s                  3      0.759841  2 H  s          
     2     -0.687238  1 H  s                  4     -0.687238  2 H  s          

 Vector    4  Occ=0.000000D+00  E= 1.153841D+00  Symmetry=a1
              MO Center=  0.0D+00,  0.0D+00,  1.0D-10, r^2= 1.1D+00
   Bfn.  Coefficient  Atom+Function         Bfn.  Coefficient  Atom+Function  
  ----- ------------  ---------------      ----- ------------  ---------------
     2      1.440302  1 H  s                  4     -1.440302  2 H  s          
     1     -1.123869  1 H  s                  3      1.123869  2 H  s          


 center of mass
 --------------
 x =   0.00000000 y =   0.00000000 z =   0.00000000

 moments of inertia (a.u.)
 ------------------
           0.958849250615           0.000000000000           0.000000000000
           0.000000000000           0.958849250615           0.000000000000
           0.000000000000           0.000000000000           0.000000000000

     Multipole analysis of the density
     ---------------------------------

     L   x y z        total         alpha         beta         nuclear
     -   - - -        -----         -----         ----         -------
     0   0 0 0     -0.000000     -1.000000     -1.000000      2.000000

     1   1 0 0      0.000000      0.000000      0.000000      0.000000
     1   0 1 0      0.000000      0.000000      0.000000      0.000000
     1   0 0 1      0.000000      0.000000      0.000000      0.000000

     2   2 0 0     -1.486610     -0.743305     -0.743305      0.000000
     2   1 1 0      0.000000      0.000000      0.000000      0.000000
     2   1 0 1      0.000000      0.000000      0.000000      0.000000
     2   0 2 0     -1.486610     -0.743305     -0.743305      0.000000
     2   0 1 1      0.000000      0.000000      0.000000      0.000000
     2   0 0 2     -1.180067     -1.065736     -1.065736      0.951405

                                NWChem TDDFT Module
                                -------------------


                                        H2


            General Information
            -------------------
           No. of orbitals :       8
            Alpha orbitals :       4
             Beta orbitals :       4
        Alpha frozen cores :       0
         Beta frozen cores :       0
     Alpha frozen virtuals :       0
      Beta frozen virtuals :       0
         Spin multiplicity :       1
    Number of AO functions :       4
        Use of symmetry is : off
      Symmetry adaption is : on 
         Schwarz screening :  0.10D-07

              XC Information
              --------------
          Using LibXC version      5.1.5
              Hartree-Fock (Exact) Exchange   0.25          
                                   hyb_gga_xc_pbeh  1.000

             TDDFT Information
             -----------------
          Calculation type : TDDFT             
         Wavefunction type : Restricted singlets
          No. of electrons :       2
           Alpha electrons :       1
            Beta electrons :       1
              No. of roots :       3
          Max subspacesize :    4600
            Max iterations :     100
               Target root :       1
           Target symmetry : none
      Symmetry restriction : off
                 Algorithm : Optimal
        Davidson threshold :  0.10D-03

            Memory Information
            ------------------
          Available GA space size is          26214384 doubles
          Available MA space size is          19922260 doubles
          Length of a trial vector is            3
          Algorithm : Incore multiple tensor contraction
          Estimated peak GA usage is             55666 doubles
          Estimated peak MA usage is              6600 doubles

    3 smallest eigenvalue differences (eV) 
--------------------------------------------------------
  No. Spin  Occ  Vir  Irrep   E(Occ)    E(Vir)   E(Diff)
--------------------------------------------------------
    1    1    1    2 a1       -0.445     0.119    15.332
    2    1    1    3 a1       -0.445     0.600    28.429
    3    1    1    4 a1       -0.445     1.154    43.494
--------------------------------------------------------

  Entering Davidson iterations
  Restricted singlet excited states

  Iter   NTrls   NConv    DeltaV     DeltaE      Time   
  ----  ------  ------  ---------  ---------  --------- 
    1      3       3     0.27E-09   0.10+100        0.1
  ----  ------  ------  ---------  ---------  --------- 
  Convergence criterion met

  Ground state a1         -1.163760514916 a.u.

  ----------------------------------------------------------------------------
  Root   1 singlet a1             0.547529230 a.u.               14.8990 eV 
  ----------------------------------------------------------------------------
     Transition Moments    X  0.00000   Y  0.00000   Z  1.30171
     Transition Moments   XX -0.00000  XY  0.00000  XZ  0.00000
     Transition Moments   YY -0.00000  YZ  0.00000  ZZ -0.00000
     Dipole Oscillator Strength                    0.6185114132
     Electric Quadrupole                           0.0000000000
     Magnetic Dipole                               0.0000000000
     Total Oscillator Strength                     0.6185114132

     Occ.    1  a1  ---  Virt.    2  a1   1.00083 X
     Occ.    1  a1  ---  Virt.    2  a1  -0.07258 Y
     Occ.    1  a1  ---  Virt.    4  a1   0.07423 X
  ----------------------------------------------------------------------------
  Root   2 singlet a1             1.043449022 a.u.               28.3937 eV 
  ----------------------------------------------------------------------------
     Transition Moments    X  0.00000   Y  0.00000   Z  0.00000
     Transition Moments   XX  1.14711  XY  0.00000  XZ  0.00000
     Transition Moments   YY  1.14711  YZ  0.00000  ZZ  1.07350
     Dipole Oscillator Strength                    0.0000000000
     Electric Quadrupole                           0.0000000109
     Magnetic Dipole                               0.0000000000
     Total Oscillator Strength                     0.0000000109

     Occ.    1  a1  ---  Virt.    3  a1   1.00139 X
     Occ.    1  a1  ---  Virt.    3  a1  -0.05279 Y
  ----------------------------------------------------------------------------
  Root   3 singlet a1             1.587689192 a.u.               43.2032 eV 
  ----------------------------------------------------------------------------
     Transition Moments    X  0.00000   Y  0.00000   Z -0.27100
     Transition Moments   XX  0.00000  XY  0.00000  XZ  0.00000
     Transition Moments   YY  0.00000  YZ  0.00000  ZZ -0.00000
     Dipole Oscillator Strength                    0.0777325944
     Electric Quadrupole                           0.0000000000
     Magnetic Dipole                               0.0000000000
     Total Oscillator Strength                     0.0777325944

     Occ.    1  a1  ---  Virt.    2  a1  -0.07963 X
     Occ.    1  a1  ---  Virt.    2  a1   0.05224 Y
     Occ.    1  a1  ---  Virt.    4  a1   0.99900 X

              Target root =      1
          Target symmetry = none
      Ground state energy =     -1.163760514916
        Excitation energy =      0.547529230271
     Excited state energy =     -0.616231284645

  stored tddft:energy  -0.61623128464460442     
 fn_civecs: ./h2.civecs_singlet                                                                                                                                                                                                                                            

  CI vectors are stored in ./h2.civecs_singlet             


                           NWChem TDDFT Gradient Module
                           ----------------------------


 ./h2.civecs_singlet                                                                                                                                                                                                                                            
                                        H2


 Calculated gradients of:
 Number of Singlet roots   1
 Singlet roots    1

 Start at time  cpu:        0.7s  wall:        0.7s

 nroot:                     1
TDDFT Energy Check(  1) =       0.54752923002723


Iterative solution of linear equations
  No. of variables        3
  No. of equations        1
  Maximum subspace       40
        Iterations      250
       Convergence  1.0D-04
        Start time      1.0


   iter   nsub   residual    time
   ----  ------  --------  ---------
     1      1    3.67D-02       1.0
     2      2    1.91D-10       1.0

     Multipole analysis of the density
     ---------------------------------

     L   x y z        total
     -   - - -        -----
     0   0 0 0     -0.000000

     1   1 0 0      0.000000
     1   0 1 0      0.000000
     1   0 0 1      0.000000

     2   2 0 0     -1.945524
     2   1 1 0      0.000000
     2   1 0 1      0.000000
     2   0 2 0     -1.945524
     2   0 1 1      0.000000
     2   0 0 2     -4.503833


     No. of electrons (tr(P*S)):     0.2000000E+01



                         Root   1

                         TDDFT ENERGY GRADIENTS

    atom               coordinates                        gradient
                 x          y          z           x          y          z
   1 H       0.000000   0.000000  -0.689712    0.000000  -0.000000   0.203464
   2 H       0.000000   0.000000   0.689712   -0.000000  -0.000000  -0.203464

 TDDFT Gradient time  cpu:        0.5s  wall:        0.5s

 Task  times  cpu:        0.7s     wall:        0.7s
 Summary of allocated global arrays
-----------------------------------
  No active global arrays



                         GA Statistics for process    0
                         ------------------------------

       create   destroy   get      put      acc     scatter   gather  read&inc
calls: 1068     1058     3.18e+04 2205     1.80e+04  152        0      393     
number of processes/call 2.38e+14 4.84e+14 6.15e+13 0.00e+00 0.00e+00
bytes total:             1.09e+06 1.17e+05 6.70e+05 1.28e+02 0.00e+00 3.14e+03
bytes remote:            0.00e+00 0.00e+00 0.00e+00 0.00e+00 0.00e+00 0.00e+00
Max memory consumed for GA by this process: 363600 bytes
MA_summarize_allocated_blocks: starting scan ...
heap block 'gridpts', handle 82, address 0x7fc8afc01398:
	type of elements:		double precision
	number of elements:		6291456
	address of client space:	0x7fc8afc01400
	index for client space:		17561905149293
	total number of bytes:		50331760
MA_summarize_allocated_blocks: scan completed: 1 heap block, 0 stack blocks
MA usage statistics:

	allocation statistics:
					      heap	     stack
					      ----	     -----
	current number of blocks	         1	         0
	maximum number of blocks	        22	       112
	current total bytes		  50331760	         0
	maximum total bytes		  51811832	  22509736
	maximum total K-bytes		     51812	     22510
	maximum total M-bytes		        52	        23


                                NWChem Input Module
                                -------------------





                                     CITATION
                                     --------
                Please cite the following reference when publishing
                           results obtained with NWChem:

          E. Apra, E. J. Bylaska, W. A. de Jong, N. Govind, K. Kowalski,
       T. P. Straatsma, M. Valiev, H. J. J. van Dam, Y. Alexeev, J. Anchell,
       V. Anisimov, F. W. Aquino, R. Atta-Fynn, J. Autschbach, N. P. Bauman,
     J. C. Becca, D. E. Bernholdt, K. Bhaskaran-Nair, S. Bogatko, P. Borowski,
         J. Boschen, J. Brabec, A. Bruner, E. Cauet, Y. Chen, G. N. Chuev,
      C. J. Cramer, J. Daily, M. J. O. Deegan, T. H. Dunning Jr., M. Dupuis,
   K. G. Dyall, G. I. Fann, S. A. Fischer, A. Fonari, H. Fruchtl, L. Gagliardi,
      J. Garza, N. Gawande, S. Ghosh, K. Glaesemann, A. W. Gotz, J. Hammond,
       V. Helms, E. D. Hermes, K. Hirao, S. Hirata, M. Jacquelin, L. Jensen,
   B. G. Johnson, H. Jonsson, R. A. Kendall, M. Klemm, R. Kobayashi, V. Konkov,
      S. Krishnamoorthy, M. Krishnan, Z. Lin, R. D. Lins, R. J. Littlefield,
      A. J. Logsdail, K. Lopata, W. Ma, A. V. Marenich, J. Martin del Campo,
   D. Mejia-Rodriguez, J. E. Moore, J. M. Mullin, T. Nakajima, D. R. Nascimento,
    J. A. Nichols, P. J. Nichols, J. Nieplocha, A. Otero-de-la-Roza, B. Palmer,
    A. Panyala, T. Pirojsirikul, B. Peng, R. Peverati, J. Pittner, L. Pollack,
   R. M. Richard, P. Sadayappan, G. C. Schatz, W. A. Shelton, D. W. Silverstein,
   D. M. A. Smith, T. A. Soares, D. Song, M. Swart, H. L. Taylor, G. S. Thomas,
            V. Tipparaju, D. G. Truhlar, K. Tsemekhman, T. Van Voorhis,
      A. Vazquez-Mayagoitia, P. Verma, O. Villa, A. Vishnu, K. D. Vogiatzis,
        D. Wang, J. H. Weare, M. J. Williamson, T. L. Windus, K. Wolinski,
        A. T. Wong, Q. Wu, C. Yang, Q. Yu, M. Zacharias, Z. Zhang, Y. Zhao,
                                and R. J. Harrison
                        "NWChem: Past, present, and future
                         J. Chem. Phys. 152, 184102 (2020)
                               doi:10.1063/5.0004997

                                      AUTHORS
                                      -------
     E. Apra, E. J. Bylaska, N. Govind, K. Kowalski, M. Valiev, W. A. de Jong,
      T. P. Straatsma, H. J. J. van Dam, D. Wang, T. L. Windus, N. P. Bauman,
       A. Panyala, J. Hammond, J. Autschbach, K. Bhaskaran-Nair, J. Brabec,
    K. Lopata, S. A. Fischer, S. Krishnamoorthy, M. Jacquelin, W. Ma, M. Klemm,
       O. Villa, Y. Chen, V. Anisimov, F. Aquino, S. Hirata, M. T. Hackler,
           Eric Hermes, L. Jensen, J. E. Moore, J. C. Becca, V. Konjkov,
            D. Mejia-Rodriguez, T. Risthaus, M. Malagoli, A. Marenich,
   A. Otero-de-la-Roza, J. Mullin, P. Nichols, R. Peverati, J. Pittner, Y. Zhao,
        P.-D. Fan, A. Fonari, M. J. Williamson, R. J. Harrison, J. R. Rehr,
      M. Dupuis, D. Silverstein, D. M. A. Smith, J. Nieplocha, V. Tipparaju,
      M. Krishnan, B. E. Van Kuiken, A. Vazquez-Mayagoitia, M. Swart, Q. Wu,
   T. Van Voorhis, A. A. Auer, M. Nooijen, L. D. Crosby, E. Brown, G. Cisneros,
     G. I. Fann, H. Fruchtl, J. Garza, K. Hirao, R. A. Kendall, J. A. Nichols,
       K. Tsemekhman, K. Wolinski, J. Anchell, D. E. Bernholdt, P. Borowski,
       T. Clark, D. Clerc, H. Dachsel, M. J. O. Deegan, K. Dyall, D. Elwood,
      E. Glendening, M. Gutowski, A. C. Hess, J. Jaffe, B. G. Johnson, J. Ju,
        R. Kobayashi, R. Kutteh, Z. Lin, R. Littlefield, X. Long, B. Meng,
      T. Nakajima, S. Niu, L. Pollack, M. Rosing, K. Glaesemann, G. Sandrone,
      M. Stave, H. Taylor, G. Thomas, J. H. van Lenthe, A. T. Wong, Z. Zhang.

 Total times  cpu:        1.3s     wall:        1.3s
