 argument  1 = h10_3.6.nw



============================== echo of input deck ==============================
start h10_3.6

#permanent_dir /dtemp/emsls50086

echo

geometry units bohr
symmetry c1
H   0.0   0.0   0.0
H   3.6   0.0   0.0
H   7.2   0.0   0.0
H  10.8   0.0   0.0
H  14.4   0.0   0.0
H  18.0   0.0   0.0
H  21.6   0.0   0.0
H  25.2   0.0   0.0
H  28.8   0.0   0.0
H  32.4   0.0   0.0
end

basis
 * library sto-6g
end

scf
thresh 1.0e-10
tol2e 1.0e-10
singlet
rhf
end

tce
ccsd
thresh 1.0e-6
maxiter 1000
tilesize 1
2eorb
2emet 13
end

set tce:print_integrals T
set tce:qorb  10
set tce:qela  5
set tce:qelb  5

task tce energy



================================================================================


                                         
                                         


              Northwest Computational Chemistry Package (NWChem) 6.8
              ------------------------------------------------------


                    Environmental Molecular Sciences Laboratory
                       Pacific Northwest National Laboratory
                                Richland, WA 99352

                              Copyright (c) 1994-2018
                       Pacific Northwest National Laboratory
                            Battelle Memorial Institute

             NWChem is an open-source computational chemistry package
                        distributed under the terms of the
                      Educational Community License (ECL) 2.0
             A copy of the license is included with this distribution
                              in the LICENSE.TXT file

                                  ACKNOWLEDGMENT
                                  --------------

            This software and its documentation were developed at the
            EMSL at Pacific Northwest National Laboratory, a multiprogram
            national laboratory, operated for the U.S. Department of Energy
            by Battelle under Contract Number DE-AC05-76RL01830. Support
            for this work was provided by the Department of Energy Office
            of Biological and Environmental Research, Office of Basic
            Energy Sciences, and the Office of Advanced Scientific Computing.


           Job information
           ---------------

    hostname        = WE33103
    program         = ../../../bin/MACX64/nwchem
    date            = Mon Dec  3 14:53:40 2018

    compiled        = Mon_Dec_03_14:40:38_2018
    source          = /Users/sriram/code/nwchem
    nwchem branch   = Development
    nwchem revision = nwchem_on_git-704-g72889b618
    ga revision     = 5.6.5
    use scalapack   = F
    input           = h10_3.6.nw
    prefix          = h10_3.6.
    data base       = ./h10_3.6.db
    status          = startup
    nproc           =        1
    time left       =     -1s



           Memory information
           ------------------

    heap     =   13107196 doubles =    100.0 Mbytes
    stack    =   13107201 doubles =    100.0 Mbytes
    global   =   26214400 doubles =    200.0 Mbytes (distinct from heap & stack)
    total    =   52428797 doubles =    400.0 Mbytes
    verify   = yes
    hardfail = no 


           Directory information
           ---------------------

  0 permanent = .
  0 scratch   = .




                                NWChem Input Module
                                -------------------


 Turning off AUTOSYM since
 SYMMETRY directive was detected!


          ------
          auto-z
          ------
     1 autoz failed with cvr_scaling = 1.2 changing to 1.3
     2 autoz failed with cvr_scaling = 1.3 changing to 1.4
     3 autoz failed with cvr_scaling = 1.4 changing to 1.5
     4 autoz failed with cvr_scaling = 1.5 changing to 1.6
     5 autoz failed with cvr_scaling = 1.6 changing to 1.7

 AUTOZ failed to generate good internal coordinates.
 Cartesian coordinates will be used in optimizations.



                             Geometry "geometry" -> ""
                             -------------------------

 Output coordinates in a.u. (scale by  1.000000000 to convert to a.u.)

  No.       Tag          Charge          X              Y              Z
 ---- ---------------- ---------- -------------- -------------- --------------
    1 H                    1.0000   -16.20000000     0.00000000     0.00000000
    2 H                    1.0000   -12.60000000     0.00000000     0.00000000
    3 H                    1.0000    -9.00000000     0.00000000     0.00000000
    4 H                    1.0000    -5.40000000     0.00000000     0.00000000
    5 H                    1.0000    -1.80000000     0.00000000     0.00000000
    6 H                    1.0000     1.80000000     0.00000000     0.00000000
    7 H                    1.0000     5.40000000     0.00000000     0.00000000
    8 H                    1.0000     9.00000000     0.00000000     0.00000000
    9 H                    1.0000    12.60000000     0.00000000     0.00000000
   10 H                    1.0000    16.20000000     0.00000000     0.00000000

      Atomic Mass 
      ----------- 

      H                  1.007825


 Effective nuclear repulsion energy (a.u.)       5.3582451499

            Nuclear Dipole moment (a.u.) 
            ----------------------------
        X                 Y               Z
 ---------------- ---------------- ----------------
     0.0000000000     0.0000000000     0.0000000000


            XYZ format geometry
            -------------------
    10
 geometry
 H                    -8.57267143     0.00000000     0.00000000
 H                    -6.66763334     0.00000000     0.00000000
 H                    -4.76259524     0.00000000     0.00000000
 H                    -2.85755714     0.00000000     0.00000000
 H                    -0.95251905     0.00000000     0.00000000
 H                     0.95251905     0.00000000     0.00000000
 H                     2.85755714     0.00000000     0.00000000
 H                     4.76259524     0.00000000     0.00000000
 H                     6.66763334     0.00000000     0.00000000
 H                     8.57267143     0.00000000     0.00000000



 Summary of "ao basis" -> "" (cartesian)
 ------------------------------------------------------------------------------
       Tag                 Description            Shells   Functions and Types
 ---------------- ------------------------------  ------  ---------------------
 *                           sto-6g                   on all atoms 


                      Basis "ao basis" -> "ao basis" (cartesian)
                      -----
  H (Hydrogen)
  ------------
            Exponent  Coefficients 
       -------------- ---------------------------------------------------------
  1 S  3.55232212E+01  0.009164
  1 S  6.51314373E+00  0.049361
  1 S  1.82214290E+00  0.168538
  1 S  6.25955266E-01  0.370563
  1 S  2.43076747E-01  0.416492
  1 S  1.00112428E-01  0.130334



 Summary of "ao basis" -> "ao basis" (cartesian)
 ------------------------------------------------------------------------------
       Tag                 Description            Shells   Functions and Types
 ---------------- ------------------------------  ------  ---------------------
 H                           sto-6g                  1        1   1s


                                 NWChem SCF Module
                                 -----------------



  ao basis        = "ao basis"
  functions       =    10
  atoms           =    10
  closed shells   =     5
  open shells     =     0
  charge          =   0.00
  wavefunction    = RHF 
  input vectors   = atomic
  output vectors  = ./h10_3.6.movecs
  use symmetry    = F
  symmetry adapt  = F


 Summary of "ao basis" -> "ao basis" (cartesian)
 ------------------------------------------------------------------------------
       Tag                 Description            Shells   Functions and Types
 ---------------- ------------------------------  ------  ---------------------
 H                           sto-6g                  1        1   1s



 Forming initial guess at       0.0s


      Superposition of Atomic Density Guess
      -------------------------------------

 Sum of atomic energies:          -4.71039054

      Non-variational initial energy
      ------------------------------

 Total energy =      -2.826876
 1-e energy   =     -15.423265
 2-e energy   =       7.238143
 HOMO         =      -0.108398
 LUMO         =      -0.057870


 Starting SCF solution at       0.1s



 ----------------------------------------------
         Quadratically convergent ROHF

 Convergence threshold     :          1.000E-10
 Maximum no. of iterations :           30
 Final Fock-matrix accuracy:          1.000E-10
 ----------------------------------------------


 #quartets = 8.070D+02 #integrals = 7.950D+02 #direct =  0.0% #cached =100.0%


 Integral file          = ./h10_3.6.aoints.0
 Record size in doubles =  65536        No. of integs per rec  =  43688
 Max. records in memory =      2        Max. records in file   = 261754
 No. of bits per label  =      8        No. of bits per value  =     64


              iter       energy          gnorm     gmax       time
             ----- ------------------- --------- --------- --------
                 1       -4.0829331944  1.40D-01  8.06D-02      0.2
                 2       -4.1045480903  2.45D-02  1.34D-02      0.2
                 3       -4.1049318268  5.24D-04  2.68D-04      0.2
                 4       -4.1049319812  1.84D-07  1.65D-07      0.2
                 5       -4.1049319812  7.71D-13  5.14D-13      0.2


       Final RHF  results 
       ------------------ 

         Total SCF energy =     -4.104931981190
      One-electron energy =    -15.973603198480
      Two-electron energy =      6.510426067379
 Nuclear repulsion energy =      5.358245149912

        Time for solution =      0.1s


             Final eigenvalues
             -----------------

              1      
    1   -0.3595
    2   -0.3390
    3   -0.3056
    4   -0.2608
    5   -0.2114
    6    0.0176
    7    0.0775
    8    0.1377
    9    0.1876
   10    0.2205

                       ROHF Final Molecular Orbital Analysis
                       -------------------------------------

 Vector    1  Occ=2.000000D+00  E=-3.595276D-01
              MO Center=  6.9D-11,  0.0D+00,  0.0D+00, r^2= 1.5D+01
   Bfn.  Coefficient  Atom+Function         Bfn.  Coefficient  Atom+Function  
  ----- ------------  ---------------      ----- ------------  ---------------
     5      0.372952   5 H  s                 6      0.372952   6 H  s         
     4      0.336662   4 H  s                 7      0.336662   7 H  s         
     3      0.292084   3 H  s                 8      0.292084   8 H  s         
     2      0.195759   2 H  s                 9      0.195759   9 H  s         

 Vector    2  Occ=2.000000D+00  E=-3.389809D-01
              MO Center= -5.5D-11,  0.0D+00,  0.0D+00, r^2= 3.3D+01
   Bfn.  Coefficient  Atom+Function         Bfn.  Coefficient  Atom+Function  
  ----- ------------  ---------------      ----- ------------  ---------------
     3      0.364438   3 H  s                 8     -0.364438   8 H  s         
     2      0.339410   2 H  s                 9     -0.339410   9 H  s         
     4      0.298839   4 H  s                 7     -0.298839   7 H  s         
     1      0.246536   1 H  s                10     -0.246536  10 H  s         

 Vector    3  Occ=2.000000D+00  E=-3.056220D-01
              MO Center= -5.8D-12,  0.0D+00,  0.0D+00, r^2= 3.8D+01
   Bfn.  Coefficient  Atom+Function         Bfn.  Coefficient  Atom+Function  
  ----- ------------  ---------------      ----- ------------  ---------------
     2      0.385851   2 H  s                 9      0.385851   9 H  s         
     5     -0.363502   5 H  s                 6     -0.363502   6 H  s         
     1      0.343816   1 H  s                10      0.343816  10 H  s         

 Vector    4  Occ=2.000000D+00  E=-2.608283D-01
              MO Center=  2.7D-11,  0.0D+00,  0.0D+00, r^2= 3.9D+01
   Bfn.  Coefficient  Atom+Function         Bfn.  Coefficient  Atom+Function  
  ----- ------------  ---------------      ----- ------------  ---------------
     1      0.387315   1 H  s                10     -0.387315  10 H  s         
     4     -0.370651   4 H  s                 7      0.370651   7 H  s         
     2      0.317040   2 H  s                 9     -0.317040   9 H  s         
     3     -0.223329   3 H  s                 8      0.223329   8 H  s         

 Vector    5  Occ=2.000000D+00  E=-2.114168D-01
              MO Center= -3.8D-11,  0.0D+00,  0.0D+00, r^2= 2.6D+01
   Bfn.  Coefficient  Atom+Function         Bfn.  Coefficient  Atom+Function  
  ----- ------------  ---------------      ----- ------------  ---------------
     3      0.378279   3 H  s                 8      0.378279   8 H  s         
     5     -0.370605   5 H  s                 6     -0.370605   6 H  s         
     1     -0.307897   1 H  s                10     -0.307897  10 H  s         
     4      0.292085   4 H  s                 7      0.292085   7 H  s         
     2     -0.163741   2 H  s                 9     -0.163741   9 H  s         

 Vector    6  Occ=0.000000D+00  E= 1.759036D-02
              MO Center=  3.7D-11,  0.0D+00,  0.0D+00, r^2= 2.6D+01
   Bfn.  Coefficient  Atom+Function         Bfn.  Coefficient  Atom+Function  
  ----- ------------  ---------------      ----- ------------  ---------------
     3      0.400025   3 H  s                 8     -0.400025   8 H  s         
     5     -0.384764   5 H  s                 6      0.384764   6 H  s         
     1     -0.328508   1 H  s                10      0.328508  10 H  s         
     4     -0.292038   4 H  s                 7      0.292038   7 H  s         

 Vector    7  Occ=0.000000D+00  E= 7.750370D-02
              MO Center= -2.5D-11,  0.0D+00,  0.0D+00, r^2= 3.9D+01
   Bfn.  Coefficient  Atom+Function         Bfn.  Coefficient  Atom+Function  
  ----- ------------  ---------------      ----- ------------  ---------------
     1      0.432529   1 H  s                10      0.432529  10 H  s         
     4      0.425718   4 H  s                 7      0.425718   7 H  s         
     2     -0.335806   2 H  s                 9     -0.335806   9 H  s         
     3     -0.239324   3 H  s                 8     -0.239324   8 H  s         
     5     -0.162128   5 H  s                 6     -0.162128   6 H  s         

 Vector    8  Occ=0.000000D+00  E= 1.377411D-01
              MO Center= -1.1D-11,  0.0D+00,  0.0D+00, r^2= 3.8D+01
   Bfn.  Coefficient  Atom+Function         Bfn.  Coefficient  Atom+Function  
  ----- ------------  ---------------      ----- ------------  ---------------
     2      0.458895   2 H  s                 9     -0.458895   9 H  s         
     5      0.434602   5 H  s                 6     -0.434602   6 H  s         
     1     -0.405457   1 H  s                10      0.405457  10 H  s         
     3     -0.180929   3 H  s                 8      0.180929   8 H  s         

 Vector    9  Occ=0.000000D+00  E= 1.876094D-01
              MO Center=  6.3D-11,  0.0D+00,  0.0D+00, r^2= 3.4D+01
   Bfn.  Coefficient  Atom+Function         Bfn.  Coefficient  Atom+Function  
  ----- ------------  ---------------      ----- ------------  ---------------
     3     -0.463124   3 H  s                 8     -0.463124   8 H  s         
     2      0.439844   2 H  s                 9      0.439844   9 H  s         
     4      0.366397   4 H  s                 7      0.366397   7 H  s         
     1     -0.306455   1 H  s                10     -0.306455  10 H  s         

 Vector   10  Occ=0.000000D+00  E= 2.205135D-01
              MO Center= -6.0D-11,  0.0D+00,  0.0D+00, r^2= 1.6D+01
   Bfn.  Coefficient  Atom+Function         Bfn.  Coefficient  Atom+Function  
  ----- ------------  ---------------      ----- ------------  ---------------
     5     -0.484364   5 H  s                 6      0.484364   6 H  s         
     4      0.443160   4 H  s                 7     -0.443160   7 H  s         
     3     -0.380686   3 H  s                 8      0.380686   8 H  s         
     2      0.268558   2 H  s                 9     -0.268558   9 H  s         
     1     -0.164077   1 H  s                10      0.164077  10 H  s         


 center of mass
 --------------
 x =   0.00000000 y =   0.00000000 z =   0.00000000

 moments of inertia (a.u.)
 ------------------
           0.000000000000           0.000000000000           0.000000000000
           0.000000000000        1077.566490000000           0.000000000000
           0.000000000000           0.000000000000        1077.566490000000

  Mulliken analysis of the total density
  --------------------------------------

    Atom       Charge   Shell Charges
 -----------   ------   -------------------------------------------------------
    1 H    1     0.99   0.99
    2 H    1     1.00   1.00
    3 H    1     1.00   1.00
    4 H    1     1.00   1.00
    5 H    1     1.00   1.00
    6 H    1     1.00   1.00
    7 H    1     1.00   1.00
    8 H    1     1.00   1.00
    9 H    1     1.00   1.00
   10 H    1     0.99   0.99

       Multipole analysis of the density wrt the origin
       ------------------------------------------------

     L   x y z        total         open         nuclear
     -   - - -        -----         ----         -------
     0   0 0 0     -0.000000      0.000000     10.000000

     1   1 0 0      0.000000      0.000000      0.000000
     1   0 1 0      0.000000      0.000000      0.000000
     1   0 0 1      0.000000      0.000000      0.000000

     2   2 0 0     -1.990463      0.000000   1069.200000
     2   1 1 0      0.000000      0.000000      0.000000
     2   1 0 1      0.000000      0.000000      0.000000
     2   0 2 0     -7.027736      0.000000      0.000000
     2   0 1 1      0.000000      0.000000      0.000000
     2   0 0 2     -7.027736      0.000000      0.000000


 Parallel integral file used       1 records with       0 large values

 ------------------------------------
     Number of active orbitals     10
     Number of active alpha electrons      5
     Number of active beta electrons       5
 ------------------------------------
                   NWChem Extensible Many-Electron Theory Module
                   ---------------------------------------------

              ======================================================
                   This portion of the program was automatically
                  generated by a Tensor Contraction Engine (TCE).
                  The development of this portion of the program
                 and TCE was supported by US Department of Energy,
                Office of Science, Office of Basic Energy Science.
                      TCE is a product of Battelle and PNNL.
              Please cite: S.Hirata, J.Phys.Chem.A 107, 9887 (2003).
              ======================================================

            General Information
            -------------------
      Number of processors :     1
         Wavefunction type : Restricted Hartree-Fock
          No. of electrons :    10
           Alpha electrons :     5
            Beta electrons :     5
           No. of orbitals :    20
            Alpha orbitals :    10
             Beta orbitals :    10
        Alpha frozen cores :     0
         Beta frozen cores :     0
     Alpha frozen virtuals :     0
      Beta frozen virtuals :     0
         Spin multiplicity : singlet 
    Number of AO functions :    10
       Number of AO shells :    10
        Use of symmetry is : off
      Symmetry adaption is : off
         Schwarz screening : 0.10D-09

          Correlation Information
          -----------------------
          Calculation type : Coupled-cluster singles & doubles                           
   Perturbative correction : none                                                        
            Max iterations :     1000
        Residual threshold : 0.10D-05
     T(0) DIIS level shift : 0.00D+00
     L(0) DIIS level shift : 0.00D+00
     T(1) DIIS level shift : 0.00D+00
     L(1) DIIS level shift : 0.00D+00
     T(R) DIIS level shift : 0.00D+00
     T(I) DIIS level shift : 0.00D+00
   CC-T/L Amplitude update :  5-th order DIIS
                I/O scheme : Global Array Library
        L-threshold :  0.10D-05
        EOM-threshold :  0.10D-05
 no EOMCCSD initial starts read in
 hftype RHF 
 TCE RESTART OPTIONS
 READ_INT:   F
 WRITE_INT:  F
 READ_TA:    F
 WRITE_TA:   F
 READ_XA:    F
 WRITE_XA:   F
 READ_IN3:   F
 WRITE_IN3:  F
 SLICE:      F
 D4D5:       F

            Memory Information
            ------------------
          Available GA space size is      26214300 doubles
          Available MA space size is      26212972 doubles

 Maximum block size supplied by input
 Maximum block size         1 doubles

 tile_dim =      1

 Block   Spin    Irrep     Size     Offset   Alpha
 -------------------------------------------------
   1    alpha     a      1 doubles       0       1
   2    alpha     a      1 doubles       1       2
   3    alpha     a      1 doubles       2       3
   4    alpha     a      1 doubles       3       4
   5    alpha     a      1 doubles       4       5
   6    beta      a      1 doubles       5       1
   7    beta      a      1 doubles       6       2
   8    beta      a      1 doubles       7       3
   9    beta      a      1 doubles       8       4
  10    beta      a      1 doubles       9       5
  11    alpha     a      1 doubles      10      11
  12    alpha     a      1 doubles      11      12
  13    alpha     a      1 doubles      12      13
  14    alpha     a      1 doubles      13      14
  15    alpha     a      1 doubles      14      15
  16    beta      a      1 doubles      15      11
  17    beta      a      1 doubles      16      12
  18    beta      a      1 doubles      17      13
  19    beta      a      1 doubles      18      14
  20    beta      a      1 doubles      19      15

 Global array virtual files algorithm will be used

 Parallel file system coherency ......... OK

 #quartets = 8.070D+02 #integrals = 7.950D+02 #direct =  0.0% #cached =100.0%


 Integral file          = ./h10_3.6.aoints.0
 Record size in doubles =  65536        No. of integs per rec  =  43688
 Max. records in memory =      2        Max. records in file   = 261754
 No. of bits per label  =      8        No. of bits per value  =     64


 Fock matrix recomputed
 1-e file size   =              100
 1-e file name   = ./h10_3.6.f1
 Cpu & wall time / sec            0.1            0.1
 4-electron integrals stored in orbital form

 v2    file size   =             1540
 4-index algorithm nr.  13 is used
 imaxsize =       30
 imaxsize ichop =        0
 begin_one_electron_integrals
    1    1        -1.7129203555
    3    1         0.0837108464
    5    1        -0.0264529173
    7    1         0.0199173353
    9    1        -0.0210487308
    2    2        -1.6172039125
    4    2         0.1184537800
    6    2        -0.0346166677
    8    2        -0.0479218359
   10    2        -0.0116901252
    1    3         0.0837108464
    3    3        -1.5608113685
    5    3        -0.1168714551
    7    3         0.0835389466
    9    3        -0.0315559272
    2    4         0.1184537800
    4    4        -1.5250502185
    6    4        -0.1111533885
    8    4        -0.0618203817
   10    4        -0.0167065395
    1    5        -0.0264529173
    3    5        -0.1168714551
    5    5        -1.5708157441
    7    5        -0.0889010327
    9    5         0.0302666986
    2    6        -0.0346166677
    4    6        -0.1111533885
    6    6        -1.5423549247
    8    6         0.1127214951
   10    6         0.0265811665
    1    7         0.0199173353
    3    7         0.0835389466
    5    7        -0.0889010327
    7    7        -1.4349974002
    9    7        -0.1184193618
    2    8        -0.0479218359
    4    8        -0.0618203817
    6    8         0.1127214951
    8    8        -1.4093249862
   10    8         0.0864367778
    1    9        -0.0210487308
    3    9        -0.0315559272
    5    9         0.0302666986
    7    9        -0.1184193618
    9    9        -1.4170906188
    2   10        -0.0116901252
    4   10        -0.0167065395
    6   10         0.0265811665
    8   10         0.0864367778
   10   10        -1.4854977614
 end_one_electron_integrals
 begin_two_electron_integrals
    1    1    1    1        0.2257345520
    2    1    2    1        0.0955377786
    3    1    1    1       -0.0510021017
    3    1    3    1        0.0752611813
    3    1    2    2        0.0260107226
    4    1    2    1       -0.0396400441
    4    1    4    1        0.0599014475
    4    1    3    2        0.0221604866
    5    1    1    1       -0.0008268423
    5    1    3    1        0.0338332265
    5    1    5    1        0.0701894251
    5    1    2    2        0.0338838185
    5    1    4    2       -0.0369734857
    5    1    3    3       -0.0353507986
    5    1    4    4        0.0131341002
    6    1    2    1       -0.0032535843
    6    1    4    1        0.0236409897
    6    1    6    1        0.0639625475
    6    1    3    2        0.0244800440
    6    1    5    2        0.0130999202
    6    1    4    3       -0.0172028122
    6    1    5    4       -0.0028475740
    7    1    1    1        0.0014872801
    7    1    3    1       -0.0071909185
    7    1    5    1        0.0155799064
    7    1    7    1        0.0409010420
    7    1    2    2       -0.0065019831
    7    1    4    2       -0.0176061881
    7    1    6    2       -0.0341198636
    7    1    3    3       -0.0174191012
    7    1    5    3       -0.0152840725
    7    1    4    4        0.0165044999
    7    1    6    4        0.0104577497
    7    1    5    5       -0.0027336613
    7    1    6    6       -0.0029257798
    8    1    2    1        0.0045294755
    8    1    4    1        0.0005499191
    8    1    6    1       -0.0235517035
    8    1    8    1        0.0400669902
    8    1    3    2        0.0022124891
    8    1    5    2       -0.0155928127
    8    1    7    2       -0.0161991018
    8    1    4    3        0.0157702526
    8    1    6    3        0.0309981838
    8    1    5    4        0.0148229640
    8    1    7    4       -0.0132476421
    8    1    6    5        0.0106244282
    8    1    7    6        0.0150378589
    9    1    1    1        0.0031577552
    9    1    3    1       -0.0013075175
    9    1    5    1        0.0011593764
    9    1    7    1        0.0211146890
    9    1    9    1        0.0383248408
    9    1    2    2        0.0009422131
    9    1    4    2        0.0009195778
    9    1    6    2       -0.0217256723
    9    1    8    2        0.0170941415
    9    1    3    3        0.0018115051
    9    1    5    3       -0.0144529053
    9    1    7    3       -0.0152568481
    9    1    4    4        0.0135390571
    9    1    6    4        0.0297372138
    9    1    8    4        0.0158020016
    9    1    5    5       -0.0121563756
    9    1    7    5        0.0300392290
    9    1    6    6       -0.0123400210
    9    1    8    6        0.0142948563
    9    1    7    7        0.0134874348
    9    1    8    8        0.0020501340
   10    1    2    1       -0.0016940833
   10    1    4    1       -0.0000930761
   10    1    6    1        0.0005713094
   10    1    8    1       -0.0200820753
   10    1   10    1        0.0563100857
   10    1    3    2       -0.0006864491
   10    1    5    2        0.0009871096
   10    1    7    2        0.0199947505
   10    1    9    2        0.0361263335
   10    1    4    3        0.0010675586
   10    1    6    3       -0.0206410156
   10    1    8    3        0.0351022343
   10    1    5    4       -0.0122513048
   10    1    7    4       -0.0328803782
   10    1    9    4       -0.0194032769
   10    1    6    5       -0.0476876400
   10    1    8    5        0.0201702067
   10    1    7    6       -0.0120899000
   10    1    9    6       -0.0008205659
   10    1    8    7       -0.0010959122
   10    1    9    8       -0.0007390683
    2    2    1    1        0.1739362559
    2    2    2    2        0.2009759177
    3    2    2    1        0.0565587369
    3    2    3    2        0.0816728007
    4    2    1    1       -0.0521066460
    4    2    3    1        0.0414395986
    4    2    2    2       -0.0099099528
    4    2    4    2        0.0799309947
    4    2    3    3        0.0301257509
    5    2    2    1        0.0407945188
    5    2    4    1       -0.0503941168
    5    2    3    2       -0.0091136528
    5    2    5    2        0.0624147397
    5    2    4    3       -0.0259527457
    6    2    1    1       -0.0036492762
    6    2    3    1        0.0303268448
    6    2    5    1        0.0268814770
    6    2    2    2        0.0281070893
    6    2    4    2       -0.0023933248
    6    2    6    2        0.0533063501
    6    2    3    3       -0.0030308954
    6    2    5    3        0.0056536507
    6    2    4    4       -0.0091295036
    6    2    5    5        0.0032613148
    7    2    2    1       -0.0081974686
    7    2    4    1       -0.0159721251
    7    2    6    1       -0.0400533461
    7    2    3    2       -0.0252547753
    7    2    5    2       -0.0060726428
    7    2    7    2        0.0569849268
    7    2    4    3        0.0038885390
    7    2    6    3       -0.0239346957
    7    2    5    4       -0.0090649923
    7    2    6    5       -0.0132659832
    8    2    1    1        0.0045947996
    8    2    3    1        0.0008646390
    8    2    5    1       -0.0189903006
    8    2    7    1       -0.0210982439
    8    2    2    2        0.0052244174
    8    2    4    2        0.0179785638
    8    2    6    2        0.0108312760
    8    2    8    2        0.0399749004
    8    2    3    3        0.0212308743
    8    2    5    3        0.0049128601
    8    2    7    3       -0.0287798254
    8    2    4    4       -0.0045900615
    8    2    6    4        0.0219318951
    8    2    5    5       -0.0082127254
    8    2    7    5        0.0218591486
    8    2    6    6       -0.0078950901
    8    2    7    7       -0.0053038157
    9    2    2    1        0.0009761700
    9    2    4    1        0.0015052630
    9    2    6    1       -0.0234863430
    9    2    8    1        0.0208021342
    9    2    3    2        0.0006733968
    9    2    5    2       -0.0160235425
    9    2    7    2        0.0037431137
    9    2    9    2        0.0578302704
    9    2    4    3        0.0164378031
    9    2    6    3        0.0100727598
    9    2    8    3        0.0337489968
    9    2    5    4        0.0041857587
    9    2    7    4       -0.0461530968
    9    2    6    5       -0.0379356461
    9    2    8    5       -0.0112248966
    9    2    7    6        0.0050268158
    9    2    8    7       -0.0165246689
   10    2    1    1        0.0036219364
   10    2    3    1       -0.0014786902
   10    2    5    1        0.0011174052
   10    2    7    1        0.0212728899
   10    2    9    1        0.0386860404
   10    2    2    2        0.0012596559
   10    2    4    2        0.0007877093
   10    2    6    2       -0.0219089466
   10    2    8    2        0.0171893141
   10    2   10    2        0.0393450084
   10    2    3    3        0.0022084865
   10    2    5    3       -0.0143349431
   10    2    7    3       -0.0152740023
   10    2    9    3        0.0182513239
   10    2    4    4        0.0140243863
   10    2    6    4        0.0300093570
   10    2    8    4        0.0163181224
   10    2    5    5       -0.0114996021
   10    2    7    5        0.0308469648
   10    2    9    5        0.0217439100
   10    2    6    6       -0.0125336556
   10    2    8    6        0.0144133609
   10    2    7    7        0.0139025459
   10    2    9    7       -0.0008527555
   10    2    8    8        0.0024133088
   10    2    9    9        0.0013082056
    3    3    1    1        0.1709355955
    3    3    3    1       -0.0046412162
    3    3    2    2        0.1664446355
    3    3    3    3        0.2011881527
    4    3    2    1        0.0531512850
    4    3    4    1        0.0144471290
    4    3    3    2        0.0681253385
    4    3    4    3        0.0833897297
    5    3    1    1        0.0534144524
    5    3    3    1       -0.0597711643
    5    3    5    1       -0.0144704161
    5    3    2    2       -0.0072000611
    5    3    4    2       -0.0495341494
    5    3    3    3        0.0007849843
    5    3    5    3        0.0693199550
    5    3    4    4       -0.0225326444
    6    3    2    1        0.0359201308
    6    3    4    1       -0.0345827685
    6    3    6    1       -0.0129807737
    6    3    3    2       -0.0011871290
    6    3    5    2        0.0286893182
    6    3    4    3       -0.0005772253
    6    3    6    3        0.0537396689
    6    3    5    4       -0.0007580101
    7    3    1    1       -0.0095654788
    7    3    3    1       -0.0197486014
    7    3    5    1       -0.0292637359
    7    3    7    1        0.0145252413
    7    3    2    2       -0.0296730130
    7    3    4    2        0.0126548712
    7    3    6    2       -0.0336184216
    7    3    3    3        0.0029186672
    7    3    5    3       -0.0027931746
    7    3    7    3        0.0520091363
    7    3    4    4       -0.0013380481
    7    3    6    4       -0.0211439758
    7    3    5    5        0.0034635368
    7    3    6    6        0.0029213740
    8    3    2    1        0.0013536430
    8    3    4    1        0.0176090790
    8    3    6    1        0.0392226033
    8    3    8    1       -0.0015923711
    8    3    3    2        0.0209286338
    8    3    5    2        0.0042617667
    8    3    7    2       -0.0375321602
    8    3    4    3       -0.0053430051
    8    3    6    3        0.0035213464
    8    3    8    3        0.0726384302
    8    3    5    4        0.0022683055
    8    3    7    4       -0.0394523660
    8    3    6    5       -0.0363821396
    8    3    7    6        0.0027164814
    9    3    1    1        0.0053527856
    9    3    3    1        0.0007736790
    9    3    5    1       -0.0189241658
    9    3    7    1       -0.0208788613
    9    3    9    1        0.0177416055
    9    3    2    2        0.0059247354
    9    3    4    2        0.0178459257
    9    3    6    2        0.0106200963
    9    3    8    2        0.0403217868
    9    3    3    3        0.0219506027
    9    3    5    3        0.0048714607
    9    3    7    3       -0.0290696143
    9    3    9    3        0.0413363928
    9    3    4    4       -0.0035926778
    9    3    6    4        0.0224043621
    9    3    8    4        0.0301052372
    9    3    5    5       -0.0072019174
    9    3    7    5        0.0231182951
    9    3    6    6       -0.0081522193
    9    3    8    6       -0.0057865573
    9    3    7    7       -0.0047510941
    9    3    8    8        0.0223790067
   10    3    2    1        0.0050000551
   10    3    4    1        0.0003669297
   10    3    6    1       -0.0237046218
   10    3    8    1        0.0401440964
   10    3   10    1       -0.0192209952
   10    3    3    2        0.0025590182
   10    3    5    2       -0.0154163133
   10    3    7    2       -0.0160037327
   10    3    9    2        0.0219950221
   10    3    4    3        0.0162098610
   10    3    6    3        0.0310289486
   10    3    8    3       -0.0006749080
   10    3   10    3        0.0407648378
   10    3    5    4        0.0140605333
   10    3    7    4       -0.0144262104
   10    3    9    4        0.0169264909
   10    3    6    5        0.0099650912
   10    3    8    5       -0.0321115827
   10    3    7    6        0.0151661003
   10    3    9    6        0.0155784336
   10    3    8    7       -0.0163754192
   10    3    9    8        0.0027725348
    4    4    1    1        0.1662074807
    4    4    3    1        0.0150079319
    4    4    2    2        0.1815101742
    4    4    4    2        0.0043992998
    4    4    3    3        0.1717898501
    4    4    4    4        0.1911474267
    5    4    2    1       -0.0777676566
    5    4    4    1        0.0169763121
    5    4    3    2       -0.0631925913
    5    4    5    2       -0.0206058198
    5    4    4    3       -0.0612732365
    5    4    5    4        0.0840220848
    6    4    1    1        0.0403740005
    6    4    3    1       -0.0405001891
    6    4    5    1       -0.0053758246
    6    4    2    2       -0.0016009238
    6    4    4    2       -0.0347702206
    6    4    6    2       -0.0155985586
    6    4    3    3        0.0012073305
    6    4    5    3        0.0327514546
    6    4    4    4       -0.0014619517
    6    4    6    4        0.0538035772
    6    4    5    5        0.0093861144
    7    4    2    1       -0.0231582483
    7    4    4    1        0.0345233757
    7    4    6    1        0.0121136982
    7    4    3    2        0.0131553800
    7    4    5    2       -0.0296177302
    7    4    7    2        0.0064781644
    7    4    4    3        0.0114671739
    7    4    6    3       -0.0351649057
    7    4    5    4       -0.0004253937
    7    4    7    4        0.0700307189
    7    4    6    5        0.0350227148
    8    4    1    1        0.0106400511
    8    4    3    1        0.0195297108
    8    4    5    1        0.0294008271
    8    4    7    1       -0.0143016780
    8    4    2    2        0.0305718546
    8    4    4    2       -0.0129870450
    8    4    6    2        0.0334584635
    8    4    8    2        0.0290074261
    8    4    3    3       -0.0020501144
    8    4    5    3        0.0029131243
    8    4    7    3       -0.0522664700
    8    4    4    4        0.0025535760
    8    4    6    4        0.0215976678
    8    4    8    4        0.0535213564
    8    4    5    5       -0.0020172992
    8    4    7    5        0.0223468455
    8    4    6    6       -0.0030114224
    8    4    7    7        0.0019598482
    9    4    2    1        0.0089577462
    9    4    4    1        0.0158547271
    9    4    6    1        0.0401197207
    9    4    8    1        0.0165436337
    9    4    3    2        0.0259487848
    9    4    5    2        0.0061621477
    9    4    7    2       -0.0574107209
    9    4    9    2       -0.0025369511
    9    4    4    3       -0.0030810523
    9    4    6    3        0.0242892657
    9    4    8    3        0.0389958972
    9    4    5    4        0.0081426227
    9    4    7    4       -0.0077978396
    9    4    9    4        0.0588295995
    9    4    6    5        0.0128774005
    9    4    8    5       -0.0248978114
    9    4    7    6        0.0089429508
    9    4    8    7        0.0043665112
   10    4    1    1       -0.0014651859
   10    4    3    1        0.0078256712
   10    4    5    1       -0.0153362619
   10    4    7    1       -0.0411825154
   10    4    9    1       -0.0206665089
   10    4    2    2        0.0071445673
   10    4    4    2        0.0180642180
   10    4    6    2        0.0344798617
   10    4    8    2        0.0220728357
   10    4   10    2       -0.0209499738
   10    4    3    3        0.0178740543
   10    4    5    3        0.0145822125
   10    4    7    3       -0.0156091342
   10    4    9    3        0.0219337670
   10    4    4    4       -0.0158690987
   10    4    6    4       -0.0101514002
   10    4    8    4        0.0154948722
   10    4   10    4        0.0422388736
   10    4    5    5        0.0025278387
   10    4    7    5       -0.0104950034
   10    4    9    5       -0.0357602511
   10    4    6    6        0.0028397235
   10    4    8    6       -0.0158210630
   10    4    7    7       -0.0172041213
   10    4    9    7       -0.0183530100
   10    4    8    8        0.0180734547
   10    4    9    9        0.0081864861
    5    5    1    1        0.2031946971
    5    5    3    1       -0.0267846937
    5    5    5    1        0.0019451861
    5    5    2    2        0.1765106559
    5    5    4    2       -0.0305509311
    5    5    3    3        0.1726523668
    5    5    5    3        0.0321693143
    5    5    4    4        0.1706518498
    5    5    5    5        0.1993260472
    6    5    2    1        0.0428536697
    6    5    4    1       -0.0066837972
    6    5    6    1        0.0009701993
    6    5    3    2        0.0364985140
    6    5    5    2        0.0076046348
    6    5    4    3        0.0342816580
    6    5    6    3        0.0177630522
    6    5    5    4       -0.0345527370
    6    5    6    5        0.0655139557
    7    5    1    1        0.0415040187
    7    5    3    1       -0.0410281278
    7    5    5    1       -0.0054731818
    7    5    7    1        0.0106847672
    7    5    2    2       -0.0009472496
    7    5    4    2       -0.0352178089
    7    5    6    2       -0.0159017390
    7    5    3    3        0.0020280589
    7    5    5    3        0.0332101276
    7    5    7    3       -0.0209368517
    7    5    4    4       -0.0004834424
    7    5    6    4        0.0541428875
    7    5    5    5        0.0109869561
    7    5    7    5        0.0554803889
    7    5    6    6        0.0101906379
    8    5    2    1       -0.0367908893
    8    5    4    1        0.0352322734
    8    5    6    1        0.0135456852
    8    5    8    1       -0.0313285303
    8    5    3    2        0.0009051188
    8    5    5    2       -0.0291227088
    8    5    7    2        0.0236252621
    8    5    4    3       -0.0000546159
    8    5    6    3       -0.0541967933
    8    5    8    3       -0.0040938176
    8    5    5    4        0.0018367006
    8    5    7    4        0.0365601671
    8    5    6    5       -0.0175295684
    8    5    8    5        0.0557844528
    8    5    7    6        0.0011773759
    9    5    1    1        0.0035340616
    9    5    3    1       -0.0310212567
    9    5    5    1       -0.0272227523
    9    5    7    1        0.0344919431
    9    5    9    1        0.0213966812
    9    5    2    2       -0.0288981127
    9    5    4    2        0.0019496929
    9    5    6    2       -0.0538576196
    9    5    8    2       -0.0118157275
    9    5    3    3        0.0024958934
    9    5    5    3       -0.0049243000
    9    5    7    3        0.0348797346
    9    5    9    3       -0.0116698709
    9    5    4    4        0.0083844782
    9    5    6    4        0.0153613418
    9    5    8    4       -0.0348542788
    9    5    5    5       -0.0031494223
    9    5    7    5        0.0158282579
    9    5    9    5        0.0555700608
    9    5    6    6       -0.0034758631
    9    5    8    6        0.0055657691
    9    5    7    7        0.0093585589
    9    5    8    8        0.0034643634
   10    5    2    1        0.0031296087
   10    5    4    1       -0.0242129369
   10    5    6    1       -0.0647676910
   10    5    8    1        0.0232292001
   10    5   10    1       -0.0003444194
   10    5    3    2       -0.0251428120
   10    5    5    2       -0.0126492081
   10    5    7    2        0.0414616018
   10    5    9    2        0.0235233417
   10    5    4    3        0.0167260069
   10    5    6    3        0.0126572130
   10    5    8    3       -0.0405833381
   10    5   10    3        0.0236606652
   10    5    5    4        0.0026824165
   10    5    7    4       -0.0120826404
   10    5    9    4       -0.0419046050
   10    5    6    5       -0.0011200400
   10    5    8    5       -0.0134287892
   10    5   10    5        0.0669369629
   10    5    7    6        0.0030674259
   10    5    9    6        0.0139127202
   10    5    8    7       -0.0185206006
   10    5    9    8       -0.0266477279
    6    6    1    1        0.2045708044
    6    6    3    1       -0.0274134919
    6    6    5    1        0.0019174059
    6    6    2    2        0.1771800599
    6    6    4    2       -0.0311754946
    6    6    6    2        0.0034124194
    6    6    3    3        0.1731695037
    6    6    5    3        0.0328711890
    6    6    4    4        0.1707827373
    6    6    6    4        0.0101514540
    6    6    5    5        0.1994325876
    6    6    6    6        0.2023138610
    7    6    2    1       -0.0785417893
    7    6    4    1        0.0176075570
    7    6    6    1       -0.0030970740
    7    6    3    2       -0.0632851848
    7    6    5    2       -0.0213953249
    7    6    7    2       -0.0087314087
    7    6    4    3       -0.0610223734
    7    6    6    3       -0.0013884795
    7    6    5    4        0.0840314459
    7    6    7    4       -0.0006700994
    7    6    6    5       -0.0351573610
    7    6    7    6        0.0859104427
    8    6    1    1       -0.0543917722
    8    6    3    1        0.0608471043
    8    6    5    1        0.0154896272
    8    6    7    1        0.0156016393
    8    6    2    2        0.0073317123
    8    6    4    2        0.0495542315
    8    6    6    2       -0.0052136949
    8    6    8    2       -0.0058591366
    8    6    3    3       -0.0016455003
    8    6    5    3       -0.0699404355
    8    6    7    3        0.0030976057
    8    6    4    4        0.0223096072
    8    6    6    4       -0.0338030649
    8    6    8    4       -0.0032123384
    8    6    5    5       -0.0325302852
    8    6    7    5       -0.0340396022
    8    6    6    6       -0.0336812786
    8    6    8    6        0.0722063784
    8    6    7    7        0.0224450185
    9    6    2    1       -0.0417662470
    9    6    4    1        0.0511856740
    9    6    6    1       -0.0134598047
    9    6    8    1        0.0154280575
    9    6    3    2        0.0089349532
    9    6    5    2       -0.0633534592
    9    6    7    2        0.0070336446
    9    6    9    2        0.0162170811
    9    6    4    3        0.0260417808
    9    6    6    3       -0.0299348504
    9    6    8    3       -0.0050456598
    9    6    5    4        0.0208169674
    9    6    7    4        0.0306571065
    9    6    9    4       -0.0072231911
    9    6    6    5       -0.0078793280
    9    6    8    5        0.0302209912
    9    6    7    6        0.0219869659
    9    6    9    6        0.0657935660
    9    6    8    7       -0.0265424080
   10    6    1    1        0.0006432309
   10    6    3    1       -0.0348229661
   10    6    5    1       -0.0719138666
   10    6    7    1       -0.0153875654
   10    6    9    1       -0.0009625379
   10    6    2    2       -0.0350832543
   10    6    4    2        0.0377447555
   10    6    6    2       -0.0284036271
   10    6    8    2        0.0192128134
   10    6   10    2       -0.0009267112
   10    6    3    3        0.0358484947
   10    6    5    3        0.0145274419
   10    6    7    3        0.0307043511
   10    6    9    3        0.0192382951
   10    6    4    4       -0.0133209391
   10    6    6    4        0.0055433568
   10    6    8    4       -0.0308869621
   10    6   10    4        0.0153937259
   10    6    5    5       -0.0021681797
   10    6    7    5        0.0056591382
   10    6    9    5        0.0288333746
   10    6    6    6       -0.0021637558
   10    6    8    6       -0.0158601320
   10    6   10    6        0.0753101658
   10    6    7    7       -0.0143601710
   10    6    9    7       -0.0398750752
   10    6    8    8        0.0382652394
   10    6    9    9       -0.0365147097
    7    7    1    1        0.1694910475
    7    7    3    1        0.0142762104
    7    7    5    1        0.0138799059
    7    7    7    1        0.0168909915
    7    7    2    2        0.1840845432
    7    7    4    2        0.0028120377
    7    7    6    2       -0.0089890629
    7    7    3    3        0.1735155313
    7    7    5    3       -0.0213418954
    7    7    7    3       -0.0013090826
    7    7    4    4        0.1931876488
    7    7    6    4       -0.0009684430
    7    7    5    5        0.1736748834
    7    7    7    5       -0.0002940219
    7    7    6    6        0.1747229359
    7    7    7    7        0.1974063248
    8    7    2    1       -0.0548494378
    8    7    4    1       -0.0135868819
    8    7    6    1        0.0179650227
    8    7    8    1       -0.0157990075
    8    7    3    2       -0.0690014470
    8    7    5    2        0.0252959134
    8    7    7    2       -0.0047680602
    8    7    4    3       -0.0845378228
    8    7    6    3        0.0003374424
    8    7    8    3        0.0064999828
    8    7    5    4        0.0630507395
    8    7    7    4       -0.0115752317
    8    7    6    5       -0.0353560043
    8    7    8    5        0.0002384526
    8    7    7    6        0.0632363358
    8    7    8    7        0.0874097816
    9    7    1    1        0.0540357431
    9    7    3    1       -0.0427106777
    9    7    5    1        0.0379318755
    9    7    7    1        0.0176949177
    9    7    9    1       -0.0009502015
    9    7    2    2        0.0105788502
    9    7    4    2       -0.0822948395
    9    7    6    2        0.0030074622
    9    7    8    2       -0.0181109595
    9    7    3    3       -0.0305635607
    9    7    5    3        0.0515003844
    9    7    7    3       -0.0137297645
    9    7    9    3       -0.0181012322
    9    7    4    4       -0.0046347309
    9    7    6    4        0.0363002422
    9    7    8    4        0.0140412110
    9    7    5    5        0.0317026826
    9    7    7    5        0.0367571535
    9    7    9    5       -0.0025857480
    9    7    6    6        0.0325556359
    9    7    8    6       -0.0519626127
    9    7    7    7       -0.0030923788
    9    7    9    7        0.0864171776
    9    7    8    8       -0.0321710088
   10    7    2    1        0.0416000839
   10    7    4    1       -0.0626046302
   10    7    6    1       -0.0243670818
   10    7    8    1       -0.0004636683
   10    7   10    1        0.0000093938
   10    7    3    2       -0.0228928595
   10    7    5    2        0.0531034710
   10    7    7    2        0.0162764092
   10    7    9    2       -0.0015563044
   10    7    4    3       -0.0153489989
   10    7    6    3        0.0367047812
   10    7    8    3       -0.0182183666
   10    7   10    3       -0.0002616650
   10    7    5    4       -0.0177367114
   10    7    7    4       -0.0366606933
   10    7    9    4       -0.0164167205
   10    7    6    5        0.0070587240
   10    7    8    5       -0.0375394931
   10    7   10    5        0.0255519085
   10    7    7    6       -0.0185586867
   10    7    9    6       -0.0545887635
   10    7    8    7        0.0146008044
   10    7   10    7        0.0669553098
   10    7    9    8       -0.0257153460
    8    8    1    1        0.1752729063
    8    8    3    1       -0.0055371807
    8    8    5    1       -0.0365796083
    8    8    7    1       -0.0173817836
    8    8    2    2        0.1699122825
    8    8    4    2        0.0305039740
    8    8    6    2       -0.0040187455
    8    8    8    2        0.0216182236
    8    8    3    3        0.2059633147
    8    8    5    3        0.0009957844
    8    8    7    3        0.0036951058
    8    8    4    4        0.1761677633
    8    8    6    4        0.0015079884
    8    8    8    4       -0.0028829671
    8    8    5    5        0.1772098277
    8    8    7    5        0.0022791308
    8    8    6    6        0.1782901386
    8    8    8    6       -0.0018605663
    8    8    7    7        0.1787193964
    8    8    8    8        0.2131094217
    9    8    2    1        0.0578142649
    9    8    4    1        0.0238939098
    9    8    6    1        0.0252261122
    9    8    8    1        0.0024331791
    9    8    3    2        0.0847737582
    9    8    5    2       -0.0107498855
    9    8    7    2       -0.0261266917
    9    8    9    2        0.0008227947
    9    8    4    3        0.0713303090
    9    8    6    3       -0.0020248776
    9    8    8    3        0.0218138574
    9    8    5    4       -0.0654100611
    9    8    7    4        0.0145443249
    9    8    9    4        0.0272069572
    9    8    6    5        0.0379550720
    9    8    8    5        0.0017547717
    9    8    7    6       -0.0658016923
    9    8    9    6        0.0106765932
    9    8    8    7       -0.0727314298
    9    8    9    8        0.0897891355
   10    8    1    1       -0.0539855311
   10    8    3    1        0.0789853647
   10    8    5    1        0.0343900408
   10    8    7    1       -0.0079343992
   10    8    9    1       -0.0015011755
   10    8    2    2        0.0267759580
   10    8    4    2        0.0447871402
   10    8    6    2        0.0316462446
   10    8    8    2        0.0012567310
   10    8   10    2       -0.0017105308
   10    8    3    3       -0.0041305301
   10    8    5    3       -0.0633231391
   10    8    7    3       -0.0203922611
   10    8    9    3        0.0011862333
   10    8    4    4        0.0158349693
   10    8    6    4       -0.0431707723
   10    8    8    4        0.0202599898
   10    8   10    4        0.0088480835
   10    8    5    5       -0.0284640483
   10    8    7    5       -0.0438438898
   10    8    9    5       -0.0328760380
   10    8    6    6       -0.0292185202
   10    8    8    6        0.0649087120
   10    8   10    6       -0.0360956608
   10    8    7    7        0.0150915383
   10    8    9    7       -0.0467292469
   10    8    8    8       -0.0050287964
   10    8   10    8        0.0846800425
   10    8    9    9        0.0301040113
    9    9    1    1        0.1781999028
    9    9    3    1        0.0281642819
    9    9    5    1        0.0345652457
    9    9    7    1       -0.0072470776
    9    9    9    1        0.0009565077
    9    9    2    2        0.2075120172
    9    9    4    2       -0.0083822975
    9    9    6    2        0.0294518576
    9    9    8    2        0.0059140748
    9    9    3    3        0.1725859126
    9    9    5    3       -0.0088885195
    9    9    7    3       -0.0309085570
    9    9    9    3        0.0067653031
    9    9    4    4        0.1880024028
    9    9    6    4       -0.0026835368
    9    9    8    4        0.0320836885
    9    9    5    5        0.1819953693
    9    9    7    5       -0.0019342438
    9    9    9    5       -0.0307993105
    9    9    6    6        0.1830447823
    9    9    8    6        0.0090605064
    9    9    7    7        0.1914356603
    9    9    9    7        0.0090498338
    9    9    8    8        0.1774161123
    9    9    9    9        0.2170109207
   10    9    2    1        0.1003292491
   10    9    4    1       -0.0407264798
   10    9    6    1       -0.0029888223
   10    9    8    1        0.0049236351
   10    9   10    1       -0.0018488155
   10    9    3    2        0.0604751302
   10    9    5    2        0.0422127088
   10    9    7    2       -0.0090825872
   10    9    9    2        0.0011992717
   10    9    4    3        0.0567858333
   10    9    6    3        0.0375551795
   10    9    8    3        0.0018940435
   10    9   10    3        0.0055911007
   10    9    5    4       -0.0823935105
   10    9    7    4       -0.0241219323
   10    9    9    4        0.0101158369
   10    9    6    5        0.0455560830
   10    9    8    5       -0.0388869168
   10    9   10    5        0.0029297430
   10    9    7    6       -0.0834910285
   10    9    9    6       -0.0437887376
   10    9    8    7       -0.0590835125
   10    9   10    7        0.0435529673
   10    9    9    8        0.0625748681
   10    9   10    9        0.1073396111
   10   10    1    1        0.2335348093
   10   10    3    1       -0.0520523131
   10   10    5    1       -0.0003356752
   10   10    7    1        0.0014064116
   10   10    9    1        0.0033586521
   10   10    2    2        0.1808240239
   10   10    4    2       -0.0538101099
   10   10    6    2       -0.0033031580
   10   10    8    2        0.0048894387
   10   10   10    2        0.0039802518
   10   10    3    3        0.1773426805
   10   10    5    3        0.0550104999
   10   10    7    3       -0.0103762273
   10   10    9    3        0.0058922166
   10   10    4    4        0.1728505053
   10   10    6    4        0.0417552720
   10   10    8    4        0.0117770403
   10   10   10    4       -0.0014198742
   10   10    5    5        0.2112514870
   10   10    7    5        0.0432936104
   10   10    9    5        0.0032475424
   10   10    6    6        0.2129882215
   10   10    8    6       -0.0564552001
   10   10   10    6        0.0001420713
   10   10    7    7        0.1771174018
   10   10    9    7        0.0565068448
   10   10    8    8        0.1832123160
   10   10   10    8       -0.0560157409
   10   10    9    9        0.1870813345
   10   10   10   10        0.2447900714
 end_two_electron_integrals
 enrep_tce =    5.3582451499118164     
  EHF(A)             =        -4.10493198
  EHF(total)         =        -4.10493198
  Shift (HFtot-HFA)  =        -0.00000000
 Cpu & wall time / sec            0.1            0.1
 T1-number-of-tasks                   25

 t1 file size   =               25
 t1 file name   = ./h10_3.6.t1
 t1 file handle =       -998
 T2-number-of-boxes                  850

 t2 file size   =              850
 t2 file name   = ./h10_3.6.t2
 t2 file handle =       -996

 CCSD iterations
 -----------------------------------------------------------------
 Iter          Residuum       Correlation     Cpu    Wall    V2*C2
 -----------------------------------------------------------------
    1   0.3222999988922  -0.3563023765563     8.4     8.4     0.2
    2   0.1640979320058  -0.5420304544352     8.5     8.5     0.2
    3   0.1104026253131  -0.6372517852470     8.4     8.4     0.2
    4   0.0982157077750  -0.6744553806152     8.5     8.5     0.2
    5   0.1112660304733  -0.6975124280764     8.4     8.4     0.2
 MICROCYCLE DIIS UPDATE:                    5                    5
    6   0.0586851774872  -0.7095562073207     8.5     8.5     0.2
    7   0.0600604019697  -0.7163461398282     8.4     8.4     0.2
    8   0.0634699364583  -0.7254421332302     8.4     8.4     0.2
    9   0.0702397582146  -0.7336710701530     8.5     8.5     0.2
   10   0.0794638950372  -0.7456221102554     8.5     8.5     0.2
 MICROCYCLE DIIS UPDATE:                   10                    5
   11   0.0582343940646  -0.6764864967687     8.5     8.5     0.2
   12   0.0530289336188  -0.6942008764393     8.6     8.6     0.2
   13   0.0513123152635  -0.7024001352746     8.7     8.7     0.2
   14   0.0518259047662  -0.7088759566961     8.6     8.6     0.2
   15   0.0556639487066  -0.7146455131351     8.5     8.5     0.2
 MICROCYCLE DIIS UPDATE:                   15                    5
   16   0.0488762032058  -0.7187441515633     8.6     8.6     0.2
   17   0.0511775828637  -0.7228881356780     8.4     8.4     0.2
   18   0.0547806229037  -0.7281811103464     8.5     8.5     0.2
   19   0.0604693787062  -0.7350954977434     8.5     8.5     0.2
   20   0.0695394617858  -0.7432886446744     8.5     8.5     0.2
 MICROCYCLE DIIS UPDATE:                   20                    5
   21   0.0593381852849  -0.6792770597359     8.5     8.5     0.2
   22   0.0479679072993  -0.7045773548438     8.5     8.5     0.2
   23   0.0472890186923  -0.7161136340843     8.5     8.5     0.2
   24   0.0508573951706  -0.7227122421639     8.6     8.6     0.2
   25   0.0628250963788  -0.7274907511967     8.8     8.8     0.2
 MICROCYCLE DIIS UPDATE:                   25                    5
   26   0.0400474063557  -0.7332842593656     8.5     8.5     0.2
   27   0.0416071965587  -0.7356198864771     8.5     8.5     0.2
   28   0.0442887713505  -0.7396435301958     8.5     8.5     0.2
   29   0.0479418711707  -0.7442572354412     8.6     8.6     0.2
   30   0.0527308599817  -0.7495759623199     8.7     8.7     0.2
 MICROCYCLE DIIS UPDATE:                   30                    5
   31   0.0591204067424  -0.6978459017601     8.5     8.5     0.2
   32   0.0378600970239  -0.7315881921878     8.4     8.4     0.2
   33   0.0341080695651  -0.7426094231818     8.5     8.5     0.2
   34   0.0366596560854  -0.7494719822747     8.6     8.6     0.2
   35   0.0471945105456  -0.7522548347321     8.5     8.5     0.2
 MICROCYCLE DIIS UPDATE:                   35                    5
   36   0.0273054626457  -0.7543801038002     8.5     8.5     0.2
   37   0.0286762996924  -0.7565219332542     8.5     8.5     0.2
   38   0.0306235266421  -0.7578938930120     8.5     8.5     0.2
   39   0.0332447048967  -0.7594921708153     8.5     8.5     0.2
   40   0.0364839486079  -0.7608161420300     8.6     8.6     0.2
 MICROCYCLE DIIS UPDATE:                   40                    5
   41   0.0311941019785  -0.7527978471498     8.4     8.4     0.2
   42   0.0225016314544  -0.7664473439002     8.4     8.4     0.2
   43   0.0197199626056  -0.7718251797026     8.5     8.5     0.2
   44   0.0196471925723  -0.7754262909354     8.5     8.5     0.2
   45   0.0235298510351  -0.7766186941576     8.5     8.5     0.2
 MICROCYCLE DIIS UPDATE:                   45                    5
   46   0.0154693000709  -0.7786026718574     8.5     8.5     0.2
   47   0.0162170025182  -0.7792681842329     8.4     8.4     0.2
   48   0.0172696843051  -0.7792591646742     8.3     8.3     0.2
   49   0.0186623485117  -0.7789247343778     8.4     8.4     0.2
   50   0.0202134166947  -0.7782760627042     8.5     8.5     0.2
 MICROCYCLE DIIS UPDATE:                   50                    5
   51   0.0145066307353  -0.7887390730161     8.4     8.4     0.2
   52   0.0118509691590  -0.7930674883228     8.5     8.5     0.2
   53   0.0115598563244  -0.7946619703564     8.4     8.4     0.2
   54   0.0133855972749  -0.7961121920432     8.4     8.4     0.2
   55   0.0186833574671  -0.7961492744256     8.4     8.4     0.2
 MICROCYCLE DIIS UPDATE:                   55                    5
   56   0.0084935599562  -0.7973854483005     8.4     8.4     0.2
   57   0.0087028242142  -0.7971515618173     8.4     8.4     0.2
   58   0.0091385329266  -0.7967394282226     8.4     8.4     0.1
   59   0.0097771390104  -0.7962011525551     8.4     8.4     0.2
   60   0.0105199319833  -0.7954208328674     8.4     8.4     0.2
 MICROCYCLE DIIS UPDATE:                   60                    5
   61   0.0063801725997  -0.8077132334422     8.4     8.4     0.2
   62   0.0038871309493  -0.8113994503374     8.4     8.4     0.2
   63   0.0039600484208  -0.8121049614830     8.4     8.4     0.2
   64   0.0048582878068  -0.8122419254586     8.5     8.5     0.2
   65   0.0064704999506  -0.8117913686651     8.4     8.4     0.2
 MICROCYCLE DIIS UPDATE:                   65                    5
   66   0.0033607125814  -0.8116781248645     8.6     8.6     0.2
   67   0.0036160602098  -0.8122034222258     8.4     8.4     0.2
   68   0.0039421630295  -0.8120245503607     8.4     8.4     0.2
   69   0.0043239639867  -0.8116401997884     8.4     8.4     0.2
   70   0.0047057634640  -0.8110460561843     8.4     8.4     0.2
 MICROCYCLE DIIS UPDATE:                   70                    5
   71   0.0025756990020  -0.8183463712662     8.4     8.4     0.2
   72   0.0021500762709  -0.8183868201040     8.4     8.4     0.2
   73   0.0021012083088  -0.8183718560783     8.4     8.4     0.2
   74   0.0023409251637  -0.8183417796137     8.4     8.4     0.2
   75   0.0030188089196  -0.8181540251953     8.3     8.3     0.2
 MICROCYCLE DIIS UPDATE:                   75                    5
   76   0.0018501687229  -0.8184685852849     8.4     8.4     0.2
   77   0.0018959592849  -0.8184210725662     8.4     8.4     0.2
   78   0.0019762034749  -0.8182036691722     8.4     8.4     0.2
   79   0.0020996844610  -0.8179659189177     8.6     8.6     0.2
   80   0.0022504099130  -0.8176612113882     8.8     8.8     0.2
 MICROCYCLE DIIS UPDATE:                   80                    5
   81   0.0016809674281  -0.8197289075663     8.5     8.5     0.2
   82   0.0016277771539  -0.8196677467623     8.5     8.5     0.2
   83   0.0017246869047  -0.8195446775453     8.6     8.6     0.2
   84   0.0020704802865  -0.8194328910606     8.5     8.5     0.2
   85   0.0028260361810  -0.8192143469338     8.4     8.4     0.2
 MICROCYCLE DIIS UPDATE:                   85                    5
   86   0.0013352258584  -0.8203641025335     8.6     8.6     0.2
   87   0.0012848442757  -0.8204739011439     8.4     8.4     0.2
   88   0.0013336008967  -0.8203249027834     8.6     8.6     0.1
   89   0.0014335019495  -0.8201700356880     8.5     8.5     0.2
   90   0.0015192453944  -0.8199502407816     8.5     8.5     0.2
 MICROCYCLE DIIS UPDATE:                   90                    5
   91   0.0011373465843  -0.8212544131712     8.5     8.5     0.2
   92   0.0011175521814  -0.8212378698352     8.7     8.7     0.2
   93   0.0011543311122  -0.8211480384894     8.9     8.9     0.2
   94   0.0012978832544  -0.8210509239960     8.3     8.3     0.1
   95   0.0015918515723  -0.8208973526300     8.4     8.4     0.2
 MICROCYCLE DIIS UPDATE:                   95                    5
   96   0.0008968687856  -0.8225234842773     8.3     8.3     0.1
   97   0.0008445772164  -0.8223817259453     8.3     8.3     0.2
   98   0.0009333335082  -0.8223125008832 13842.1 13842.1     0.2
   99   0.0011585046803  -0.8222012131271    17.5    17.5     0.3
  100   0.0015453526258  -0.8220974810740  9560.0  9560.0     0.2
 MICROCYCLE DIIS UPDATE:                  100                    5
  101   0.0007232700303  -0.8225051374361     9.2     9.2     0.2
  102   0.0007273135653  -0.8224445198307     8.7     8.7     0.2
  103   0.0007606694169  -0.8223574163485     8.4     8.4     0.1
  104   0.0008470328438  -0.8222602590941     8.3     8.3     0.1
  105   0.0010099419754  -0.8221450816202     9.1     9.1     0.2
 MICROCYCLE DIIS UPDATE:                  105                    5
  106   0.0006421127079  -0.8228947662931     9.5     9.5     0.2
  107   0.0006425848422  -0.8228363810286     9.6     9.6     0.2
  108   0.0006962136252  -0.8227814814802     9.7     9.7     0.2
  109   0.0008374710759  -0.8227008212697     8.9     8.9     0.1
  110   0.0010708603643  -0.8226134271982     8.4     8.4     0.2
 MICROCYCLE DIIS UPDATE:                  110                    5
  111   0.0005770852809  -0.8229669481202     8.8     8.8     0.2
  112   0.0005761280177  -0.8229301749459     8.6     8.6     0.2
  113   0.0005984249696  -0.8228657811719     8.4     8.4     0.1
  114   0.0006568510966  -0.8227907159942     8.9     8.9     0.2
  115   0.0007657203638  -0.8227001068517     8.9     8.9     0.2
 MICROCYCLE DIIS UPDATE:                  115                    5
  116   0.0005213581959  -0.8232753129017     8.8     8.8     0.2
  117   0.0005247454724  -0.8232223368889     9.5     9.5     0.2
  118   0.0005663262953  -0.8231710386391     8.5     8.5     0.2
  119   0.0006795242417  -0.8231045945839     8.4     8.4     0.1
  120   0.0008644943541  -0.8230304374118     8.4     8.4     0.2
 MICROCYCLE DIIS UPDATE:                  120                    5
  121   0.0004701027786  -0.8233351212856     8.4     8.4     0.2
  122   0.0004674524183  -0.8233026477334     9.1     9.1     0.2
  123   0.0004853871600  -0.8232475112555     8.7     8.7     0.2
  124   0.0005328436383  -0.8231848987480     9.3     9.3     0.2
  125   0.0006222911667  -0.8231100350133     9.2     9.2     0.2
 MICROCYCLE DIIS UPDATE:                  125                    5
  126   0.0004278597362  -0.8235419854815     8.7     8.7     0.2
  127   0.0004323491809  -0.8235003082995     8.6     8.6     0.2
  128   0.0004629597728  -0.8234557104737     8.8     8.8     0.2
  129   0.0005475776160  -0.8234002091274     8.6     8.6     0.2
  130   0.0006828827327  -0.8233371764132     8.7     8.7     0.2
 MICROCYCLE DIIS UPDATE:                  130                    5
  131   0.0003871867908  -0.8236177006700     8.8     8.8     0.2
  132   0.0003823603568  -0.8235916070187     8.6     8.6     0.2
  133   0.0003967347504  -0.8235461352269     9.5     9.5     0.2
  134   0.0004357439328  -0.8234944132402     8.7     8.7     0.2
  135   0.0005110219519  -0.8234329253350     8.6     8.6     0.2
 MICROCYCLE DIIS UPDATE:                  135                    5
  136   0.0003526461500  -0.8237690065500     8.6     8.6     0.2
  137   0.0003586599046  -0.8237346661210     8.5     8.5     0.2
  138   0.0003831761280  -0.8236960975686     8.7     8.7     0.2
  139   0.0004509053678  -0.8236492829194     8.6     8.6     0.1
  140   0.0005568249803  -0.8235962053710     8.4     8.4     0.2
 MICROCYCLE DIIS UPDATE:                  140                    5
  141   0.0003160453494  -0.8238627592655     8.5     8.5     0.2
  142   0.0003083868665  -0.8238421510920     8.8     8.8     0.2
  143   0.0003201327697  -0.8238050320157     8.8     8.8     0.2
  144   0.0003520697516  -0.8237625747121     8.6     8.6     0.2
  145   0.0004157179854  -0.8237127020855     8.6     8.6     0.2
 MICROCYCLE DIIS UPDATE:                  145                    5
  146   0.0002849703681  -0.8239828809646     8.6     8.6     0.2
  147   0.0002906449070  -0.8239540134463     8.5     8.5     0.2
  148   0.0003107273078  -0.8239225434631     8.7     8.7     0.2
  149   0.0003649166406  -0.8238840198947     8.7     8.7     0.2
  150   0.0004487643359  -0.8238408404262     8.8     8.8     0.2
 MICROCYCLE DIIS UPDATE:                  150                    5
  151   0.0002485164373  -0.8240882644685     8.5     8.5     0.2
  152   0.0002393492404  -0.8240762835899     8.8     8.8     0.2
  153   0.0002480209980  -0.8240445752588     8.4     8.4     0.2
  154   0.0002739297452  -0.8240111751318     8.6     8.6     0.2
  155   0.0003246951426  -0.8239714028044     8.7     8.7     0.2
 MICROCYCLE DIIS UPDATE:                  155                    5
  156   0.0002203245166  -0.8241792395145     9.4     9.4     0.2
  157   0.0002224724684  -0.8241594755225     9.3     9.3     0.2
  158   0.0002318952853  -0.8241332564232     9.7     9.7     0.2
  159   0.0002635168180  -0.8241033864513     9.4     9.4     0.2
  160   0.0003118170429  -0.8240696520388     9.1     9.1     0.2
 MICROCYCLE DIIS UPDATE:                  160                    5
  161   0.0002002314866  -0.8242437269619     8.7     8.7     0.2
  162   0.0002016014085  -0.8242232868692     8.4     8.4     0.2
  163   0.0002229147878  -0.8242005572666     8.4     8.4     0.2
  164   0.0002723548214  -0.8241714984585     8.4     8.4     0.2
  165   0.0003748614310  -0.8241393765040     8.5     8.5     0.2
 MICROCYCLE DIIS UPDATE:                  165                    5
  166   0.0001822532113  -0.8242969951056     8.4     8.4     0.2
  167   0.0001804623049  -0.8242785902810     8.4     8.4     0.2
  168   0.0001852594218  -0.8242562735486     8.4     8.4     0.2
  169   0.0002033492262  -0.8242312735005     8.5     8.5     0.2
  170   0.0002295125334  -0.8242024571204     8.4     8.4     0.2
 MICROCYCLE DIIS UPDATE:                  170                    5
  171   0.0001658827586  -0.8243464768888     8.5     8.5     0.2
  172   0.0001676304442  -0.8243321598708     8.4     8.4     0.2
  173   0.0001836038922  -0.8243117754161     8.5     8.5     0.2
  174   0.0002231123023  -0.8242880681844     8.5     8.5     0.2
  175   0.0003034621431  -0.8242607934080     8.5     8.5     0.2
 MICROCYCLE DIIS UPDATE:                  175                    5
  176   0.0001533173574  -0.8243874348138     8.5     8.5     0.1
  177   0.0001511552035  -0.8243709812295     8.4     8.4     0.2
  178   0.0001549185105  -0.8243525209072     8.4     8.4     0.2
  179   0.0001677772458  -0.8243309538027     8.7     8.7     0.2
  180   0.0001867842275  -0.8243067569983     8.6     8.6     0.2
 MICROCYCLE DIIS UPDATE:                  180                    5
  181   0.0001367148790  -0.8244435116179     8.7     8.7     0.2
  182   0.0001356728912  -0.8244332066161     8.6     8.6     0.2
  183   0.0001476531511  -0.8244159953229     8.5     8.5     0.2
  184   0.0001780673522  -0.8243965668051     8.5     8.5     0.2
  185   0.0002399116760  -0.8243741451342     8.4     8.4     0.2
 MICROCYCLE DIIS UPDATE:                  185                    5
  186   0.0001246811800  -0.8244762559721     8.6     8.6     0.2
  187   0.0001233415805  -0.8244628471482     8.7     8.7     0.2
  188   0.0001263602130  -0.8244476663109     8.7     8.7     0.2
  189   0.0001366049313  -0.8244298472730     8.5     8.5     0.2
  190   0.0001518690177  -0.8244100364519     8.6     8.6     0.2
 MICROCYCLE DIIS UPDATE:                  190                    5
  191   0.0001025857351  -0.8245673611242     8.7     8.7     0.2
  192   0.0000950284179  -0.8245621155409     8.5     8.5     0.2
  193   0.0001026409743  -0.8245491715366     8.9     8.9     0.2
  194   0.0001228890499  -0.8245352129044     8.6     8.6     0.2
  195   0.0001643647774  -0.8245190999750     8.7     8.7     0.2
 MICROCYCLE DIIS UPDATE:                  195                    5
  196   0.0000870615320  -0.8245951151107     8.5     8.5     0.2
  197   0.0000864532949  -0.8245857202834     8.8     8.8     0.2
  198   0.0000885414212  -0.8245748567736     8.6     8.6     0.2
  199   0.0000961026377  -0.8245622408246     8.9     8.9     0.2
  200   0.0001071873798  -0.8245482837342     9.0     9.0     0.2
 MICROCYCLE DIIS UPDATE:                  200                    5
  201   0.0000466155972  -0.8247688621624     9.0     9.0     0.2
  202   0.0000321798320  -0.8247696088749     9.0     9.0     0.2
  203   0.0000339338166  -0.8247640620964     8.6     8.6     0.2
  204   0.0000421017406  -0.8247593578433     8.6     8.6     0.2
  205   0.0000590596780  -0.8247538155094     8.8     8.8     0.2
 MICROCYCLE DIIS UPDATE:                  205                    5
  206   0.0000269781986  -0.8247844866275     8.4     8.4     0.2
  207   0.0000263632157  -0.8247809978985     8.4     8.4     0.2
  208   0.0000265509961  -0.8247772582551     8.3     8.3     0.2
  209   0.0000280433591  -0.8247730332728     8.4     8.4     0.2
  210   0.0000301697344  -0.8247685714312     8.3     8.3     0.2
 MICROCYCLE DIIS UPDATE:                  210                    5
  211   0.0000193556574  -0.8248160249312     8.5     8.5     0.2
  212   0.0000185661004  -0.8248139378010     8.5     8.5     0.2
  213   0.0000224229198  -0.8248108862025     8.6     8.6     0.2
  214   0.0000324072554  -0.8248088320349     8.6     8.6     0.2
  215   0.0000508290282  -0.8248056466281     8.6     8.6     0.2
 MICROCYCLE DIIS UPDATE:                  215                    5
  216   0.0000139078908  -0.8248198590522     8.6     8.6     0.2
  217   0.0000138659195  -0.8248178250247     8.5     8.5     0.2
  218   0.0000141760756  -0.8248157341158     8.6     8.6     0.2
  219   0.0000154081776  -0.8248134307008     8.4     8.4     0.2
  220   0.0000171738956  -0.8248109910145     8.5     8.5     0.2
 MICROCYCLE DIIS UPDATE:                  220                    5
  221   0.0000121539028  -0.8248259617687     8.5     8.5     0.2
  222   0.0000121273306  -0.8248245668095     8.4     8.4     0.1
  223   0.0000137103793  -0.8248226028811     8.5     8.5     0.2
  224   0.0000177631374  -0.8248208137779     8.6     8.6     0.2
  225   0.0000257488949  -0.8248186198777     8.4     8.4     0.1
 MICROCYCLE DIIS UPDATE:                  225                    5
  226   0.0000105499107  -0.8248291816324     8.6     8.6     0.2
  227   0.0000105195591  -0.8248276955072     8.5     8.5     0.2
  228   0.0000107369945  -0.8248261308690     8.5     8.5     0.2
  229   0.0000116631359  -0.8248243867166     8.4     8.4     0.2
  230   0.0000130116761  -0.8248225446275     8.4     8.4     0.1
 MICROCYCLE DIIS UPDATE:                  230                    5
  231   0.0000096791873  -0.8248321433979     8.4     8.4     0.2
  232   0.0000097311060  -0.8248308103335     8.6     8.6     0.2
  233   0.0000108176696  -0.8248292600487     8.4     8.4     0.1
  234   0.0000135808871  -0.8248277377982     8.4     8.4     0.2
  235   0.0000191502905  -0.8248259746941     8.5     8.5     0.2
 MICROCYCLE DIIS UPDATE:                  235                    5
  236   0.0000086383291  -0.8248344772427     8.5     8.5     0.2
  237   0.0000086281114  -0.8248332314184     8.5     8.5     0.1
  238   0.0000088305724  -0.8248319291101     8.5     8.5     0.2
  239   0.0000096593693  -0.8248304809514     8.6     8.6     0.2
  240   0.0000108561664  -0.8248289578501     8.5     8.5     0.2
 MICROCYCLE DIIS UPDATE:                  240                    5
  241   0.0000080519135  -0.8248362861052     8.6     8.6     0.2
  242   0.0000081372216  -0.8248351304776     8.4     8.4     0.2
  243   0.0000089045849  -0.8248338536846     8.4     8.4     0.1
  244   0.0000109156079  -0.8248325611572     8.4     8.4     0.2
  245   0.0000150190201  -0.8248310835829     8.5     8.5     0.2
 MICROCYCLE DIIS UPDATE:                  245                    5
  246   0.0000072089366  -0.8248385356909     8.6     8.6     0.2
  247   0.0000071344922  -0.8248375455573     8.7     8.7     0.2
  248   0.0000072863052  -0.8248364629741     8.4     8.4     0.2
  249   0.0000079406726  -0.8248352558879     8.4     8.4     0.2
  250   0.0000088527342  -0.8248339886019     8.4     8.4     0.2
 MICROCYCLE DIIS UPDATE:                  250                    5
  251   0.0000067020605  -0.8248400402887     8.5     8.5     0.2
  252   0.0000067606245  -0.8248390462327     8.6     8.6     0.2
  253   0.0000073058312  -0.8248379997817     8.6     8.6     0.1
  254   0.0000088001117  -0.8248369169579     8.5     8.5     0.2
  255   0.0000119003849  -0.8248356915703     8.6     8.6     0.2
 MICROCYCLE DIIS UPDATE:                  255                    5
  256   0.0000058113975  -0.8248426852390     8.6     8.6     0.2
  257   0.0000055435983  -0.8248420529811     8.4     8.4     0.2
  258   0.0000056448749  -0.8248411710859     8.4     8.4     0.2
  259   0.0000060723902  -0.8248402224392     8.3     8.3     0.1
  260   0.0000066050723  -0.8248392186895     8.3     8.3     0.2
 MICROCYCLE DIIS UPDATE:                  260                    5
  261   0.0000052002732  -0.8248443849961     8.5     8.5     0.2
  262   0.0000052605970  -0.8248436138842     8.5     8.5     0.2
  263   0.0000057263762  -0.8248428230756     8.7     8.7     0.2
  264   0.0000070263960  -0.8248419906657     8.5     8.5     0.2
  265   0.0000097693023  -0.8248410523386     8.4     8.4     0.2
 MICROCYCLE DIIS UPDATE:                  265                    5
  266   0.0000042966899  -0.8248469666861     8.4     8.4     0.2
  267   0.0000040461870  -0.8248466490090     8.4     8.4     0.2
  268   0.0000041558578  -0.8248459349194     8.4     8.4     0.1
  269   0.0000045821426  -0.8248452706409     8.3     8.3     0.2
  270   0.0000050994071  -0.8248445249828     8.3     8.3     0.2
 MICROCYCLE DIIS UPDATE:                  270                    5
  271   0.0000036704828  -0.8248487923882     8.4     8.4     0.2
  272   0.0000036406974  -0.8248482731112     8.5     8.5     0.2
  273   0.0000038782129  -0.8248477229845     8.4     8.4     0.2
  274   0.0000046158613  -0.8248471516471     8.3     8.3     0.2
  275   0.0000062443454  -0.8248465070548     8.3     8.3     0.2
 MICROCYCLE DIIS UPDATE:                  275                    5
  276   0.0000028857040  -0.8248510379057     8.3     8.3     0.2
  277   0.0000025952106  -0.8248508037904     8.5     8.5     0.2
  278   0.0000026684128  -0.8248503700922     8.5     8.5     0.2
  279   0.0000029136330  -0.8248499219639     8.5     8.5     0.2
  280   0.0000031772427  -0.8248494410711     8.4     8.4     0.2
 MICROCYCLE DIIS UPDATE:                  280                    5
  281   0.0000023273810  -0.8248525131610     8.3     8.3     0.2
  282   0.0000023529873  -0.8248521885737     8.5     8.5     0.2
[...]
     8a   (alpha)     9a   (beta ) ---     3a   (alpha)     4a   (beta )       -0.1133324606
     8a   (alpha)    10a   (beta ) ---     1a   (alpha)     3a   (beta )       -0.1061365273
     8a   (alpha)    10a   (beta ) ---     2a   (alpha)     2a   (beta )       -0.1584492943
     8a   (alpha)    10a   (beta ) ---     2a   (alpha)     4a   (beta )       -0.1059477372
     9a   (alpha)     6a   (beta ) ---     1a   (alpha)     4a   (beta )       -0.1051569535
     9a   (alpha)     6a   (beta ) ---     3a   (alpha)     4a   (beta )       -0.1026331901
     9a   (alpha)     6a   (beta ) ---     4a   (alpha)     1a   (beta )       -0.1946375963
     9a   (alpha)     6a   (beta ) ---     4a   (alpha)     3a   (beta )       -0.1707940713
     9a   (alpha)     6a   (beta ) ---     5a   (alpha)     2a   (beta )        0.1194336335
     9a   (alpha)     7a   (beta ) ---     1a   (alpha)     5a   (beta )       -0.1196842433
     9a   (alpha)     7a   (beta ) ---     3a   (alpha)     1a   (beta )        0.1041272437
     9a   (alpha)     7a   (beta ) ---     3a   (alpha)     3a   (beta )        0.1637463356
     9a   (alpha)     7a   (beta ) ---     5a   (alpha)     1a   (beta )       -0.1992863292
     9a   (alpha)     7a   (beta ) ---     5a   (alpha)     3a   (beta )       -0.1498291662
     9a   (alpha)     8a   (beta ) ---     2a   (alpha)     1a   (beta )       -0.1048982893
     9a   (alpha)     8a   (beta ) ---     2a   (alpha)     3a   (beta )       -0.1346073720
     9a   (alpha)     8a   (beta ) ---     3a   (alpha)     2a   (beta )       -0.1201026826
     9a   (alpha)     8a   (beta ) ---     4a   (alpha)     1a   (beta )       -0.1207173556
     9a   (alpha)     8a   (beta ) ---     4a   (alpha)     3a   (beta )       -0.1133324606
     9a   (alpha)     9a   (beta ) ---     1a   (alpha)     1a   (beta )       -0.1953715774
     9a   (alpha)     9a   (beta ) ---     1a   (alpha)     3a   (beta )       -0.1603252935
     9a   (alpha)     9a   (beta ) ---     2a   (alpha)     2a   (beta )       -0.1034321231
     9a   (alpha)     9a   (beta ) ---     3a   (alpha)     1a   (beta )       -0.1603252935
     9a   (alpha)     9a   (beta ) ---     3a   (alpha)     3a   (beta )       -0.1524466784
     9a   (alpha)    10a   (beta ) ---     1a   (alpha)     2a   (beta )       -0.1331500210
     9a   (alpha)    10a   (beta ) ---     2a   (alpha)     1a   (beta )       -0.1629462907
     9a   (alpha)    10a   (beta ) ---     2a   (alpha)     3a   (beta )       -0.1055544782
    10a   (alpha)     6a   (beta ) ---     1a   (alpha)     5a   (beta )        0.1042478983
    10a   (alpha)     6a   (beta ) ---     2a   (alpha)     4a   (beta )       -0.1199127011
    10a   (alpha)     6a   (beta ) ---     4a   (alpha)     2a   (beta )       -0.1999948557
    10a   (alpha)     6a   (beta ) ---     5a   (alpha)     1a   (beta )        0.1610618173
    10a   (alpha)     7a   (beta ) ---     2a   (alpha)     5a   (beta )       -0.1035841427
    10a   (alpha)     7a   (beta ) ---     3a   (alpha)     2a   (beta )        0.1193746661
    10a   (alpha)     7a   (beta ) ---     5a   (alpha)     2a   (beta )       -0.1915849740
    10a   (alpha)     8a   (beta ) ---     2a   (alpha)     2a   (beta )       -0.1584492943
    10a   (alpha)     8a   (beta ) ---     3a   (alpha)     1a   (beta )       -0.1061365273
    10a   (alpha)     8a   (beta ) ---     4a   (alpha)     2a   (beta )       -0.1059477372
    10a   (alpha)     9a   (beta ) ---     1a   (alpha)     2a   (beta )       -0.1629462907
    10a   (alpha)     9a   (beta ) ---     2a   (alpha)     1a   (beta )       -0.1331500210
    10a   (alpha)     9a   (beta ) ---     3a   (alpha)     2a   (beta )       -0.1055544782
    10a   (alpha)    10a   (beta ) ---     1a   (alpha)     1a   (beta )       -0.1495840609
    10a   (alpha)    10a   (beta ) ---     2a   (alpha)     2a   (beta )       -0.1926308863
 Ground state specification:
 exp(T)|Ref>~(1+T)|Ref>
 ------- a(p)+/a(q) strings ----------

 singles norm

 doubles norm

 Reference string
  0.50320512094863257      :(1a)+ (2a)+ (3a)+ (4a)+ (5a)+ (1b)+ (2b)+ (3b)+ (4b)+ (5b)+ |0>

 Singles strings
  -5.1569072049503561E-002 :(6a)+ (4a)  (1a)+ (2a)+ (3a)+ (4a)+ (5a)+ (1b)+ (2b)+ (3b)+ (4b)+ (5b)+ |0>
  -5.1569072049503561E-002 :(6b)+ (4b)  (1a)+ (2a)+ (3a)+ (4a)+ (5a)+ (1b)+ (2b)+ (3b)+ (4b)+ (5b)+ |0>

 Doubles strings
   5.0786523370995824E-002 :(6a)+ (6b)+ (4b)  (2a)  (1a)+ (2a)+ (3a)+ (4a)+ (5a)+ (1b)+ (2b)+ (3b)+ (4b)+ (5b)+ |0>
   5.0786523371002694E-002 :(6a)+ (6b)+ (2b)  (4a)  (1a)+ (2a)+ (3a)+ (4a)+ (5a)+ (1b)+ (2b)+ (3b)+ (4b)+ (5b)+ |0>
 -0.20634018712454727      :(6a)+ (6b)+ (4b)  (4a)  (1a)+ (2a)+ (3a)+ (4a)+ (5a)+ (1b)+ (2b)+ (3b)+ (4b)+ (5b)+ |0>
 -0.14720505188576974      :(6a)+ (6b)+ (5b)  (5a)  (1a)+ (2a)+ (3a)+ (4a)+ (5a)+ (1b)+ (2b)+ (3b)+ (4b)+ (5b)+ |0>
   8.5541516563463441E-002 :(6a)+ (7b)+ (4b)  (3a)  (1a)+ (2a)+ (3a)+ (4a)+ (5a)+ (1b)+ (2b)+ (3b)+ (4b)+ (5b)+ |0>
 -0.12676866986152263      :(6a)+ (7b)+ (5b)  (4a)  (1a)+ (2a)+ (3a)+ (4a)+ (5a)+ (1b)+ (2b)+ (3b)+ (4b)+ (5b)+ |0>
 -0.16418683831498052      :(6a)+ (7b)+ (4b)  (5a)  (1a)+ (2a)+ (3a)+ (4a)+ (5a)+ (1b)+ (2b)+ (3b)+ (4b)+ (5b)+ |0>
  -7.4535727088609172E-002 :(6a)+ (8b)+ (4b)  (2a)  (1a)+ (2a)+ (3a)+ (4a)+ (5a)+ (1b)+ (2b)+ (3b)+ (4b)+ (5b)+ |0>
   7.7429980097163689E-002 :(6a)+ (8b)+ (5b)  (3a)  (1a)+ (2a)+ (3a)+ (4a)+ (5a)+ (1b)+ (2b)+ (3b)+ (4b)+ (5b)+ |0>
 -0.12822672660785056      :(6a)+ (8b)+ (4b)  (4a)  (1a)+ (2a)+ (3a)+ (4a)+ (5a)+ (1b)+ (2b)+ (3b)+ (4b)+ (5b)+ |0>
   5.6220405786986213E-002 :(6a)+ (8b)+ (3b)  (5a)  (1a)+ (2a)+ (3a)+ (4a)+ (5a)+ (1b)+ (2b)+ (3b)+ (4b)+ (5b)+ |0>
  -9.7942635207461826E-002 :(6a)+ (9b)+ (4b)  (1a)  (1a)+ (2a)+ (3a)+ (4a)+ (5a)+ (1b)+ (2b)+ (3b)+ (4b)+ (5b)+ |0>
   6.0099615987067964E-002 :(6a)+ (9b)+ (5b)  (2a)  (1a)+ (2a)+ (3a)+ (4a)+ (5a)+ (1b)+ (2b)+ (3b)+ (4b)+ (5b)+ |0>
  -8.5944451326404381E-002 :(6a)+ (9b)+ (4b)  (3a)  (1a)+ (2a)+ (3a)+ (4a)+ (5a)+ (1b)+ (2b)+ (3b)+ (4b)+ (5b)+ |0>
  -5.2915517517509149E-002 :(6a)+ (9b)+ (1b)  (4a)  (1a)+ (2a)+ (3a)+ (4a)+ (5a)+ (1b)+ (2b)+ (3b)+ (4b)+ (5b)+ |0>
  -5.1645546847807734E-002 :(6a)+ (9b)+ (3b)  (4a)  (1a)+ (2a)+ (3a)+ (4a)+ (5a)+ (1b)+ (2b)+ (3b)+ (4b)+ (5b)+ |0>
   8.1047131278695880E-002 :(6a)+ (10b)+(5b)  (1a)  (1a)+ (2a)+ (3a)+ (4a)+ (5a)+ (1b)+ (2b)+ (3b)+ (4b)+ (5b)+ |0>
 -0.10063843553294882      :(6a)+ (10b)+(4b)  (2a)  (1a)+ (2a)+ (3a)+ (4a)+ (5a)+ (1b)+ (2b)+ (3b)+ (4b)+ (5b)+ |0>
  -6.0340685251105940E-002 :(6a)+ (10b)+(2b)  (4a)  (1a)+ (2a)+ (3a)+ (4a)+ (5a)+ (1b)+ (2b)+ (3b)+ (4b)+ (5b)+ |0>
   5.2458076251455377E-002 :(6a)+ (10b)+(1b)  (5a)  (1a)+ (2a)+ (3a)+ (4a)+ (5a)+ (1b)+ (2b)+ (3b)+ (4b)+ (5b)+ |0>
   8.5541516563463330E-002 :(7a)+ (6b)+ (3b)  (4a)  (1a)+ (2a)+ (3a)+ (4a)+ (5a)+ (1b)+ (2b)+ (3b)+ (4b)+ (5b)+ |0>
 -0.16418683831498992      :(7a)+ (6b)+ (5b)  (4a)  (1a)+ (2a)+ (3a)+ (4a)+ (5a)+ (1b)+ (2b)+ (3b)+ (4b)+ (5b)+ |0>
 -0.12676866986152507      :(7a)+ (6b)+ (4b)  (5a)  (1a)+ (2a)+ (3a)+ (4a)+ (5a)+ (1b)+ (2b)+ (3b)+ (4b)+ (5b)+ |0>
  -9.3353317152123749E-002 :(7a)+ (7b)+ (3b)  (3a)  (1a)+ (2a)+ (3a)+ (4a)+ (5a)+ (1b)+ (2b)+ (3b)+ (4b)+ (5b)+ |0>
  0.12641095252681275      :(7a)+ (7b)+ (5b)  (3a)  (1a)+ (2a)+ (3a)+ (4a)+ (5a)+ (1b)+ (2b)+ (3b)+ (4b)+ (5b)+ |0>
  -7.6193445772559376E-002 :(7a)+ (7b)+ (4b)  (4a)  (1a)+ (2a)+ (3a)+ (4a)+ (5a)+ (1b)+ (2b)+ (3b)+ (4b)+ (5b)+ |0>
  0.12641095252681117      :(7a)+ (7b)+ (3b)  (5a)  (1a)+ (2a)+ (3a)+ (4a)+ (5a)+ (1b)+ (2b)+ (3b)+ (4b)+ (5b)+ |0>
 -0.20224225997855730      :(7a)+ (7b)+ (5b)  (5a)  (1a)+ (2a)+ (3a)+ (4a)+ (5a)+ (1b)+ (2b)+ (3b)+ (4b)+ (5b)+ |0>
   5.6580938511302713E-002 :(7a)+ (8b)+ (3b)  (2a)  (1a)+ (2a)+ (3a)+ (4a)+ (5a)+ (1b)+ (2b)+ (3b)+ (4b)+ (5b)+ |0>
  -8.4726792315743912E-002 :(7a)+ (8b)+ (5b)  (2a)  (1a)+ (2a)+ (3a)+ (4a)+ (5a)+ (1b)+ (2b)+ (3b)+ (4b)+ (5b)+ |0>
   7.5493567005166004E-002 :(7a)+ (8b)+ (4b)  (3a)  (1a)+ (2a)+ (3a)+ (4a)+ (5a)+ (1b)+ (2b)+ (3b)+ (4b)+ (5b)+ |0>
   8.2881430045229063E-002 :(7a)+ (8b)+ (3b)  (4a)  (1a)+ (2a)+ (3a)+ (4a)+ (5a)+ (1b)+ (2b)+ (3b)+ (4b)+ (5b)+ |0>
  -8.5398571485401226E-002 :(7a)+ (8b)+ (5b)  (4a)  (1a)+ (2a)+ (3a)+ (4a)+ (5a)+ (1b)+ (2b)+ (3b)+ (4b)+ (5b)+ |0>
  -5.1022026315716673E-002 :(7a)+ (8b)+ (2b)  (5a)  (1a)+ (2a)+ (3a)+ (4a)+ (5a)+ (1b)+ (2b)+ (3b)+ (4b)+ (5b)+ |0>
   5.2397362279527744E-002 :(7a)+ (9b)+ (3b)  (1a)  (1a)+ (2a)+ (3a)+ (4a)+ (5a)+ (1b)+ (2b)+ (3b)+ (4b)+ (5b)+ |0>
 -0.10028190140509555      :(7a)+ (9b)+ (5b)  (1a)  (1a)+ (2a)+ (3a)+ (4a)+ (5a)+ (1b)+ (2b)+ (3b)+ (4b)+ (5b)+ |0>
   8.2397994603963173E-002 :(7a)+ (9b)+ (3b)  (3a)  (1a)+ (2a)+ (3a)+ (4a)+ (5a)+ (1b)+ (2b)+ (3b)+ (4b)+ (5b)+ |0>
  -7.5394803710556929E-002 :(7a)+ (9b)+ (5b)  (3a)  (1a)+ (2a)+ (3a)+ (4a)+ (5a)+ (1b)+ (2b)+ (3b)+ (4b)+ (5b)+ |0>
  -6.0225724143432940E-002 :(7a)+ (9b)+ (1b)  (5a)  (1a)+ (2a)+ (3a)+ (4a)+ (5a)+ (1b)+ (2b)+ (3b)+ (4b)+ (5b)+ |0>
   6.0069943284762756E-002 :(7a)+ (10b)+(3b)  (2a)  (1a)+ (2a)+ (3a)+ (4a)+ (5a)+ (1b)+ (2b)+ (3b)+ (4b)+ (5b)+ |0>
  -9.6406540023107432E-002 :(7a)+ (10b)+(5b)  (2a)  (1a)+ (2a)+ (3a)+ (4a)+ (5a)+ (1b)+ (2b)+ (3b)+ (4b)+ (5b)+ |0>
  -5.2124071077820341E-002 :(7a)+ (10b)+(2b)  (5a)  (1a)+ (2a)+ (3a)+ (4a)+ (5a)+ (1b)+ (2b)+ (3b)+ (4b)+ (5b)+ |0>
   5.6220405786991688E-002 :(8a)+ (6b)+ (5b)  (3a)  (1a)+ (2a)+ (3a)+ (4a)+ (5a)+ (1b)+ (2b)+ (3b)+ (4b)+ (5b)+ |0>
  -7.4535727088612738E-002 :(8a)+ (6b)+ (2b)  (4a)  (1a)+ (2a)+ (3a)+ (4a)+ (5a)+ (1b)+ (2b)+ (3b)+ (4b)+ (5b)+ |0>
 -0.12822672660783985      :(8a)+ (6b)+ (4b)  (4a)  (1a)+ (2a)+ (3a)+ (4a)+ (5a)+ (1b)+ (2b)+ (3b)+ (4b)+ (5b)+ |0>
   7.7429980097166923E-002 :(8a)+ (6b)+ (3b)  (5a)  (1a)+ (2a)+ (3a)+ (4a)+ (5a)+ (1b)+ (2b)+ (3b)+ (4b)+ (5b)+ |0>
  -5.1022026315714994E-002 :(8a)+ (7b)+ (5b)  (2a)  (1a)+ (2a)+ (3a)+ (4a)+ (5a)+ (1b)+ (2b)+ (3b)+ (4b)+ (5b)+ |0>
   5.6580938511304725E-002 :(8a)+ (7b)+ (2b)  (3a)  (1a)+ (2a)+ (3a)+ (4a)+ (5a)+ (1b)+ (2b)+ (3b)+ (4b)+ (5b)+ |0>
   8.2881430045232074E-002 :(8a)+ (7b)+ (4b)  (3a)  (1a)+ (2a)+ (3a)+ (4a)+ (5a)+ (1b)+ (2b)+ (3b)+ (4b)+ (5b)+ |0>
   7.5493567005168682E-002 :(8a)+ (7b)+ (3b)  (4a)  (1a)+ (2a)+ (3a)+ (4a)+ (5a)+ (1b)+ (2b)+ (3b)+ (4b)+ (5b)+ |0>
  -8.4726792315744370E-002 :(8a)+ (7b)+ (2b)  (5a)  (1a)+ (2a)+ (3a)+ (4a)+ (5a)+ (1b)+ (2b)+ (3b)+ (4b)+ (5b)+ |0>
  -8.5398571485401462E-002 :(8a)+ (7b)+ (4b)  (5a)  (1a)+ (2a)+ (3a)+ (4a)+ (5a)+ (1b)+ (2b)+ (3b)+ (4b)+ (5b)+ |0>
  -7.6566639203162590E-002 :(8a)+ (8b)+ (2b)  (2a)  (1a)+ (2a)+ (3a)+ (4a)+ (5a)+ (1b)+ (2b)+ (3b)+ (4b)+ (5b)+ |0>
  -8.2317926959955781E-002 :(8a)+ (8b)+ (4b)  (2a)  (1a)+ (2a)+ (3a)+ (4a)+ (5a)+ (1b)+ (2b)+ (3b)+ (4b)+ (5b)+ |0>
  -7.8111716815167528E-002 :(8a)+ (8b)+ (3b)  (3a)  (1a)+ (2a)+ (3a)+ (4a)+ (5a)+ (1b)+ (2b)+ (3b)+ (4b)+ (5b)+ |0>
  -8.2317926959948509E-002 :(8a)+ (8b)+ (2b)  (4a)  (1a)+ (2a)+ (3a)+ (4a)+ (5a)+ (1b)+ (2b)+ (3b)+ (4b)+ (5b)+ |0>
  -9.3205749234669455E-002 :(8a)+ (8b)+ (4b)  (4a)  (1a)+ (2a)+ (3a)+ (4a)+ (5a)+ (1b)+ (2b)+ (3b)+ (4b)+ (5b)+ |0>
  -5.2785356354756348E-002 :(8a)+ (9b)+ (2b)  (1a)  (1a)+ (2a)+ (3a)+ (4a)+ (5a)+ (1b)+ (2b)+ (3b)+ (4b)+ (5b)+ |0>
  -6.0745591512151177E-002 :(8a)+ (9b)+ (4b)  (1a)  (1a)+ (2a)+ (3a)+ (4a)+ (5a)+ (1b)+ (2b)+ (3b)+ (4b)+ (5b)+ |0>
  -6.0436284933275450E-002 :(8a)+ (9b)+ (3b)  (2a)  (1a)+ (2a)+ (3a)+ (4a)+ (5a)+ (1b)+ (2b)+ (3b)+ (4b)+ (5b)+ |0>
  -6.7735118887676665E-002 :(8a)+ (9b)+ (2b)  (3a)  (1a)+ (2a)+ (3a)+ (4a)+ (5a)+ (1b)+ (2b)+ (3b)+ (4b)+ (5b)+ |0>
  -5.7029474523630157E-002 :(8a)+ (9b)+ (4b)  (3a)  (1a)+ (2a)+ (3a)+ (4a)+ (5a)+ (1b)+ (2b)+ (3b)+ (4b)+ (5b)+ |0>
  -5.3408444041902883E-002 :(8a)+ (10b)+(3b)  (1a)  (1a)+ (2a)+ (3a)+ (4a)+ (5a)+ (1b)+ (2b)+ (3b)+ (4b)+ (5b)+ |0>
  -7.9732496306222075E-002 :(8a)+ (10b)+(2b)  (2a)  (1a)+ (2a)+ (3a)+ (4a)+ (5a)+ (1b)+ (2b)+ (3b)+ (4b)+ (5b)+ |0>
  -5.3313443894983943E-002 :(8a)+ (10b)+(4b)  (2a)  (1a)+ (2a)+ (3a)+ (4a)+ (5a)+ (1b)+ (2b)+ (3b)+ (4b)+ (5b)+ |0>
  -5.2915517517502890E-002 :(9a)+ (6b)+ (4b)  (1a)  (1a)+ (2a)+ (3a)+ (4a)+ (5a)+ (1b)+ (2b)+ (3b)+ (4b)+ (5b)+ |0>
  -5.1645546847809073E-002 :(9a)+ (6b)+ (4b)  (3a)  (1a)+ (2a)+ (3a)+ (4a)+ (5a)+ (1b)+ (2b)+ (3b)+ (4b)+ (5b)+ |0>
  -9.7942635207459147E-002 :(9a)+ (6b)+ (1b)  (4a)  (1a)+ (2a)+ (3a)+ (4a)+ (5a)+ (1b)+ (2b)+ (3b)+ (4b)+ (5b)+ |0>
  -8.5944451326408627E-002 :(9a)+ (6b)+ (3b)  (4a)  (1a)+ (2a)+ (3a)+ (4a)+ (5a)+ (1b)+ (2b)+ (3b)+ (4b)+ (5b)+ |0>
   6.0099615987060255E-002 :(9a)+ (6b)+ (2b)  (5a)  (1a)+ (2a)+ (3a)+ (4a)+ (5a)+ (1b)+ (2b)+ (3b)+ (4b)+ (5b)+ |0>
  -6.0225724143436292E-002 :(9a)+ (7b)+ (5b)  (1a)  (1a)+ (2a)+ (3a)+ (4a)+ (5a)+ (1b)+ (2b)+ (3b)+ (4b)+ (5b)+ |0>
   5.2397362279536348E-002 :(9a)+ (7b)+ (1b)  (3a)  (1a)+ (2a)+ (3a)+ (4a)+ (5a)+ (1b)+ (2b)+ (3b)+ (4b)+ (5b)+ |0>
   8.2397994603950669E-002 :(9a)+ (7b)+ (3b)  (3a)  (1a)+ (2a)+ (3a)+ (4a)+ (5a)+ (1b)+ (2b)+ (3b)+ (4b)+ (5b)+ |0>
 -0.10028190140509588      :(9a)+ (7b)+ (1b)  (5a)  (1a)+ (2a)+ (3a)+ (4a)+ (5a)+ (1b)+ (2b)+ (3b)+ (4b)+ (5b)+ |0>
  -7.5394803710567324E-002 :(9a)+ (7b)+ (3b)  (5a)  (1a)+ (2a)+ (3a)+ (4a)+ (5a)+ (1b)+ (2b)+ (3b)+ (4b)+ (5b)+ |0>
  -5.2785356354757805E-002 :(9a)+ (8b)+ (1b)  (2a)  (1a)+ (2a)+ (3a)+ (4a)+ (5a)+ (1b)+ (2b)+ (3b)+ (4b)+ (5b)+ |0>
  -6.7735118887677997E-002 :(9a)+ (8b)+ (3b)  (2a)  (1a)+ (2a)+ (3a)+ (4a)+ (5a)+ (1b)+ (2b)+ (3b)+ (4b)+ (5b)+ |0>
  -6.0436284933281931E-002 :(9a)+ (8b)+ (2b)  (3a)  (1a)+ (2a)+ (3a)+ (4a)+ (5a)+ (1b)+ (2b)+ (3b)+ (4b)+ (5b)+ |0>
  -6.0745591512150282E-002 :(9a)+ (8b)+ (1b)  (4a)  (1a)+ (2a)+ (3a)+ (4a)+ (5a)+ (1b)+ (2b)+ (3b)+ (4b)+ (5b)+ |0>
  -5.7029474523630941E-002 :(9a)+ (8b)+ (3b)  (4a)  (1a)+ (2a)+ (3a)+ (4a)+ (5a)+ (1b)+ (2b)+ (3b)+ (4b)+ (5b)+ |0>
  -9.8311978222278801E-002 :(9a)+ (9b)+ (1b)  (1a)  (1a)+ (2a)+ (3a)+ (4a)+ (5a)+ (1b)+ (2b)+ (3b)+ (4b)+ (5b)+ |0>
  -8.0676508705937150E-002 :(9a)+ (9b)+ (3b)  (1a)  (1a)+ (2a)+ (3a)+ (4a)+ (5a)+ (1b)+ (2b)+ (3b)+ (4b)+ (5b)+ |0>
  -5.2047574006177433E-002 :(9a)+ (9b)+ (2b)  (2a)  (1a)+ (2a)+ (3a)+ (4a)+ (5a)+ (1b)+ (2b)+ (3b)+ (4b)+ (5b)+ |0>
  -8.0676508705932001E-002 :(9a)+ (9b)+ (1b)  (3a)  (1a)+ (2a)+ (3a)+ (4a)+ (5a)+ (1b)+ (2b)+ (3b)+ (4b)+ (5b)+ |0>
  -7.6711949240433966E-002 :(9a)+ (9b)+ (3b)  (3a)  (1a)+ (2a)+ (3a)+ (4a)+ (5a)+ (1b)+ (2b)+ (3b)+ (4b)+ (5b)+ |0>
  -6.7001772407931370E-002 :(9a)+ (10b)+(2b)  (1a)  (1a)+ (2a)+ (3a)+ (4a)+ (5a)+ (1b)+ (2b)+ (3b)+ (4b)+ (5b)+ |0>
  -8.1995407936699224E-002 :(9a)+ (10b)+(1b)  (2a)  (1a)+ (2a)+ (3a)+ (4a)+ (5a)+ (1b)+ (2b)+ (3b)+ (4b)+ (5b)+ |0>
  -5.3115553947495453E-002 :(9a)+ (10b)+(3b)  (2a)  (1a)+ (2a)+ (3a)+ (4a)+ (5a)+ (1b)+ (2b)+ (3b)+ (4b)+ (5b)+ |0>
   5.2458076251454815E-002 :(10a)+(6b)+ (5b)  (1a)  (1a)+ (2a)+ (3a)+ (4a)+ (5a)+ (1b)+ (2b)+ (3b)+ (4b)+ (5b)+ |0>
  -6.0340685251116778E-002 :(10a)+(6b)+ (4b)  (2a)  (1a)+ (2a)+ (3a)+ (4a)+ (5a)+ (1b)+ (2b)+ (3b)+ (4b)+ (5b)+ |0>
 -0.10063843553294524      :(10a)+(6b)+ (2b)  (4a)  (1a)+ (2a)+ (3a)+ (4a)+ (5a)+ (1b)+ (2b)+ (3b)+ (4b)+ (5b)+ |0>
   8.1047131278699447E-002 :(10a)+(6b)+ (1b)  (5a)  (1a)+ (2a)+ (3a)+ (4a)+ (5a)+ (1b)+ (2b)+ (3b)+ (4b)+ (5b)+ |0>
  -5.2124071077819890E-002 :(10a)+(7b)+ (5b)  (2a)  (1a)+ (2a)+ (3a)+ (4a)+ (5a)+ (1b)+ (2b)+ (3b)+ (4b)+ (5b)+ |0>
   6.0069943284760750E-002 :(10a)+(7b)+ (2b)  (3a)  (1a)+ (2a)+ (3a)+ (4a)+ (5a)+ (1b)+ (2b)+ (3b)+ (4b)+ (5b)+ |0>
  -9.6406540023104198E-002 :(10a)+(7b)+ (2b)  (5a)  (1a)+ (2a)+ (3a)+ (4a)+ (5a)+ (1b)+ (2b)+ (3b)+ (4b)+ (5b)+ |0>
  -7.9732496306219050E-002 :(10a)+(8b)+ (2b)  (2a)  (1a)+ (2a)+ (3a)+ (4a)+ (5a)+ (1b)+ (2b)+ (3b)+ (4b)+ (5b)+ |0>
  -5.3408444041899643E-002 :(10a)+(8b)+ (1b)  (3a)  (1a)+ (2a)+ (3a)+ (4a)+ (5a)+ (1b)+ (2b)+ (3b)+ (4b)+ (5b)+ |0>
  -5.3313443894986288E-002 :(10a)+(8b)+ (2b)  (4a)  (1a)+ (2a)+ (3a)+ (4a)+ (5a)+ (1b)+ (2b)+ (3b)+ (4b)+ (5b)+ |0>
  -8.1995407936698780E-002 :(10a)+(9b)+ (2b)  (1a)  (1a)+ (2a)+ (3a)+ (4a)+ (5a)+ (1b)+ (2b)+ (3b)+ (4b)+ (5b)+ |0>
  -6.7001772407932814E-002 :(10a)+(9b)+ (1b)  (2a)  (1a)+ (2a)+ (3a)+ (4a)+ (5a)+ (1b)+ (2b)+ (3b)+ (4b)+ (5b)+ |0>
  -5.3115553947505056E-002 :(10a)+(9b)+ (2b)  (3a)  (1a)+ (2a)+ (3a)+ (4a)+ (5a)+ (1b)+ (2b)+ (3b)+ (4b)+ (5b)+ |0>
  -7.5271465440011731E-002 :(10a)+(10b)+(1b)  (1a)  (1a)+ (2a)+ (3a)+ (4a)+ (5a)+ (1b)+ (2b)+ (3b)+ (4b)+ (5b)+ |0>
  -9.6932848424386084E-002 :(10a)+(10b)+(2b)  (2a)  (1a)+ (2a)+ (3a)+ (4a)+ (5a)+ (1b)+ (2b)+ (3b)+ (4b)+ (5b)+ |0>
 -------------------------------------

 Parallel integral file used       1 records with       0 large values


 Task  times  cpu:    26063.1s     wall:    26063.1s


                                NWChem Input Module
                                -------------------


 Summary of allocated global arrays
-----------------------------------
  No active global arrays



                         GA Statistics for process    0
                         ------------------------------

       create   destroy   get      put      acc     scatter   gather  read&inc
calls: 3.32e+04 3.32e+04 4.07e+08 1.09e+06 1.83e+07    0        0     2.12e+07 
number of processes/call 1.00e+00 1.00e+00 1.00e+00 0.00e+00 0.00e+00
bytes total:             3.27e+09 1.38e+07 1.47e+08 0.00e+00 0.00e+00 1.70e+08
bytes remote:            0.00e+00 0.00e+00 0.00e+00 0.00e+00 0.00e+00 0.00e+00
Max memory consumed for GA by this process: 130736 bytes

MA_summarize_allocated_blocks: starting scan ...
MA_summarize_allocated_blocks: scan completed: 0 heap blocks, 0 stack blocks
MA usage statistics:

	allocation statistics:
					      heap	     stack
					      ----	     -----
	current number of blocks	         0	         0
	maximum number of blocks	        17	        33
	current total bytes		         0	         0
	maximum total bytes		   1059440	  22509416
	maximum total K-bytes		      1060	     22510
	maximum total M-bytes		         2	        23


                                     CITATION
                                     --------
                Please cite the following reference when publishing
                           results obtained with NWChem:

                 M. Valiev, E.J. Bylaska, N. Govind, K. Kowalski,
              T.P. Straatsma, H.J.J. van Dam, D. Wang, J. Nieplocha,
                        E. Apra, T.L. Windus, W.A. de Jong
                 "NWChem: a comprehensive and scalable open-source
                  solution for large scale molecular simulations"
                      Comput. Phys. Commun. 181, 1477 (2010)
                           doi:10.1016/j.cpc.2010.04.018

                                      AUTHORS
                                      -------
          E. Apra, E. J. Bylaska, W. A. de Jong, N. Govind, K. Kowalski,
       T. P. Straatsma, M. Valiev, H. J. J. van Dam, D. Wang, T. L. Windus,
        J. Hammond, J. Autschbach, K. Bhaskaran-Nair, J. Brabec, K. Lopata,
    S. A. Fischer, S. Krishnamoorthy, M. Jacquelin, W. Ma, M. Klemm, O. Villa,
      Y. Chen, V. Anisimov, F. Aquino, S. Hirata, M. T. Hackler, V. Konjkov,
            D. Mejia-Rodriguez, T. Risthaus, M. Malagoli, A. Marenich,
   A. Otero-de-la-Roza, J. Mullin, P. Nichols, R. Peverati, J. Pittner, Y. Zhao,
        P.-D. Fan, A. Fonari, M. J. Williamson, R. J. Harrison, J. R. Rehr,
      M. Dupuis, D. Silverstein, D. M. A. Smith, J. Nieplocha, V. Tipparaju,
    M. Krishnan, B. E. Van Kuiken, A. Vazquez-Mayagoitia, L. Jensen, M. Swart,
      Q. Wu, T. Van Voorhis, A. A. Auer, M. Nooijen, L. D. Crosby, E. Brown,
      G. Cisneros, G. I. Fann, H. Fruchtl, J. Garza, K. Hirao, R. A. Kendall,
      J. A. Nichols, K. Tsemekhman, K. Wolinski, J. Anchell, D. E. Bernholdt,
      P. Borowski, T. Clark, D. Clerc, H. Dachsel, M. J. O. Deegan, K. Dyall,
    D. Elwood, E. Glendening, M. Gutowski, A. C. Hess, J. Jaffe, B. G. Johnson,
     J. Ju, R. Kobayashi, R. Kutteh, Z. Lin, R. Littlefield, X. Long, B. Meng,
      T. Nakajima, S. Niu, L. Pollack, M. Rosing, K. Glaesemann, G. Sandrone,
      M. Stave, H. Taylor, G. Thomas, J. H. van Lenthe, A. T. Wong, Z. Zhang.

 Total times  cpu:    26063.2s     wall:    26063.2s
