 argument  1 = metagga_li4h4_0_m11_m11.nw
All connections between all procs tested: SUCCESS
 


============================== echo of input deck ==============================
echo
start metagga_dat
geometry noautosym
   li           -0.86951255    -0.86951258    -0.86951257
   h            -0.94323913    -0.94323915     0.94323910
   h            -0.94323915     0.94323911    -0.94323918
   h             0.94323909    -0.94323917    -0.94323918
   li            0.86951263     0.86951263    -0.86951264
   li            0.86951266    -0.86951265     0.86951266
   li           -0.86951267     0.86951268     0.86951268
   h             0.94323913     0.94323913     0.94323914
end

basis
  * library "6-311++G(2d,2p)"
end

dft
  direct
  xc xm11 cm11
  maxiter 1000
end

driver
  clear
  maxiter 100
end

task dft optimize
task dft frequencies numerical
================================================================================


                                         
                                         
 
 
              Northwest Computational Chemistry Package (NWChem) 6.5
              ------------------------------------------------------
 
 
                    Environmental Molecular Sciences Laboratory
                       Pacific Northwest National Laboratory
                                Richland, WA 99352
 
                              Copyright (c) 1994-2013
                       Pacific Northwest National Laboratory
                            Battelle Memorial Institute
 
             NWChem is an open-source computational chemistry package
                        distributed under the terms of the
                      Educational Community License (ECL) 2.0
             A copy of the license is included with this distribution
                              in the LICENSE.TXT file
 
                                  ACKNOWLEDGMENT
                                  --------------

            This software and its documentation were developed at the
            EMSL at Pacific Northwest National Laboratory, a multiprogram
            national laboratory, operated for the U.S. Department of Energy
            by Battelle under Contract Number DE-AC05-76RL01830. Support
            for this work was provided by the Department of Energy Office
            of Biological and Environmental Research, Office of Basic
            Energy Sciences, and the Office of Advanced Scientific Computing.


           Job information
           ---------------

    hostname        = arcen
    program         = /home/d3y133/nwchem-dev/nwchem-dev-2015-01-16/bin/LINUX64/nwchem
    date            = Mon Feb  2 23:35:24 2015

    compiled        = Mon_Feb_02_10:11:44_2015
    source          = /home/d3y133/nwchem-dev/nwchem-dev-2015-01-16
    nwchem branch   = Development
    nwchem revision = 26704
    ga revision     = 10514
    input           = metagga_li4h4_0_m11_m11.nw
    prefix          = metagga_dat.
    data base       = /home/d3y133/nwchem-dev/nwchem-trunk-nonwad/QA/scratchdir/metagga_dat.db
    status          = startup
    nproc           =        4
    time left       =     -1s



           Memory information
           ------------------

    heap     =   13107196 doubles =    100.0 Mbytes
    stack    =   13107201 doubles =    100.0 Mbytes
    global   =   26214400 doubles =    200.0 Mbytes (distinct from heap & stack)
    total    =   52428797 doubles =    400.0 Mbytes
    verify   = yes
    hardfail = no 


           Directory information
           ---------------------
 
  0 permanent = /home/d3y133/nwchem-dev/nwchem-trunk-nonwad/QA/scratchdir
  0 scratch   = /home/d3y133/nwchem-dev/nwchem-trunk-nonwad/QA/scratchdir
 
 
 
 
                                NWChem Input Module
                                -------------------
 
 

 Scaling coordinates for geometry "geometry" by  1.889725989
 (inverse scale =  0.529177249)


          ------
          auto-z
          ------
  autoz: excessive number of variables                    312
                    18

 AUTOZ failed to generate good internal coordinates.
 Cartesian coordinates will be used in optimizations.

 
 
                             Geometry "geometry" -> ""
                             -------------------------
 
 Output coordinates in angstroms (scale by  1.889725989 to convert to a.u.)
 
  No.       Tag          Charge          X              Y              Z
 ---- ---------------- ---------- -------------- -------------- --------------
    1 li                   3.0000    -0.86951256    -0.86951259    -0.86951259
    2 h                    1.0000    -0.94323914    -0.94323916     0.94323908
    3 h                    1.0000    -0.94323916     0.94323910    -0.94323920
    4 h                    1.0000     0.94323908    -0.94323918    -0.94323920
    5 li                   3.0000     0.86951262     0.86951262    -0.86951266
    6 li                   3.0000     0.86951265    -0.86951266     0.86951264
    7 li                   3.0000    -0.86951268     0.86951267     0.86951266
    8 h                    1.0000     0.94323912     0.94323912     0.94323912
 
      Atomic Mass 
      ----------- 
 
      li                 7.016000
      h                  1.007825
 

 Effective nuclear repulsion energy (a.u.)      25.3234783205

            Nuclear Dipole moment (a.u.) 
            ----------------------------
        X                 Y               Z
 ---------------- ---------------- ----------------
    -0.0000000000    -0.0000000000     0.0000000000
 
 
            XYZ format geometry
            -------------------
     8
 geometry
 li                   -0.86951256    -0.86951259    -0.86951259
 h                    -0.94323914    -0.94323916     0.94323908
 h                    -0.94323916     0.94323910    -0.94323920
 h                     0.94323908    -0.94323918    -0.94323920
 li                    0.86951262     0.86951262    -0.86951266
 li                    0.86951265    -0.86951266     0.86951264
 li                   -0.86951268     0.86951267     0.86951266
 h                     0.94323912     0.94323912     0.94323912
 
 ==============================================================================
                                internuclear distances
 ------------------------------------------------------------------------------
       center one      |      center two      | atomic units |  angstroms
 ------------------------------------------------------------------------------
    5 li               |   1 li               |     4.64750  |     2.45935
    6 li               |   1 li               |     4.64750  |     2.45935
    6 li               |   5 li               |     4.64750  |     2.45935
    7 li               |   1 li               |     4.64750  |     2.45935
    7 li               |   5 li               |     4.64750  |     2.45935
    7 li               |   6 li               |     4.64750  |     2.45935
 ------------------------------------------------------------------------------
                         number of included internuclear distances:          6
 ==============================================================================



 ==============================================================================
                                 internuclear angles
 ------------------------------------------------------------------------------
        center 1       |       center 2       |       center 3       |  degrees
 ------------------------------------------------------------------------------
    5 li               |   1 li               |   6 li               |    60.00
    5 li               |   1 li               |   7 li               |    60.00
    6 li               |   1 li               |   7 li               |    60.00
    5 li               |   1 li               |   6 li               |    60.00
    5 li               |   1 li               |   7 li               |    60.00
    6 li               |   5 li               |   7 li               |    60.00
    6 li               |   1 li               |   5 li               |    60.00
    6 li               |   1 li               |   7 li               |    60.00
    6 li               |   5 li               |   7 li               |    60.00
    7 li               |   1 li               |   5 li               |    60.00
    7 li               |   1 li               |   6 li               |    60.00
    7 li               |   5 li               |   6 li               |    60.00
 ------------------------------------------------------------------------------
                            number of included internuclear angles:         12
 ==============================================================================



  library name resolved from: environment
  library file name is: <
 /home/d3y133/nwchem-dev/nwchem-trunk-nonwad/QA/../src/basis/libraries/>
  


 Summary of "ao basis" -> "" (cartesian)
 ------------------------------------------------------------------------------
       Tag                 Description            Shells   Functions and Types
 ---------------- ------------------------------  ------  ---------------------
 *                      6-311++G(2d,2p)               on all atoms 


 cm11 uses PW91LDA as defaults.These defaults cannot be changed 
 
  Deleted DRIVER restart files 
 
 
 
                           NWChem Geometry Optimization
                           ----------------------------
 
 
 maximum gradient threshold         (gmax) =   0.000450
 rms gradient threshold             (grms) =   0.000300
 maximum cartesian step threshold   (xmax) =   0.001800
 rms cartesian step threshold       (xrms) =   0.001200
 fixed trust radius                (trust) =   0.300000
 maximum step size to saddle      (sadstp) =   0.100000
 energy precision                  (eprec) =   5.0D-06
 maximum number of steps          (nptopt) =  100
 initial hessian option           (inhess) =    0
 line search option               (linopt) =    1
 hessian update option            (modupd) =    1
 saddle point option              (modsad) =    0
 initial eigen-mode to follow     (moddir) =    0
 initial variable to follow       (vardir) =    0
 follow first negative mode     (firstneg) =    T
 apply conjugacy                    (opcg) =    F
 source of zmatrix                         =           


          -------------------
          Energy Minimization
          -------------------

 
 Using diagonal initial Hessian 

          --------
          Step   0
          --------
 
 
                         Geometry "geometry" -> "geometry"
                         ---------------------------------
 
 Output coordinates in angstroms (scale by  1.889725989 to convert to a.u.)
 
  No.       Tag          Charge          X              Y              Z
 ---- ---------------- ---------- -------------- -------------- --------------
    1 li                   3.0000    -0.86951256    -0.86951259    -0.86951259
    2 h                    1.0000    -0.94323914    -0.94323916     0.94323908
    3 h                    1.0000    -0.94323916     0.94323910    -0.94323920
    4 h                    1.0000     0.94323908    -0.94323918    -0.94323920
    5 li                   3.0000     0.86951262     0.86951262    -0.86951266
    6 li                   3.0000     0.86951265    -0.86951266     0.86951264
    7 li                   3.0000    -0.86951268     0.86951267     0.86951266
    8 h                    1.0000     0.94323912     0.94323912     0.94323912
 
      Atomic Mass 
      ----------- 
 
      li                 7.016000
      h                  1.007825
 

 Effective nuclear repulsion energy (a.u.)      25.3234783205

            Nuclear Dipole moment (a.u.) 
            ----------------------------
        X                 Y               Z
 ---------------- ---------------- ----------------
    -0.0000000000    -0.0000000000     0.0000000000
 
 
                                 NWChem DFT Module
                                 -----------------
 
 
                      Basis "ao basis" -> "ao basis" (cartesian)
                      -----
  li (Lithium)
  ------------
            Exponent  Coefficients 
       -------------- ---------------------------------------------------------
  1 S  9.00460000E+02  0.002287
  1 S  1.34433000E+02  0.017635
  1 S  3.04365000E+01  0.087343
  1 S  8.62639000E+00  0.280977
  1 S  2.48332000E+00  0.658741
  1 S  3.03179000E-01  0.118712
 
  2 S  4.86890000E+00  0.093329
  2 S  8.56924000E-01  0.943045
  2 S  2.43227000E-01 -0.002798
 
  3 P  4.86890000E+00  0.032766
  3 P  8.56924000E-01  0.159792
  3 P  2.43227000E-01  0.885667
 
  4 S  6.35070000E-02  1.000000
 
  5 P  6.35070000E-02  1.000000
 
  6 S  2.43683000E-02  1.000000
 
  7 P  2.43683000E-02  1.000000
 
  8 S  7.40000000E-03  1.000000
 
  9 P  7.40000000E-03  1.000000
 
 10 D  4.00000000E-01  1.000000
 
 11 D  1.00000000E-01  1.000000
 
  h (Hydrogen)
  ------------
            Exponent  Coefficients 
       -------------- ---------------------------------------------------------
  1 S  3.38650000E+01  0.025494
  1 S  5.09479000E+00  0.190373
  1 S  1.15879000E+00  0.852161
 
  2 S  3.25840000E-01  1.000000
 
  3 S  1.02741000E-01  1.000000
 
  4 S  3.60000000E-02  1.000000
 
  5 P  1.50000000E+00  1.000000
 
  6 P  3.75000000E-01  1.000000
 


 Summary of "ao basis" -> "ao basis" (cartesian)
 ------------------------------------------------------------------------------
       Tag                 Description            Shells   Functions and Types
 ---------------- ------------------------------  ------  ---------------------
 li                     6-311++G(2d,2p)             11       29   5s4p2d
 h                      6-311++G(2d,2p)              6       10   4s2p




 Summary of "ao basis" -> "ao basis" (cartesian)
 ------------------------------------------------------------------------------
       Tag                 Description            Shells   Functions and Types
 ---------------- ------------------------------  ------  ---------------------
 li                     6-311++G(2d,2p)             11       29   5s4p2d
 h                      6-311++G(2d,2p)              6       10   4s2p


  Caching 1-el integrals 
 
            General Information
            -------------------
          SCF calculation type: DFT
          Wavefunction type:  closed shell.
          No. of atoms     :     8
          No. of electrons :    16
           Alpha electrons :     8
            Beta electrons :     8
          Charge           :     0
          Spin multiplicity:     1
          Use of symmetry is: off; symmetry adaption is: off
          Maximum number of iterations: ***
          This is a Direct SCF calculation.
          AO basis - number of functions:   156
                     number of shells:    68
          Convergence on energy requested: 1.00D-06
          Convergence on density requested: 1.00D-05
          Convergence on gradient requested: 5.00D-04
 
              XC Information
              --------------
                     Hartree-Fock (Exact) Exchange  1.000          
                           M11 gradient correction  1.000          
                         M11 Correlation Potential  1.000 non-local
 
             Grid Information
             ----------------
          Grid used for XC integration:  medium    
          Radial quadrature: Mura-Knowles        
          Angular quadrature: Lebedev. 
          Tag              B.-S. Rad. Rad. Pts. Rad. Cut. Ang. Pts.
          ---              ---------- --------- --------- ---------
          li                  1.45       49          22.0       434
          h                   0.35       45          17.0       434
          Grid pruning is: on 
          Number of quadrature shells:   376
          Spatial weights used:  Erf1
 
          Convergence Information
          -----------------------
          Convergence aids based upon iterative change in 
          total energy or number of iterations. 
          Levelshifting, if invoked, occurs when the 
          HOMO/LUMO gap drops below (HL_TOL): 1.00D-02
          DIIS, if invoked, will attempt to extrapolate 
          using up to (NFOCK): 10 stored Fock matrices.

                    Damping( 0%)  Levelshifting(0.5)       DIIS
                  --------------- ------------------- ---------------
          dE  on:    start            ASAP                start   
          dE off:    2 iters        *** iters           *** iters 

 
      Screening Tolerance Information
      -------------------------------
          Density screening/tol_rho: 1.00D-10
          AO Gaussian exp screening on grid/accAOfunc:  14
          CD Gaussian exp screening on grid/accCDfunc:  20
          XC Gaussian exp screening on grid/accXCfunc:  20
          Schwarz screening/accCoul: 1.00D-08

 
      Superposition of Atomic Density Guess
      -------------------------------------
 
 Sum of atomic energies:         -31.72729480
 
      Non-variational initial energy
      ------------------------------

 Total energy =     -31.934051
 1-e energy   =     -90.491177
 2-e energy   =      33.233648
 HOMO         =      -0.380570
 LUMO         =      -0.044914
 
   Time after variat. SCF:      0.4
   Time prior to 1st pass:      0.4

 Grid_pts file          = /home/d3y133/nwchem-dev/nwchem-trunk-nonwad/QA/scratchdir/metagga_dat.gridpts.0
 Record size in doubles =  12289        No. of grid_pts per rec  =   3070
 Max. records in memory =     16        Max. recs in file   = 253312716

 Grid integrated density:      16.000129732132
 Requested integration accuracy:   0.10E-05

           Memory utilization after 1st SCF pass: 
           Heap Space remaining (MW):       12.88            12882468
          Stack Space remaining (MW):       13.11            13106180

   convergence    iter        energy       DeltaE   RMS-Dens  Diis-err    time
 ---------------- ----- ----------------- --------- --------- ---------  ------
 d= 0,ls=0.0,diis     1    -36.3284556662 -6.17D+01  2.00D-02  2.85D+00     3.6
 Grid integrated density:      16.000096427102
 Requested integration accuracy:   0.10E-05
 d= 0,ls=0.0,diis     2    -36.5152852380 -1.87D-01  3.07D-03  3.65D-02     6.7
 Grid integrated density:      16.000090151355
 Requested integration accuracy:   0.10E-05
 d= 0,ls=0.0,diis     3    -36.5212523172 -5.97D-03  1.36D-03  8.38D-04     9.8
 Grid integrated density:      16.000089231615
 Requested integration accuracy:   0.10E-05
 d= 0,ls=0.0,diis     4    -36.5215543732 -3.02D-04  3.54D-04  6.89D-05    13.0
 Grid integrated density:      16.000089146266
 Requested integration accuracy:   0.10E-05
 d= 0,ls=0.0,diis     5    -36.5215762633 -2.19D-05  4.51D-05  8.93D-07    16.2
 Grid integrated density:      16.000089167104
 Requested integration accuracy:   0.10E-05
 d= 0,ls=0.0,diis     6    -36.5215765135 -2.50D-07  1.37D-05  8.91D-09    19.4
 Grid integrated density:      16.000089174389
 Requested integration accuracy:   0.10E-05
 d= 0,ls=0.0,diis     7    -36.5215765152 -1.69D-09  1.30D-06  2.08D-10    22.6


         Total DFT energy =      -36.521576515225
      One electron energy =      -93.843339634722
           Coulomb energy =       46.014029534507
    Exchange-Corr. energy =      -14.015744735497
 Nuclear repulsion energy =       25.323478320486

 Numeric. integr. density =       16.000089174389

     Total iterative time =     22.2s


 
                       DFT Final Molecular Orbital Analysis
                       ------------------------------------
 
 Vector    1  Occ=2.000000D+00  E=-2.824174D+00
              MO Center=  1.1D-05,  1.5D-05,  1.9D-05, r^2= 2.4D+00
   Bfn.  Coefficient  Atom+Function         Bfn.  Coefficient  Atom+Function  
  ----- ------------  ---------------      ----- ------------  ---------------
     1      0.346684  1 Li s                 60      0.346695  5 Li s          
    89      0.346696  6 Li s                118      0.346698  7 Li s          
     2      0.181342  1 Li s                 61      0.181348  5 Li s          
    90      0.181349  6 Li s                119      0.181349  7 Li s          
 
 Vector    2  Occ=2.000000D+00  E=-2.823208D+00
              MO Center= -2.6D-01,  3.4D-01,  7.9D-01, r^2= 1.6D+00
   Bfn.  Coefficient  Atom+Function         Bfn.  Coefficient  Atom+Function  
  ----- ------------  ---------------      ----- ------------  ---------------
   118      0.559105  7 Li s                 89     -0.382078  6 Li s          
   119      0.295563  7 Li s                 90     -0.201980  6 Li s          
 
 Vector    3  Occ=2.000000D+00  E=-2.823208D+00
              MO Center=  7.9D-01,  2.3D-01, -1.5D-01, r^2= 1.7D+00
   Bfn.  Coefficient  Atom+Function         Bfn.  Coefficient  Atom+Function  
  ----- ------------  ---------------      ----- ------------  ---------------
    60      0.531144  5 Li s                 89     -0.420110  6 Li s          
    61      0.280781  5 Li s                 90     -0.222085  6 Li s          
 
 Vector    4  Occ=2.000000D+00  E=-2.823208D+00
              MO Center= -5.3D-01, -5.7D-01, -6.3D-01, r^2= 1.4D+00
   Bfn.  Coefficient  Atom+Function         Bfn.  Coefficient  Atom+Function  
  ----- ------------  ---------------      ----- ------------  ---------------
     1      0.598897  1 Li s                  2      0.316598  1 Li s          
    60     -0.238993  5 Li s                 89     -0.195729  6 Li s          
   118     -0.164154  7 Li s          
 
 Vector    5  Occ=2.000000D+00  E=-5.449794D-01
              MO Center=  2.5D-08,  2.2D-08,  8.9D-08, r^2= 3.0D+00
   Bfn.  Coefficient  Atom+Function         Bfn.  Coefficient  Atom+Function  
  ----- ------------  ---------------      ----- ------------  ---------------
    31      0.197016  2 H  s                 41      0.197016  3 H  s          
    51      0.197016  4 H  s                148      0.197016  8 H  s          
    32      0.173929  2 H  s                 42      0.173930  3 H  s          
    52      0.173931  4 H  s                149      0.173928  8 H  s          
     6      0.171388  1 Li s                 65      0.171390  5 Li s          
 
 Vector    6  Occ=2.000000D+00  E=-4.575484D-01
              MO Center=  6.2D-01,  5.4D-01,  5.8D-01, r^2= 2.4D+00
   Bfn.  Coefficient  Atom+Function         Bfn.  Coefficient  Atom+Function  
  ----- ------------  ---------------      ----- ------------  ---------------
    14      0.538705  1 Li s                148      0.390145  8 H  s          
   149      0.307127  8 H  s                131     -0.204626  7 Li s          
   147      0.182547  8 H  s                 73     -0.179991  5 Li s          
   102     -0.154088  6 Li s          
 
 Vector    7  Occ=2.000000D+00  E=-4.575484D-01
              MO Center= -6.3D-01, -5.3D-01,  2.9D-01, r^2= 2.7D+00
   Bfn.  Coefficient  Atom+Function         Bfn.  Coefficient  Atom+Function  
  ----- ------------  ---------------      ----- ------------  ---------------
    73      0.507181  5 Li s                 31      0.367472  2 H  s          
    32      0.289276  2 H  s                102     -0.277163  6 Li s          
   131     -0.231976  7 Li s                 41     -0.200811  3 H  s          
    30      0.171938  2 H  s                 51     -0.168108  4 H  s          
    42     -0.158080  3 H  s          
 
 Vector    8  Occ=2.000000D+00  E=-4.575484D-01
              MO Center=  1.0D-02, -1.2D-02, -8.7D-01, r^2= 2.7D+00
   Bfn.  Coefficient  Atom+Function         Bfn.  Coefficient  Atom+Function  
  ----- ------------  ---------------      ----- ------------  ---------------
   131     -0.441702  7 Li s                102      0.436252  6 Li s          
    51     -0.320129  4 H  s                 41      0.316136  3 H  s          
    52     -0.252006  4 H  s                 42      0.248863  3 H  s          
 
 Vector    9  Occ=0.000000D+00  E=-1.946250D-02
              MO Center= -4.2D-06, -1.2D-05, -1.7D-05, r^2= 3.0D+01
   Bfn.  Coefficient  Atom+Function         Bfn.  Coefficient  Atom+Function  
  ----- ------------  ---------------      ----- ------------  ---------------
    10      0.356413  1 Li s                 69      0.357014  5 Li s          
    98      0.357232  6 Li s                127      0.357498  7 Li s          
    33     -0.253299  2 H  s                 43     -0.253312  3 H  s          
    53     -0.253327  4 H  s                150     -0.253266  8 H  s          
   131      0.184516  7 Li s                102      0.181801  6 Li s          
 
 Vector   10  Occ=0.000000D+00  E=-9.642416D-03
              MO Center= -8.4D-01, -9.6D-01, -1.3D+00, r^2= 3.0D+01
   Bfn.  Coefficient  Atom+Function         Bfn.  Coefficient  Atom+Function  
  ----- ------------  ---------------      ----- ------------  ---------------
    14      1.821914  1 Li s                 73     -0.879211  5 Li s          
   102     -0.558507  6 Li s                 15      0.406762  1 Li px         
    16      0.398131  1 Li py               131     -0.384189  7 Li s          
    17      0.382270  1 Li pz               150     -0.340598  8 H  s          
    11      0.267442  1 Li px                12      0.258528  1 Li py         
 
 Vector   11  Occ=0.000000D+00  E=-9.642383D-03
              MO Center=  1.5D+00,  2.2D-01, -1.4D-01, r^2= 3.1D+01
   Bfn.  Coefficient  Atom+Function         Bfn.  Coefficient  Atom+Function  
  ----- ------------  ---------------      ----- ------------  ---------------
    73      1.552129  5 Li s                102     -1.381575  6 Li s          
   131     -0.409679  7 Li s                 76      0.375045  5 Li pz         
    75     -0.342678  5 Li py               105      0.343418  6 Li pz         
   104     -0.311293  6 Li py                74     -0.294401  5 Li px         
    33     -0.290520  2 H  s                 43      0.258488  3 H  s          
 
 Vector   12  Occ=0.000000D+00  E=-9.642365D-03
              MO Center= -6.1D-01,  7.4D-01,  1.4D+00, r^2= 3.1D+01
   Bfn.  Coefficient  Atom+Function         Bfn.  Coefficient  Atom+Function  
  ----- ------------  ---------------      ----- ------------  ---------------
   131      1.757435  7 Li s                102     -1.088923  6 Li s          
    73     -0.475710  5 Li s                132      0.401689  7 Li px         
   133     -0.387540  7 Li py               134     -0.356998  7 Li pz         
    53     -0.329078  4 H  s                103      0.278362  6 Li px         
   128      0.267202  7 Li px               104     -0.264348  6 Li py         
 
 Vector   13  Occ=0.000000D+00  E= 9.959554D-03
              MO Center=  5.9D-04,  4.4D-04,  3.6D-03, r^2= 5.7D+01
   Bfn.  Coefficient  Atom+Function         Bfn.  Coefficient  Atom+Function  
  ----- ------------  ---------------      ----- ------------  ---------------
   105     -0.893036  6 Li pz               134     -0.893085  7 Li pz         
    17      0.881039  1 Li pz                76      0.877529  5 Li pz         
    74      0.501429  5 Li px                15     -0.495617  1 Li px         
   103      0.493919  6 Li px               132     -0.491432  7 Li px         
    75      0.396363  5 Li py                16     -0.390621  1 Li py         
 
 Vector   14  Occ=0.000000D+00  E= 9.959555D-03
              MO Center=  3.0D-04,  1.9D-03, -4.6D-05, r^2= 5.7D+01
   Bfn.  Coefficient  Atom+Function         Bfn.  Coefficient  Atom+Function  
  ----- ------------  ---------------      ----- ------------  ---------------
    75      0.801201  5 Li py               133      0.802492  7 Li py         
    16     -0.793650  1 Li py               104     -0.793721  6 Li py         
    15      0.738550  1 Li px                74     -0.736486  5 Li px         
   103     -0.739186  6 Li px               132      0.734298  7 Li px         
 
 Vector   15  Occ=0.000000D+00  E= 1.067566D-02
              MO Center=  1.4D+00,  1.6D+00,  2.1D+00, r^2= 5.5D+01
   Bfn.  Coefficient  Atom+Function         Bfn.  Coefficient  Atom+Function  
  ----- ------------  ---------------      ----- ------------  ---------------
    14     50.353101  1 Li s                 73    -23.881657  5 Li s          
   102    -15.567371  6 Li s                131    -10.904191  7 Li s          
    15      4.520001  1 Li px                16      4.295054  1 Li py         
    17      3.888881  1 Li pz                74      3.161317  5 Li px         
    75      2.931227  5 Li py               103      2.735590  6 Li px         
 
 Vector   16  Occ=0.000000D+00  E= 1.067948D-02
              MO Center= -2.4D+00, -4.0D-01,  2.5D-01, r^2= 5.9D+01
   Bfn.  Coefficient  Atom+Function         Bfn.  Coefficient  Atom+Function  
  ----- ------------  ---------------      ----- ------------  ---------------
    73     43.008668  5 Li s                102    -37.774744  6 Li s          
   131    -11.469691  7 Li s                 14      6.235713  1 Li s          
    76      4.630124  5 Li pz               105      4.353388  6 Li pz         
    75     -3.752294  5 Li py               104     -3.490293  6 Li py         
   134      3.006999  7 Li pz                17      2.734178  1 Li pz         
 
 Vector   17  Occ=0.000000D+00  E= 1.068156D-02
              MO Center=  9.9D-01, -1.2D+00, -2.4D+00, r^2= 5.6D+01
   Bfn.  Coefficient  Atom+Function         Bfn.  Coefficient  Atom+Function  
  ----- ------------  ---------------      ----- ------------  ---------------
   131     48.251374  7 Li s                102    -30.241702  6 Li s          
    73    -12.961707  5 Li s                 14     -5.047903  1 Li s          
   132      4.601237  7 Li px               133     -4.206624  7 Li py         
   103      3.673636  6 Li px               134     -3.354882  7 Li pz         
   104     -3.287140  6 Li py                74      2.785424  5 Li px         
 
 Vector   18  Occ=0.000000D+00  E= 1.399172D-02
              MO Center= -1.3D-03, -3.2D-03, -4.9D-03, r^2= 8.7D+01
   Bfn.  Coefficient  Atom+Function         Bfn.  Coefficient  Atom+Function  
  ----- ------------  ---------------      ----- ------------  ---------------
    15      0.983919  1 Li px                16      0.985207  1 Li py         
    17      0.986315  1 Li pz                74     -0.974342  5 Li px         
    76      0.978374  5 Li pz                75     -0.973015  5 Li py         
   103     -0.971452  6 Li px               104      0.974454  6 Li py         
   105     -0.969055  6 Li pz               132      0.969595  7 Li px         
 
 Vector   19  Occ=0.000000D+00  E= 1.702587D-02
              MO Center= -1.9D+00, -2.1D+00, -2.9D+00, r^2= 8.0D+01
   Bfn.  Coefficient  Atom+Function         Bfn.  Coefficient  Atom+Function  
  ----- ------------  ---------------      ----- ------------  ---------------
    14    106.302086  1 Li s                 73    -51.488652  5 Li s          
   102    -32.634782  6 Li s                131    -22.177249  7 Li s          
    15     11.402354  1 Li px                16     11.072475  1 Li py         
    17     10.463868  1 Li pz                74      6.943823  5 Li px         
    75      6.597882  5 Li py               103      5.412025  6 Li px         
 
 Vector   20  Occ=0.000000D+00  E= 1.702798D-02
              MO Center=  3.2D+00,  5.0D-01, -3.2D-01, r^2= 8.6D+01
   Bfn.  Coefficient  Atom+Function         Bfn.  Coefficient  Atom+Function  
  ----- ------------  ---------------      ----- ------------  ---------------
    73     90.748740  5 Li s                102    -80.391306  6 Li s          
   131    -24.517231  7 Li s                 14     14.160445  1 Li s          
    76     10.840642  5 Li pz               105      9.973992  6 Li pz         
    75     -9.549455  5 Li py               104     -8.728607  6 Li py         
    74     -7.729673  5 Li px               103      6.209054  6 Li px         
 
 Vector   21  Occ=0.000000D+00  E= 1.702917D-02
              MO Center= -1.4D+00,  1.6D+00,  3.2D+00, r^2= 8.2D+01
   Bfn.  Coefficient  Atom+Function         Bfn.  Coefficient  Atom+Function  
  ----- ------------  ---------------      ----- ------------  ---------------
   131    102.610391  7 Li s                102    -64.002360  6 Li s          
    73    -27.194634  5 Li s                 14    -11.414124  1 Li s          
   132     11.360383  7 Li px               133    -10.825272  7 Li py         
   134     -9.611062  7 Li pz               103      8.200542  6 Li px         
   104     -7.691003  6 Li py                74      5.193044  5 Li px         
 
 Vector   22  Occ=0.000000D+00  E= 2.525866D-02
              MO Center=  3.2D-02, -2.4D-02, -4.3D-01, r^2= 8.6D+01
   Bfn.  Coefficient  Atom+Function         Bfn.  Coefficient  Atom+Function  
  ----- ------------  ---------------      ----- ------------  ---------------
    17      9.053998  1 Li pz                76     -9.064924  5 Li pz         
    16     -4.825865  1 Li py               104      4.835360  6 Li py         
    74     -4.791105  5 Li px               103      4.802322  6 Li px         
    75     -4.246495  5 Li py               133      4.255992  7 Li py         
    15     -4.219680  1 Li px               132      4.230897  7 Li px         
 
 Vector   23  Occ=0.000000D+00  E= 2.525869D-02
              MO Center= -3.1D-01, -2.6D-01,  1.5D-01, r^2= 8.6D+01
   Bfn.  Coefficient  Atom+Function         Bfn.  Coefficient  Atom+Function  
  ----- ------------  ---------------      ----- ------------  ---------------
    15      8.012877  1 Li px               132     -8.028188  7 Li px         
    16     -7.669211  1 Li py               104      7.676040  6 Li py         
   105      5.217467  6 Li pz               134     -5.218849  7 Li pz         
    75      2.798243  5 Li py               133     -2.791412  7 Li py         
    74     -2.453569  5 Li px               103      2.438258  6 Li px         
 
 Vector   24  Occ=0.000000D+00  E= 2.525875D-02
              MO Center=  2.8D-01,  3.0D-01,  2.9D-01, r^2= 8.6D+01
   Bfn.  Coefficient  Atom+Function         Bfn.  Coefficient  Atom+Function  
  ----- ------------  ---------------      ----- ------------  ---------------
    75     -7.496167  5 Li py               133      7.502768  7 Li py         
   105      7.406212  6 Li pz               134     -7.409018  7 Li pz         
    74      7.289556  5 Li px               103     -7.293135  6 Li px         
    76     -0.211645  5 Li pz                17      0.208839  1 Li pz         
 
 Vector   25  Occ=0.000000D+00  E= 3.833841D-02
              MO Center=  7.6D-02,  8.4D-02,  1.1D-01, r^2= 6.3D+01
   Bfn.  Coefficient  Atom+Function         Bfn.  Coefficient  Atom+Function  
  ----- ------------  ---------------      ----- ------------  ---------------
    14    142.683261  1 Li s                 73    -67.401170  5 Li s          
   102    -44.116513  6 Li s                131    -31.160237  7 Li s          
    15     13.452072  1 Li px                16     12.938357  1 Li py         
    17     12.026213  1 Li pz                74      8.639280  5 Li px         
    75      8.138235  5 Li py               103      7.150229  6 Li px         
 
 Vector   26  Occ=0.000000D+00  E= 3.834811D-02
              MO Center= -1.4D-01, -2.5D-02,  8.9D-03, r^2= 6.3D+01
   Bfn.  Coefficient  Atom+Function         Bfn.  Coefficient  Atom+Function  
  ----- ------------  ---------------      ----- ------------  ---------------
    73    122.239976  5 Li s                102   -107.156775  6 Li s          
   131    -32.577969  7 Li s                 14     17.497152  1 Li s          
    76     13.223826  5 Li pz               105     12.278108  6 Li pz         
    75    -11.296311  5 Li py               104    -10.313986  6 Li py         
    74     -8.388009  5 Li px               134      7.510686  7 Li pz         
 
 Vector   27  Occ=0.000000D+00  E= 3.835341D-02
              MO Center=  5.6D-02, -7.3D-02, -1.4D-01, r^2= 6.3D+01
   Bfn.  Coefficient  Atom+Function         Bfn.  Coefficient  Atom+Function  
  ----- ------------  ---------------      ----- ------------  ---------------
   131    137.124360  7 Li s                102    -86.101925  6 Li s          
    73    -36.912739  5 Li s                 14    -14.112393  1 Li s          
   132     13.519160  7 Li px               133    -12.647108  7 Li py         
   134    -10.741100  7 Li pz               103     10.277931  6 Li px         
   104     -9.385383  6 Li py                74      7.147215  5 Li px         
 
 Vector   28  Occ=0.000000D+00  E= 4.201124D-02
              MO Center=  1.7D-03,  4.4D-03,  6.6D-03, r^2= 5.1D+01
   Bfn.  Coefficient  Atom+Function         Bfn.  Coefficient  Atom+Function  
  ----- ------------  ---------------      ----- ------------  ---------------
    33      1.697072  2 H  s                 43      1.695607  3 H  s          
    53      1.693811  4 H  s                150      1.701165  8 H  s          
   134      1.273699  7 Li pz               105      1.266688  6 Li pz         
   133      1.269875  7 Li py               132     -1.259238  7 Li px         
    74      1.252645  5 Li px                75      1.257258  5 Li py         
 
 Vector   29  Occ=0.000000D+00  E= 4.414873D-02
              MO Center= -4.4D-05, -1.0D-04, -4.8D-06, r^2= 4.7D+01
   Bfn.  Coefficient  Atom+Function         Bfn.  Coefficient  Atom+Function  
  ----- ------------  ---------------      ----- ------------  ---------------
    15      0.917656  1 Li px                74     -0.917723  5 Li px         
   103     -0.917650  6 Li px               132      0.918226  7 Li px         
    11     -0.791543  1 Li px                70      0.791454  5 Li px         
    99      0.791490  6 Li px               128     -0.791363  7 Li px         
    16     -0.754472  1 Li py                75      0.753842  5 Li py         
 
 Vector   30  Occ=0.000000D+00  E= 4.414873D-02
              MO Center= -2.2D-05, -6.7D-05, -2.5D-04, r^2= 4.7D+01
   Bfn.  Coefficient  Atom+Function         Bfn.  Coefficient  Atom+Function  
  ----- ------------  ---------------      ----- ------------  ---------------
    17      0.965725  1 Li pz                76      0.966167  5 Li pz         
   105     -0.964524  6 Li pz               134     -0.964625  7 Li pz         
    13     -0.832398  1 Li pz                72     -0.832252  5 Li pz         
   101      0.832447  6 Li pz               130      0.832416  7 Li pz         
    16     -0.624534  1 Li py                75      0.623767  5 Li py         
 
 Vector   31  Occ=0.000000D+00  E= 5.757895D-02
              MO Center= -1.0D-01, -1.2D-01, -1.5D-01, r^2= 5.8D+01
   Bfn.  Coefficient  Atom+Function         Bfn.  Coefficient  Atom+Function  
  ----- ------------  ---------------      ----- ------------  ---------------
    14    131.974556  1 Li s                 73    -62.631920  5 Li s          
   102    -40.760731  6 Li s                131    -28.582933  7 Li s          
    15     13.498362  1 Li px                16     13.122255  1 Li py         
    17     12.450208  1 Li pz                10     12.080983  1 Li s          
    74      8.071206  5 Li px                75      7.699004  5 Li py         
 
 Vector   32  Occ=0.000000D+00  E= 5.759615D-02
              MO Center=  1.8D-01,  2.8D-02, -1.8D-02, r^2= 5.8D+01
   Bfn.  Coefficient  Atom+Function         Bfn.  Coefficient  Atom+Function  
  ----- ------------  ---------------      ----- ------------  ---------------
    73    113.107090  5 Li s                102    -99.407590  6 Li s          
   131    -30.146449  7 Li s                 14     16.446489  1 Li s          
    76     12.817130  5 Li pz               105     11.751448  6 Li pz         
    75    -11.395806  5 Li py                69     10.341191  5 Li s          
   104    -10.318848  6 Li py                74     -9.271373  5 Li px         
 
 Vector   33  Occ=0.000000D+00  E= 5.760562D-02
              MO Center= -7.4D-02,  9.0D-02,  1.7D-01, r^2= 5.8D+01
   Bfn.  Coefficient  Atom+Function         Bfn.  Coefficient  Atom+Function  
  ----- ------------  ---------------      ----- ------------  ---------------
   131    127.189614  7 Li s                102    -79.688452  6 Li s          
    73    -34.203204  5 Li s                132     13.439323  7 Li px         
    14    -13.297437  1 Li s                133    -12.803334  7 Li py         
   127     11.619327  7 Li s                134    -11.411864  7 Li pz         
   103      9.724984  6 Li px               104     -9.082672  6 Li py         
 
 Vector   34  Occ=0.000000D+00  E= 7.100826D-02
              MO Center=  1.8D-01, -2.2D-01, -4.0D-01, r^2= 4.2D+01
   Bfn.  Coefficient  Atom+Function         Bfn.  Coefficient  Atom+Function  
  ----- ------------  ---------------      ----- ------------  ---------------
    17      5.328683  1 Li pz                76     -5.323579  5 Li pz         
    16     -4.249484  1 Li py               104      4.244428  6 Li py         
    13     -3.705346  1 Li pz                72      3.706514  5 Li pz         
    74     -3.691541  5 Li px               103      3.688356  6 Li px         
    12      2.953571  1 Li py               100     -2.954613  6 Li py         
 
 Vector   35  Occ=0.000000D+00  E= 7.100829D-02
              MO Center= -4.2D-01, -5.2D-02,  3.4D-02, r^2= 4.2D+01
   Bfn.  Coefficient  Atom+Function         Bfn.  Coefficient  Atom+Function  
  ----- ------------  ---------------      ----- ------------  ---------------
    15      5.530619  1 Li px               132     -5.522275  7 Li px         
    11     -3.843139  1 Li px               128      3.845002  7 Li px         
    16     -3.627303  1 Li py               104      3.625959  6 Li py         
    75      3.085322  5 Li py               133     -3.086649  7 Li py         
    12      2.523624  1 Li py               100     -2.523868  6 Li py         
 
 Vector   36  Occ=0.000000D+00  E= 7.100833D-02
              MO Center=  2.4D-01,  2.7D-01,  3.7D-01, r^2= 4.2D+01
   Bfn.  Coefficient  Atom+Function         Bfn.  Coefficient  Atom+Function  
  ----- ------------  ---------------      ----- ------------  ---------------
   105      5.083516  6 Li pz               134     -5.081861  7 Li pz         
    75     -4.462658  5 Li py               133      4.458811  7 Li py         
    74      4.135253  5 Li px               103     -4.132608  6 Li px         
   101     -3.533448  6 Li pz               130      3.533794  7 Li pz         
    71      3.102161  5 Li py               129     -3.103008  7 Li py         
 
 Vector   37  Occ=0.000000D+00  E= 7.641482D-02
              MO Center= -7.8D-04, -1.9D-03, -2.8D-03, r^2= 4.3D+01
   Bfn.  Coefficient  Atom+Function         Bfn.  Coefficient  Atom+Function  
  ----- ------------  ---------------      ----- ------------  ---------------
    33      8.617732  2 H  s                 43      8.618562  3 H  s          
    53      8.619581  4 H  s                150      8.615305  8 H  s          
    10     -6.813872  1 Li s                 69     -6.797147  5 Li s          
    98     -6.791269  6 Li s                127     -6.784053  7 Li s          
    11     -2.773234  1 Li px                12     -2.773379  1 Li py         
 
 Vector   38  Occ=0.000000D+00  E= 8.062118D-02
              MO Center= -3.7D-01,  4.5D-01,  8.7D-01, r^2= 3.1D+01
   Bfn.  Coefficient  Atom+Function         Bfn.  Coefficient  Atom+Function  
  ----- ------------  ---------------      ----- ------------  ---------------
   127     36.763038  7 Li s                 98    -23.009356  6 Li s          
   131     18.496752  7 Li s                102    -11.575949  6 Li s          
    69     -9.849579  5 Li s                128      7.580872  7 Li px         
   129     -7.293456  7 Li py               130     -6.657676  7 Li pz         
    99      5.338109  6 Li px               100     -5.050527  6 Li py         
 
 Vector   39  Occ=0.000000D+00  E= 8.062135D-02
              MO Center=  8.8D-01,  1.4D-01, -9.1D-02, r^2= 3.1D+01
   Bfn.  Coefficient  Atom+Function         Bfn.  Coefficient  Atom+Function  
  ----- ------------  ---------------      ----- ------------  ---------------
    69     32.656263  5 Li s                 98    -28.759201  6 Li s          
    73     16.427180  5 Li s                102    -14.463582  6 Li s          
   127     -8.737948  7 Li s                 72      7.134389  5 Li pz         
    71     -6.478784  5 Li py               101      6.500089  6 Li pz         
   100     -5.844194  6 Li py                70     -5.511348  5 Li px         
 
 Vector   40  Occ=0.000000D+00  E= 8.062163D-02
              MO Center= -5.2D-01, -5.9D-01, -7.8D-01, r^2= 3.0D+01
   Bfn.  Coefficient  Atom+Function         Bfn.  Coefficient  Atom+Function  
  ----- ------------  ---------------      ----- ------------  ---------------
    10     38.160551  1 Li s                 14     19.183096  1 Li s          
    69    -18.207449  5 Li s                 98    -11.768070  6 Li s          
    73     -9.148398  5 Li s                127     -8.197658  7 Li s          
    11      7.667742  1 Li px                12      7.495089  1 Li py         
    13      7.183972  1 Li pz               102     -5.918333  6 Li s          
 
 Vector   41  Occ=0.000000D+00  E= 1.312933D-01
              MO Center= -6.0D-01, -6.8D-01, -8.9D-01, r^2= 2.9D+01
   Bfn.  Coefficient  Atom+Function         Bfn.  Coefficient  Atom+Function  
  ----- ------------  ---------------      ----- ------------  ---------------
    14     96.002876  1 Li s                 73    -45.602379  5 Li s          
   102    -29.637429  6 Li s                131    -20.762878  7 Li s          
    15      9.120778  1 Li px                10     -9.041564  1 Li s          
    16      8.795682  1 Li py                17      8.211728  1 Li pz         
    74      5.775823  5 Li px                75      5.451749  5 Li py         
 
 Vector   42  Occ=0.000000D+00  E= 1.313026D-01
              MO Center=  1.0D+00,  1.7D-01, -1.1D-01, r^2= 2.9D+01
   Bfn.  Coefficient  Atom+Function         Bfn.  Coefficient  Atom+Function  
  ----- ------------  ---------------      ----- ------------  ---------------
    73     82.239554  5 Li s                102    -72.290961  6 Li s          
   131    -21.948932  7 Li s                 14     12.000427  1 Li s          
    76      8.900290  5 Li pz               105      8.241554  6 Li pz         
    69     -7.743490  5 Li s                 75     -7.661314  5 Li py         
   104     -6.999627  6 Li py                98      6.807140  6 Li s          
 
 Vector   43  Occ=0.000000D+00  E= 1.313077D-01
              MO Center= -4.2D-01,  5.1D-01,  1.0D+00, r^2= 2.9D+01
   Bfn.  Coefficient  Atom+Function         Bfn.  Coefficient  Atom+Function  
  ----- ------------  ---------------      ----- ------------  ---------------
   131     92.475258  7 Li s                102    -57.945532  6 Li s          
    73    -24.841315  5 Li s                 14     -9.688512  1 Li s          
   132      9.160898  7 Li px               127     -8.706483  7 Li s          
   133     -8.608378  7 Li py               134     -7.399266  7 Li pz         
   103      6.870466  6 Li px               104     -6.316290  6 Li py         
 
 Vector   44  Occ=0.000000D+00  E= 1.428808D-01
              MO Center=  2.3D-04,  6.1D-04,  9.1D-04, r^2= 2.6D+01
   Bfn.  Coefficient  Atom+Function         Bfn.  Coefficient  Atom+Function  
  ----- ------------  ---------------      ----- ------------  ---------------
    10      2.416356  1 Li s                 69      2.422194  5 Li s          
    98      2.424286  6 Li s                127      2.426845  7 Li s          
    15     -0.839799  1 Li px                16     -0.839427  1 Li py         
   134      0.843562  7 Li pz                17     -0.839120  1 Li pz         
    74      0.841715  5 Li px                75      0.842089  5 Li py         
 
 Vector   45  Occ=0.000000D+00  E= 1.485470D-01
              MO Center=  5.0D-01,  5.7D-01,  7.5D-01, r^2= 2.4D+01
   Bfn.  Coefficient  Atom+Function         Bfn.  Coefficient  Atom+Function  
  ----- ------------  ---------------      ----- ------------  ---------------
    10     28.968775  1 Li s                 14     18.138379  1 Li s          
    69    -13.720008  5 Li s                150     -9.282592  8 H  s          
    98     -8.954928  6 Li s                 73     -8.589655  5 Li s          
   127     -6.287623  7 Li s                102     -5.613371  6 Li s          
    11      4.818066  1 Li px                12      4.488160  1 Li py         
 
 Vector   46  Occ=0.000000D+00  E= 1.485664D-01
              MO Center= -8.5D-01, -1.4D-01,  9.1D-02, r^2= 2.4D+01
   Bfn.  Coefficient  Atom+Function         Bfn.  Coefficient  Atom+Function  
  ----- ------------  ---------------      ----- ------------  ---------------
    69     24.822600  5 Li s                 98    -21.790880  6 Li s          
    73     15.591200  5 Li s                102    -13.685823  6 Li s          
    33     -7.952534  2 H  s                 43      6.980429  3 H  s          
   127     -6.613746  7 Li s                 72      5.237732  5 Li pz         
   101      5.027105  6 Li pz               131     -4.152751  7 Li s          
 
 Vector   47  Occ=0.000000D+00  E= 1.485770D-01
              MO Center=  3.5D-01, -4.3D-01, -8.4D-01, r^2= 2.4D+01
   Bfn.  Coefficient  Atom+Function         Bfn.  Coefficient  Atom+Function  
  ----- ------------  ---------------      ----- ------------  ---------------
   127     27.883644  7 Li s                 98    -17.483307  6 Li s          
   131     17.543352  7 Li s                102    -10.996667  6 Li s          
    53     -8.931618  4 H  s                 69     -7.499242  5 Li s          
    43      5.600914  3 H  s                128      5.027648  7 Li px         
    73     -4.716351  5 Li s                129     -4.460038  7 Li py         
 
 Vector   48  Occ=0.000000D+00  E= 1.522812D-01
              MO Center=  6.2D-07,  1.0D-05,  1.5D-05, r^2= 1.5D+01
   Bfn.  Coefficient  Atom+Function         Bfn.  Coefficient  Atom+Function  
  ----- ------------  ---------------      ----- ------------  ---------------
    13     -0.676705  1 Li pz                72     -0.676647  5 Li pz         
   101      0.676946  6 Li pz               130      0.676921  7 Li pz         
    12      0.635006  1 Li py                71     -0.635205  5 Li py         
   100      0.634964  6 Li py               129     -0.635127  7 Li py         
     9      0.507750  1 Li pz                68      0.507802  5 Li pz         
 
 Vector   49  Occ=0.000000D+00  E= 1.522812D-01
              MO Center=  5.6D-06,  4.9D-06,  7.5D-06, r^2= 1.5D+01
   Bfn.  Coefficient  Atom+Function         Bfn.  Coefficient  Atom+Function  
  ----- ------------  ---------------      ----- ------------  ---------------
    11      0.757410  1 Li px                70     -0.757465  5 Li px         
    99     -0.757445  6 Li px               128      0.757337  7 Li px         
     7     -0.568174  1 Li px                66      0.568167  5 Li px         
    95      0.568186  6 Li px               124     -0.568247  7 Li px         
    12     -0.414771  1 Li py                71      0.414870  5 Li py         
 
 Vector   50  Occ=0.000000D+00  E= 1.615550D-01
              MO Center= -1.3D-04, -2.9D-04, -4.2D-04, r^2= 2.2D+01
   Bfn.  Coefficient  Atom+Function         Bfn.  Coefficient  Atom+Function  
  ----- ------------  ---------------      ----- ------------  ---------------
    33     16.034950  2 H  s                 43     16.035500  3 H  s          
    53     16.036166  4 H  s                150     16.033287  8 H  s          
    10    -11.584897  1 Li s                 69    -11.587913  5 Li s          
    98    -11.588920  6 Li s                127    -11.590134  7 Li s          
    11     -3.128286  1 Li px                12     -3.127993  1 Li py         
 
 Vector   51  Occ=0.000000D+00  E= 2.172860D-01
              MO Center=  2.4D-01,  2.7D-01,  3.6D-01, r^2= 1.9D+01
   Bfn.  Coefficient  Atom+Function         Bfn.  Coefficient  Atom+Function  
  ----- ------------  ---------------      ----- ------------  ---------------
    14     49.234306  1 Li s                 73    -23.358862  5 Li s          
   102    -15.208105  6 Li s                131    -10.667371  7 Li s          
    15      5.060803  1 Li px                16      4.929433  1 Li py         
    17      4.690309  1 Li pz                 6     -4.392100  1 Li s          
    10     -3.879672  1 Li s                149      3.166547  8 H  s          
 
 Vector   52  Occ=0.000000D+00  E= 2.172907D-01
              MO Center= -4.1D-01, -7.0D-02,  4.2D-02, r^2= 1.9D+01
   Bfn.  Coefficient  Atom+Function         Bfn.  Coefficient  Atom+Function  
  ----- ------------  ---------------      ----- ------------  ---------------
    73     42.172993  5 Li s                102    -37.045507  6 Li s          
   131    -11.254713  7 Li s                 14      6.127212  1 Li s          
    76      4.789334  5 Li pz               105      4.376477  6 Li pz         
    75     -4.272243  5 Li py               104     -3.867274  6 Li py         
    65     -3.759973  5 Li s                 74     -3.513505  5 Li px         
 
 Vector   53  Occ=0.000000D+00  E= 2.172933D-01
              MO Center=  1.7D-01, -2.1D-01, -4.0D-01, r^2= 1.9D+01
   Bfn.  Coefficient  Atom+Function         Bfn.  Coefficient  Atom+Function  
  ----- ------------  ---------------      ----- ------------  ---------------
   131     47.392459  7 Li s                102    -29.710879  6 Li s          
    73    -12.731760  5 Li s                132      5.033256  7 Li px         
    14     -4.949804  1 Li s                133     -4.800316  7 Li py         
   134     -4.297916  7 Li pz               123     -4.223938  7 Li s          
   127     -3.740666  7 Li s                103      3.620964  6 Li px         
 
 Vector   54  Occ=0.000000D+00  E= 2.174154D-01
              MO Center=  2.9D-01,  3.3D-01,  3.9D-01, r^2= 1.8D+01
   Bfn.  Coefficient  Atom+Function         Bfn.  Coefficient  Atom+Function  
  ----- ------------  ---------------      ----- ------------  ---------------
   101     -2.794399  6 Li pz               130      2.794854  7 Li pz         
    97      2.753932  6 Li pz               126     -2.755202  7 Li pz         
    71      2.586943  5 Li py               129     -2.588165  7 Li py         
    67     -2.549794  5 Li py               125      2.553551  7 Li py         
    70     -2.431247  5 Li px                99      2.432085  6 Li px         
 
 Vector   55  Occ=0.000000D+00  E= 2.174154D-01
              MO Center= -4.5D-01, -1.4D-01,  9.2D-02, r^2= 1.8D+01
   Bfn.  Coefficient  Atom+Function         Bfn.  Coefficient  Atom+Function  
  ----- ------------  ---------------      ----- ------------  ---------------
    11     -3.077935  1 Li px               128      3.080774  7 Li px         
     7      3.032358  1 Li px               124     -3.041167  7 Li px         
    15      2.509123  1 Li px               132     -2.495709  7 Li px         
    12      2.286410  1 Li py               100     -2.286953  6 Li py         
     8     -2.255158  1 Li py                96      2.256777  6 Li py         
 
 Vector   56  Occ=0.000000D+00  E= 2.174154D-01
              MO Center=  1.6D-01, -1.8D-01, -4.8D-01, r^2= 1.8D+01
   Bfn.  Coefficient  Atom+Function         Bfn.  Coefficient  Atom+Function  
  ----- ------------  ---------------      ----- ------------  ---------------
    13     -3.105590  1 Li pz                72      3.107462  5 Li pz         
     9      3.061595  1 Li pz                68     -3.067460  5 Li pz         
    17      2.526731  1 Li pz                76     -2.517857  5 Li pz         
    12      2.222680  1 Li py               100     -2.224194  6 Li py         
     8     -2.190364  1 Li py                96      2.194879  6 Li py         
 
 Vector   57  Occ=0.000000D+00  E= 2.495039D-01
              MO Center= -4.3D-01, -4.9D-01, -6.4D-01, r^2= 1.5D+01
   Bfn.  Coefficient  Atom+Function         Bfn.  Coefficient  Atom+Function  
  ----- ------------  ---------------      ----- ------------  ---------------
    14     37.016925  1 Li s                 73    -17.526466  5 Li s          
    10     14.854005  1 Li s                102    -11.450286  6 Li s          
     6    -10.562157  1 Li s                131     -8.040206  7 Li s          
    69     -7.032955  5 Li s                  7     -5.197703  1 Li px         
     8     -5.046258  1 Li py                65      5.000768  5 Li s          
 
 Vector   58  Occ=0.000000D+00  E= 2.495089D-01
              MO Center=  7.3D-01,  1.2D-01, -7.8D-02, r^2= 1.5D+01
   Bfn.  Coefficient  Atom+Function         Bfn.  Coefficient  Atom+Function  
  ----- ------------  ---------------      ----- ------------  ---------------
    73     31.730325  5 Li s                102    -27.850322  6 Li s          
    69     12.726340  5 Li s                 98    -11.170120  6 Li s          
    65     -9.049605  5 Li s                131     -8.452673  7 Li s          
    94      7.942912  6 Li s                 68     -4.962277  5 Li pz         
    14      4.572655  1 Li s                 97     -4.552442  6 Li pz         
 
 Vector   59  Occ=0.000000D+00  E= 2.495116D-01
              MO Center= -3.0D-01,  3.7D-01,  7.2D-01, r^2= 1.5D+01
   Bfn.  Coefficient  Atom+Function         Bfn.  Coefficient  Atom+Function  
  ----- ------------  ---------------      ----- ------------  ---------------
   131     35.644950  7 Li s                102    -22.349094  6 Li s          
   127     14.292525  7 Li s                123    -10.163462  7 Li s          
    73     -9.586130  5 Li s                 98     -8.961170  6 Li s          
    94      6.372298  6 Li s                124     -5.180571  7 Li px         
   125      4.919800  7 Li py               126      4.353402  7 Li pz         
 
 Vector   60  Occ=0.000000D+00  E= 2.995605D-01
              MO Center= -3.6D-06, -9.0D-06, -1.3D-05, r^2= 7.9D+00
   Bfn.  Coefficient  Atom+Function         Bfn.  Coefficient  Atom+Function  
  ----- ------------  ---------------      ----- ------------  ---------------
    33      8.162083  2 H  s                 43      8.162078  3 H  s          
    53      8.162073  4 H  s                150      8.162087  8 H  s          
    10     -5.586960  1 Li s                 69     -5.587134  5 Li s          
    98     -5.587174  6 Li s                127     -5.587221  7 Li s          
    32     -1.664065  2 H  s                 42     -1.664144  3 H  s          
 
 Vector   61  Occ=0.000000D+00  E= 3.482663D-01
              MO Center=  8.6D-07,  2.6D-06,  4.1D-06, r^2= 1.1D+01
   Bfn.  Coefficient  Atom+Function         Bfn.  Coefficient  Atom+Function  
  ----- ------------  ---------------      ----- ------------  ---------------
    33      3.569901  2 H  s                 43      3.569937  3 H  s          
    53      3.569981  4 H  s                150      3.569801  8 H  s          
    32     -3.191199  2 H  s                 42     -3.191151  3 H  s          
    52     -3.191093  4 H  s                149     -3.191325  8 H  s          
    10     -2.431545  1 Li s                 69     -2.431713  5 Li s          
 
 Vector   62  Occ=0.000000D+00  E= 3.703517D-01
              MO Center= -3.5D-01, -3.9D-01, -5.2D-01, r^2= 1.4D+01
   Bfn.  Coefficient  Atom+Function         Bfn.  Coefficient  Atom+Function  
  ----- ------------  ---------------      ----- ------------  ---------------
    14     45.809229  1 Li s                 73    -21.709491  5 Li s          
     6    -14.742555  1 Li s                102    -14.159821  6 Li s          
   131     -9.939884  7 Li s                  7     -7.000029  1 Li px         
    65      6.986446  5 Li s                  8     -6.873452  1 Li py         
     9     -6.646486  1 Li pz                10     -5.989200  1 Li s          
 
 Vector   63  Occ=0.000000D+00  E= 3.703614D-01
              MO Center=  5.9D-01,  9.8D-02, -6.3D-02, r^2= 1.4D+01
   Bfn.  Coefficient  Atom+Function         Bfn.  Coefficient  Atom+Function  
  ----- ------------  ---------------      ----- ------------  ---------------
    73     39.258449  5 Li s                102    -34.466803  6 Li s          
    65    -12.630467  5 Li s                 94     11.088681  6 Li s          
   131    -10.470816  7 Li s                 68     -6.425889  5 Li pz         
    67      5.938337  5 Li py                97     -5.805427  6 Li pz         
    14      5.679184  1 Li s                 96      5.320346  6 Li py         
 
 Vector   64  Occ=0.000000D+00  E= 3.703667D-01
              MO Center= -2.4D-01,  3.0D-01,  5.8D-01, r^2= 1.4D+01
   Bfn.  Coefficient  Atom+Function         Bfn.  Coefficient  Atom+Function  
  ----- ------------  ---------------      ----- ------------  ---------------
   131     44.108265  7 Li s                102    -27.658607  6 Li s          
   123    -14.188225  7 Li s                 73    -11.853552  5 Li s          
    94      8.896680  6 Li s                124     -6.887943  7 Li px         
   125      6.668580  7 Li py               126      6.192424  7 Li pz         
   127     -5.762949  7 Li s                 95     -4.762170  6 Li px         
 
 Vector   65  Occ=0.000000D+00  E= 3.716191D-01
              MO Center= -6.7D-06, -5.3D-05, -1.3D-04, r^2= 1.0D+01
   Bfn.  Coefficient  Atom+Function         Bfn.  Coefficient  Atom+Function  
  ----- ------------  ---------------      ----- ------------  ---------------
    25      0.903865  1 Li dxy               84      0.903265  5 Li dxy        
   113     -0.903696  6 Li dxy              142     -0.903390  7 Li dxy        
    26     -0.684866  1 Li dxz               85      0.685000  5 Li dxz        
   114     -0.684144  6 Li dxz              143      0.683987  7 Li dxz        
    97     -0.423748  6 Li pz                 9      0.421617  1 Li pz         
 
 Vector   66  Occ=0.000000D+00  E= 3.716191D-01
              MO Center= -3.3D-05, -4.8D-05, -2.1D-05, r^2= 1.0D+01
   Bfn.  Coefficient  Atom+Function         Bfn.  Coefficient  Atom+Function  
  ----- ------------  ---------------      ----- ------------  ---------------
    28      0.917258  1 Li dyz               87     -0.916824  5 Li dyz        
   116     -0.916897  6 Li dyz              145      0.916474  7 Li dyz        
    26     -0.648074  1 Li dxz               85      0.647849  5 Li dxz        
   114     -0.648214  6 Li dxz              143      0.648418  7 Li dxz        
     7      0.428924  1 Li px                66     -0.428695  5 Li px         
 
 Vector   67  Occ=0.000000D+00  E= 3.796090D-01
              MO Center=  1.5D-01, -2.0D-01, -3.4D-01, r^2= 9.2D+00
   Bfn.  Coefficient  Atom+Function         Bfn.  Coefficient  Atom+Function  
  ----- ------------  ---------------      ----- ------------  ---------------
    29      0.910504  1 Li dzz               88     -0.910506  5 Li dzz        
    25      0.904485  1 Li dxy               84     -0.904495  5 Li dxy        
    27     -0.744789  1 Li dyy              115      0.744790  6 Li dyy        
    26     -0.739870  1 Li dxz              114      0.739881  6 Li dxz        
    83      0.632545  5 Li dxx              112     -0.632540  6 Li dxx        
 
 Vector   68  Occ=0.000000D+00  E= 3.796090D-01
              MO Center= -3.6D-01, -3.9D-02,  2.7D-02, r^2= 9.3D+00
   Bfn.  Coefficient  Atom+Function         Bfn.  Coefficient  Atom+Function  
  ----- ------------  ---------------      ----- ------------  ---------------
    24      0.955875  1 Li dxx              141     -0.955880  7 Li dxx        
    28      0.949564  1 Li dyz              145     -0.949584  7 Li dyz        
    27     -0.611171  1 Li dyy              115      0.611181  6 Li dyy        
    26     -0.607131  1 Li dxz              114      0.607140  6 Li dxz        
    86     -0.527379  5 Li dyy              144      0.527390  7 Li dyy        
 
 Vector   69  Occ=0.000000D+00  E= 3.796090D-01
              MO Center=  2.1D-01,  2.4D-01,  3.1D-01, r^2= 9.2D+00
   Bfn.  Coefficient  Atom+Function         Bfn.  Coefficient  Atom+Function  
  ----- ------------  ---------------      ----- ------------  ---------------
   117     -0.868548  6 Li dzz              146      0.868549  7 Li dzz        
   113      0.862841  6 Li dxy              142     -0.862845  7 Li dxy        
    86      0.771484  5 Li dyy              144     -0.771482  7 Li dyy        
    85     -0.766390  5 Li dxz              143      0.766396  7 Li dxz        
    83     -0.719105  5 Li dxx              112      0.719102  6 Li dxx        
 
 Vector   70  Occ=0.000000D+00  E= 4.276810D-01
              MO Center=  1.9D-01,  2.2D-01,  2.8D-01, r^2= 1.4D+01
   Bfn.  Coefficient  Atom+Function         Bfn.  Coefficient  Atom+Function  
  ----- ------------  ---------------      ----- ------------  ---------------
    97      5.587261  6 Li pz               126     -5.587361  7 Li pz         
    67     -4.970624  5 Li py               125      4.970834  7 Li py         
    66      4.617826  5 Li px                95     -4.617952  6 Li px         
   113     -2.918290  6 Li dxy              142      2.918011  7 Li dxy        
    85      2.596301  5 Li dxz              143     -2.595679  7 Li dxz        
 
 Vector   71  Occ=0.000000D+00  E= 4.276814D-01
              MO Center= -3.2D-01, -5.5D-02,  3.5D-02, r^2= 1.4D+01
   Bfn.  Coefficient  Atom+Function         Bfn.  Coefficient  Atom+Function  
  ----- ------------  ---------------      ----- ------------  ---------------
     7      6.102041  1 Li px               124     -6.102300  7 Li px         
     8     -4.123606  1 Li py                96      4.123554  6 Li py         
    67      3.314219  5 Li py               125     -3.313853  7 Li py         
    28     -3.187514  1 Li dyz              145      3.186181  7 Li dyz        
    97      2.788260  6 Li pz               126     -2.788133  7 Li pz         
 
 Vector   72  Occ=0.000000D+00  E= 4.276815D-01
              MO Center=  1.3D-01, -1.6D-01, -3.2D-01, r^2= 1.4D+01
   Bfn.  Coefficient  Atom+Function         Bfn.  Coefficient  Atom+Function  
  ----- ------------  ---------------      ----- ------------  ---------------
     9      5.941972  1 Li pz                68     -5.942154  5 Li pz         
     8     -4.626277  1 Li py                96      4.626574  6 Li py         
    66     -4.029711  5 Li px                95      4.029940  6 Li px         
    25     -3.103512  1 Li dxy               84      3.102691  5 Li dxy        
    13     -2.666615  1 Li pz                72      2.666577  5 Li pz         
 
 Vector   73  Occ=0.000000D+00  E= 4.356160D-01
              MO Center=  5.3D-06,  6.4D-05,  1.1D-04, r^2= 9.5D+00
   Bfn.  Coefficient  Atom+Function         Bfn.  Coefficient  Atom+Function  
  ----- ------------  ---------------      ----- ------------  ---------------
    29      1.293903  1 Li dzz               88      1.294291  5 Li dzz        
   117      1.294167  6 Li dzz              146      1.294282  7 Li dzz        
    27     -1.159435  1 Li dyy               86     -1.159575  5 Li dyy        
   115     -1.159805  6 Li dyy              144     -1.159831  7 Li dyy        
     9      0.792544  1 Li pz                68      0.793327  5 Li pz         
 
 Vector   74  Occ=0.000000D+00  E= 4.356160D-01
              MO Center=  3.3D-05,  3.6D-05,  4.2D-05, r^2= 9.5D+00
   Bfn.  Coefficient  Atom+Function         Bfn.  Coefficient  Atom+Function  
  ----- ------------  ---------------      ----- ------------  ---------------
    24      1.416330  1 Li dxx               83      1.416645  5 Li dxx        
   112      1.416822  6 Li dxx              141      1.417063  7 Li dxx        
     7      0.867348  1 Li px                66     -0.868200  5 Li px         
    95     -0.868686  6 Li px               124      0.869189  7 Li px         
    27     -0.824670  1 Li dyy               86     -0.824779  5 Li dyy        
 
 Vector   75  Occ=0.000000D+00  E= 4.419893D-01
              MO Center= -1.5D-01, -1.7D-01, -2.3D-01, r^2= 1.1D+01
   Bfn.  Coefficient  Atom+Function         Bfn.  Coefficient  Atom+Function  
  ----- ------------  ---------------      ----- ------------  ---------------
    10      9.409862  1 Li s                 14     -6.395244  1 Li s          
    69     -4.455117  5 Li s                  6      4.174164  1 Li s          
   149     -4.084742  8 H  s                 73      3.028250  5 Li s          
   150     -3.022779  8 H  s                 98     -2.909195  6 Li s          
     7      2.420348  1 Li px                 8      2.239695  1 Li py         
 
 Vector   76  Occ=0.000000D+00  E= 4.419944D-01
              MO Center=  2.6D-01,  4.3D-02, -2.8D-02, r^2= 1.1D+01
   Bfn.  Coefficient  Atom+Function         Bfn.  Coefficient  Atom+Function  
  ----- ------------  ---------------      ----- ------------  ---------------
    69      8.065236  5 Li s                 98     -7.076677  6 Li s          
    73     -5.481793  5 Li s                102      4.810218  6 Li s          
    65      3.577793  5 Li s                 32     -3.498838  2 H  s          
    94     -3.139318  6 Li s                 42      3.069973  3 H  s          
    68      2.676913  5 Li pz                33     -2.590334  2 H  s          
 
 Vector   77  Occ=0.000000D+00  E= 4.419973D-01
              MO Center= -1.1D-01,  1.3D-01,  2.5D-01, r^2= 1.1D+01
   Bfn.  Coefficient  Atom+Function         Bfn.  Coefficient  Atom+Function  
  ----- ------------  ---------------      ----- ------------  ---------------
   127      9.057676  7 Li s                131     -6.156842  7 Li s          
    98     -5.682747  6 Li s                123      4.018154  7 Li s          
    52     -3.928008  4 H  s                102      3.863077  6 Li s          
    53     -2.908756  4 H  s                124      2.540082  7 Li px         
    94     -2.520938  6 Li s                 42      2.464406  3 H  s          
 
 Vector   78  Occ=0.000000D+00  E= 4.757964D-01
              MO Center=  2.8D-01, -3.4D-01, -6.7D-01, r^2= 1.1D+01
   Bfn.  Coefficient  Atom+Function         Bfn.  Coefficient  Atom+Function  
  ----- ------------  ---------------      ----- ------------  ---------------
   131     17.289240  7 Li s                102    -10.839109  6 Li s          
    52     10.325926  4 H  s                127      8.672920  7 Li s          
    42     -6.473792  3 H  s                 98     -5.437630  6 Li s          
    73     -4.652476  5 Li s                  7     -2.989816  1 Li px         
    53     -2.961616  4 H  s                 67      2.966937  5 Li py         
 
 Vector   79  Occ=0.000000D+00  E= 4.758002D-01
              MO Center= -6.8D-01, -1.1D-01,  7.3D-02, r^2= 1.2D+01
   Bfn.  Coefficient  Atom+Function         Bfn.  Coefficient  Atom+Function  
  ----- ------------  ---------------      ----- ------------  ---------------
    73     15.397746  5 Li s                102    -13.511924  6 Li s          
    32      9.195243  2 H  s                 42     -8.069255  3 H  s          
    69      7.725237  5 Li s                 98     -6.779152  6 Li s          
   131     -4.097559  7 Li s                  9     -2.693623  1 Li pz         
    33     -2.637728  2 H  s                125      2.642687  7 Li py         
 
 Vector   80  Occ=0.000000D+00  E= 4.758071D-01
              MO Center=  4.0D-01,  4.5D-01,  5.9D-01, r^2= 1.1D+01
   Bfn.  Coefficient  Atom+Function         Bfn.  Coefficient  Atom+Function  
  ----- ------------  ---------------      ----- ------------  ---------------
    14     17.971406  1 Li s                149     10.730324  8 H  s          
    10      9.018993  1 Li s                 73     -8.502252  5 Li s          
   102     -5.562506  6 Li s                 32     -5.076740  2 H  s          
    69     -4.266878  5 Li s                131     -3.906655  7 Li s          
    42     -3.320851  3 H  s                 96     -3.076955  6 Li py         
 
 Vector   81  Occ=0.000000D+00  E= 5.132012D-01
              MO Center= -2.0D-06, -4.4D-06, -6.3D-06, r^2= 1.2D+01
   Bfn.  Coefficient  Atom+Function         Bfn.  Coefficient  Atom+Function  
  ----- ------------  ---------------      ----- ------------  ---------------
     6      3.279000  1 Li s                 65      3.278984  5 Li s          
    94      3.278980  6 Li s                123      3.278975  7 Li s          
    10      2.255305  1 Li s                 69      2.255023  5 Li s          
    98      2.254920  6 Li s                127      2.254793  7 Li s          
    33     -1.835920  2 H  s                 43     -1.835896  3 H  s          
 

 center of mass
 --------------
 x =   0.00000001 y =   0.00000001 z =   0.00000001

 moments of inertia (a.u.)
 ------------------
         177.156912183117           0.000005814131           0.000003581878
           0.000005814131         177.156910468633           0.000001253392
           0.000003581878           0.000001253392         177.156909761350
 
     Multipole analysis of the density
     ---------------------------------
 
     L   x y z        total         alpha         beta         nuclear
     -   - - -        -----         -----         ----         -------
     0   0 0 0     -0.000000     -8.000000     -8.000000     16.000000
 
     1   1 0 0      0.000000      0.000000      0.000000     -0.000000
     1   0 1 0      0.000000      0.000000      0.000000     -0.000000
     1   0 0 1      0.000000      0.000000      0.000000      0.000000
 
     2   2 0 0     -9.338737    -27.223187    -27.223187     45.107637
     2   1 1 0     -0.000000      0.000001      0.000001     -0.000002
     2   1 0 1     -0.000000      0.000001      0.000001     -0.000001
     2   0 2 0     -9.338737    -27.223188    -27.223188     45.107638
     2   0 1 1     -0.000000      0.000000      0.000000     -0.000000
     2   0 0 2     -9.338737    -27.223188    -27.223188     45.107639
 
 
 
                            NWChem DFT Gradient Module
                            --------------------------
 
 

  charge          =   0.00
  wavefunction    = closed shell



                         DFT ENERGY GRADIENTS

    atom               coordinates                        gradient
                 x          y          z           x          y          z
   1 li     -1.643140  -1.643141  -1.643141   -0.015351  -0.015351  -0.015351
   2 h      -1.782464  -1.782464   1.782463   -0.011679  -0.011679   0.011679
   3 h      -1.782464   1.782463  -1.782464   -0.011679   0.011679  -0.011679
   4 h       1.782463  -1.782464  -1.782464    0.011679  -0.011679  -0.011679
   5 li      1.643141   1.643141  -1.643141    0.015351   0.015351  -0.015351
   6 li      1.643141  -1.643141   1.643141    0.015351  -0.015351   0.015351
   7 li     -1.643141   1.643141   1.643141   -0.015351   0.015351   0.015351
   8 h       1.782463   1.782463   1.782463    0.011679   0.011679   0.011679
 
                 ----------------------------------------
                 |  Time  |  1-e(secs)   |  2-e(secs)   |
                 ----------------------------------------
                 |  CPU   |       0.01   |       6.81   |
                 ----------------------------------------
                 |  WALL  |       0.01   |       6.82   |
                 ----------------------------------------

@ Step       Energy      Delta E   Gmax     Grms     Xrms     Xmax   Walltime
@ ---- ---------------- -------- -------- -------- -------- -------- --------
@    0     -36.52157652  0.0D+00  0.01535  0.01364  0.00000  0.00000     34.1
                                                                    

 
                                 NWChem DFT Module
                                 -----------------
 
 


 Summary of "ao basis" -> "ao basis" (cartesian)
 ------------------------------------------------------------------------------
       Tag                 Description            Shells   Functions and Types
 ---------------- ------------------------------  ------  ---------------------
 li                     6-311++G(2d,2p)             11       29   5s4p2d
 h                      6-311++G(2d,2p)              6       10   4s2p


  Caching 1-el integrals 
 
            General Information
            -------------------
          SCF calculation type: DFT
          Wavefunction type:  closed shell.
          No. of atoms     :     8
          No. of electrons :    16
           Alpha electrons :     8
            Beta electrons :     8
          Charge           :     0
          Spin multiplicity:     1
          Use of symmetry is: off; symmetry adaption is: off
          Maximum number of iterations: ***
          This is a Direct SCF calculation.
          AO basis - number of functions:   156
                     number of shells:    68
          Convergence on energy requested: 1.00D-06
          Convergence on density requested: 1.00D-05
          Convergence on gradient requested: 5.00D-04
 
              XC Information
              --------------
                     Hartree-Fock (Exact) Exchange  1.000          
                           M11 gradient correction  1.000          
                         M11 Correlation Potential  1.000 non-local
 
             Grid Information
             ----------------
          Grid used for XC integration:  medium    
          Radial quadrature: Mura-Knowles        
          Angular quadrature: Lebedev. 
          Tag              B.-S. Rad. Rad. Pts. Rad. Cut. Ang. Pts.
          ---              ---------- --------- --------- ---------
          li                  1.45       49          22.0       434
          h                   0.35       45          17.0       434
          Grid pruning is: on 
          Number of quadrature shells:   376
          Spatial weights used:  Erf1
 
          Convergence Information
          -----------------------
          Convergence aids based upon iterative change in 
          total energy or number of iterations. 
          Levelshifting, if invoked, occurs when the 
          HOMO/LUMO gap drops below (HL_TOL): 1.00D-02
          DIIS, if invoked, will attempt to extrapolate 
          using up to (NFOCK): 10 stored Fock matrices.

                    Damping( 0%)  Levelshifting(0.5)       DIIS
                  --------------- ------------------- ---------------
          dE  on:    start            ASAP                start   
          dE off:    2 iters        *** iters           *** iters 

 
      Screening Tolerance Information
      -------------------------------
          Density screening/tol_rho: 1.00D-10
          AO Gaussian exp screening on grid/accAOfunc:  14
          CD Gaussian exp screening on grid/accCDfunc:  20
          XC Gaussian exp screening on grid/accXCfunc:  20
          Schwarz screening/accCoul: 1.00D-08

 
 WARNING : Found     3 linear dependencies 
 S eigenvalue threshold:     1.00000E-05
 Smallest S eigenvalue :     9.89877E-06
 Largest  S eigenvalue :     9.89878E-06
 

 !! The overlap matrix has   3 vectors deemed linearly dependent with
    eigenvalues:
 9.90D-06 9.90D-06 9.90D-06
 

 !! nbf/nmo/basis-name mismatch 
           nbf= 156 nbf_file= 156
           nmo= 153 nmo_file= 156
           basis="ao basis" basis_file="ao basis"

  Either an incorrect movecs file was 
 specified, or linear dependence has changed,
  or the basis name was changed. 

 Loading old vectors from job with title :



 
[...]


              11           12           13           14           15           16           17           18           19           20
   ----- ----- ----- ----- -----
   11    5.47640D+01
   12    5.52608D+00  5.47640D+01
   13    1.55724D+00 -6.15451D-01  9.51196D+00
   14   -1.17296D+01  5.82553D-01  1.02131D+00  9.51197D+00
   15   -1.56234D+00 -4.41985D+00 -1.02294D+00 -1.02288D+00  9.51673D+00
   16   -6.15396D-01  1.55718D+00  8.32180D-01 -1.41219D-01  1.39377D-01  9.51209D+00
   17   -4.41989D+00 -1.56229D+00  1.39182D-01 -1.19416D+00  1.95114D+00 -1.02292D+00  9.51670D+00
   18    5.82600D-01 -1.17297D+01 -1.41024D-01  1.94705D+00 -1.19416D+00  1.02129D+00 -1.02284D+00  9.51193D+00
   19   -8.53219D-01 -8.53134D-01 -1.19414D+00  1.39166D-01  1.95115D+00 -1.19411D+00  1.95115D+00  1.39164D-01  9.51666D+00
   20   -4.37962D-01  8.48203D-01 -1.41235D-01  8.32195D-01  1.39376D-01  1.94695D+00 -1.19411D+00 -1.40994D-01 -1.02289D+00  9.51206D+00
   21    8.48204D-01 -4.37962D-01  1.94700D+00 -1.40978D-01 -1.19412D+00 -1.41188D-01  1.39358D-01  8.32211D-01 -1.02282D+00  1.02127D+00
   22    1.92640D+00  1.92662D+00 -4.40056D+00  6.33767D-01  5.65049D-01 -4.40047D+00  5.65054D-01  6.33764D-01 -1.17481D+01 -1.54327D+00
   23   -2.92043D+00 -6.83674D+00  6.33767D-01 -4.40055D+00  5.65133D-01 -1.54332D+00 -1.17481D+01 -1.54315D+00  5.65101D-01 -4.40052D+00
   24   -6.83673D+00 -2.92043D+00 -1.54337D+00 -1.54319D+00 -1.17480D+01  6.33707D-01  5.65186D-01 -4.40060D+00  5.65192D-01  6.33703D-01


              21           22           23           24
   ----- ----- ----- ----- -----
   21    9.51206D+00
   22   -1.54309D+00  5.47929D+01
   23    6.33710D-01  5.54500D+00  5.47929D+01
   24   -4.40052D+00  5.54523D+00  5.54545D+00  5.47929D+01

 center of mass
 --------------
 x =   0.00000001 y =   0.00000000 z =  -0.00000001

 moments of inertia (a.u.)
 ------------------
         136.656372180237           0.000008693169           0.000007181718
           0.000008693169         136.656370073688           0.000005795100
           0.000007181718           0.000005795100         136.656367390405

 Rotational Constants
 --------------------
 A=   0.440522 cm-1  (  0.633799 K)
 B=   0.440522 cm-1  (  0.633799 K)
 C=   0.440522 cm-1  (  0.633799 K)


 Temperature                      =   298.15K
 frequency scaling parameter      =   1.0000

 Zero-Point correction to Energy  =   25.817 kcal/mol  (  0.041142 au)
 Thermal correction to Energy     =   28.483 kcal/mol  (  0.045391 au)
 Thermal correction to Enthalpy   =   29.075 kcal/mol  (  0.046335 au)

 Total Entropy                    =   62.800 cal/mol-K
   - Translational                =   36.314 cal/mol-K (mol. weight =  32.0953)
   - Rotational                   =   22.451 cal/mol-K (symmetry #  =        1)
   - Vibrational                  =    4.035 cal/mol-K

 Cv (constant volume heat capacity) =   15.398 cal/mol-K
   - Translational                  =    2.979 cal/mol-K
   - Rotational                     =    2.979 cal/mol-K
   - Vibrational                    =    9.439 cal/mol-K



          -------------------------------------------------
          NORMAL MODE EIGENVECTORS IN CARTESIAN COORDINATES
          -------------------------------------------------
             (Projected Frequencies expressed in cm-1)

                    1           2           3           4           5           6
 
 P.Frequency       -0.00       -0.00       -0.00       -0.00       -0.00        0.00
 
           1    -0.03470     0.03336     0.03121     0.00577    -0.23047    -0.07204
           2     0.03170    -0.23440     0.04168    -0.03404     0.01653     0.05015
           3     0.07895     0.03647    -0.21919    -0.04527     0.04309    -0.04606
           4     0.14041     0.03224    -0.01351     0.06476    -0.09520    -0.18128
           5     0.06607    -0.08380    -0.02081    -0.22987     0.02872     0.03964
           6     0.08752     0.04259    -0.22358    -0.05087     0.04912    -0.05096
           7     0.06101    -0.03074     0.03404    -0.05087    -0.19173     0.14793
           8     0.03468    -0.24331     0.04428    -0.02834     0.01793     0.05977
           9     0.05613    -0.11692    -0.15849     0.15067     0.03833    -0.03083
          10    -0.04626     0.03614     0.03300     0.00567    -0.23790    -0.07677
          11    -0.07259    -0.17642     0.04324     0.02820    -0.02825    -0.16493
          12    -0.09915     0.04649    -0.17706    -0.10996    -0.09358     0.05355
          13     0.06414    -0.02827     0.03217    -0.04632    -0.18793     0.13499
          14    -0.06714    -0.17278     0.04072     0.01805    -0.02601    -0.15688
          15    -0.12196    -0.10689    -0.11636     0.08597    -0.09833     0.06879
          16     0.13729     0.02976    -0.01164     0.06022    -0.09900    -0.16834
          17    -0.03822    -0.02582    -0.01925    -0.16763    -0.01607    -0.17543
          18    -0.09304     0.04006    -0.17633    -0.09971    -0.08839     0.05023
          19     0.23612    -0.03186    -0.01068     0.00812    -0.05645     0.03869
          20     0.06062    -0.08744    -0.01829    -0.21972     0.02648     0.03159
          21     0.05002    -0.11049    -0.15922     0.14042     0.03315    -0.02751
          22     0.24768    -0.03465    -0.01247     0.00822    -0.04903     0.04342
          23    -0.04120    -0.01692    -0.02186    -0.17333    -0.01746    -0.18506
          24    -0.13054    -0.11301    -0.11197     0.09158    -0.10437     0.07369

                    7           8           9          10          11          12
 
 P.Frequency      497.90      497.90      513.92      514.31      514.32      691.53
 
           1    -0.09998     0.11614     0.15512    -0.09785    -0.02548    -0.10933
           2    -0.05060    -0.14466     0.15399     0.07418    -0.07120    -0.10933
           3     0.15058     0.02851     0.15294     0.02776     0.10061    -0.10932
           4     0.03046    -0.03558    -0.01957    -0.00517    -0.09011    -0.00600
           5     0.01534     0.04426    -0.01934    -0.04049    -0.08073    -0.00600
           6     0.04630     0.00877     0.04954     0.02035     0.07531     0.00622
           7     0.03066    -0.03541    -0.02058    -0.04979     0.07500    -0.00600
           8    -0.01556    -0.04448     0.05033     0.05536    -0.05427     0.00622
           9    -0.04604    -0.00859    -0.02013    -0.07558     0.04915    -0.00600
          10    -0.03074     0.03571     0.05119    -0.07439    -0.01978     0.00622
          11     0.01558     0.04417    -0.02144     0.08021     0.04044    -0.00600
          12    -0.04600    -0.00884    -0.02122     0.08973     0.00522    -0.00599
          13     0.10013    -0.11584     0.00199    -0.04465     0.18002     0.10898
          14     0.05083     0.14443     0.00085     0.12817     0.13409     0.10898
          15     0.15025     0.02845    -0.14756    -0.02991    -0.10890    -0.10856
          16     0.09964    -0.11623     0.00417     0.05208    -0.17800     0.10898
          17    -0.05048    -0.14436    -0.14870    -0.08022     0.07733    -0.10856
          18    -0.15039    -0.02878     0.00198     0.17825    -0.05128     0.10898
          19    -0.09977     0.11591    -0.14992     0.10619     0.02779    -0.10855
          20     0.05026     0.14462     0.00539    -0.13351    -0.12867     0.10898
          21    -0.15048    -0.02820     0.00434    -0.18016     0.04399     0.10898
          22    -0.03053     0.03547    -0.09005     0.01962     0.00476     0.00520
          23    -0.01545    -0.04417    -0.08981    -0.01578     0.01416     0.00521
          24     0.04598     0.00871    -0.08960    -0.00622    -0.02121     0.00521

                   13          14          15          16          17          18
 
 P.Frequency      995.64      995.84      995.84     1250.83     1250.83     1291.20
 
           1     0.00000     0.07075     0.01232    -0.01742     0.00375     0.01667
           2    -0.00000    -0.04604     0.05511     0.00551    -0.01691     0.01495
           3    -0.00000    -0.02471    -0.06743     0.01191     0.01316     0.01290
           4     0.37611    -0.04545     0.26215    -0.39489     0.08504    -0.26105
           5    -0.37608     0.20408     0.17074     0.12388    -0.38449    -0.25453
           6     0.00002     0.15849     0.43250    -0.27091    -0.29934    -0.08164
           7    -0.37614     0.04583    -0.26211    -0.39433     0.08482    -0.25440
           8     0.00004     0.29531    -0.35347    -0.12438     0.38442    -0.09597
           9     0.37603     0.24978    -0.09177     0.27169     0.29935    -0.24020
          10    -0.00000    -0.45374    -0.07899     0.39529    -0.08508    -0.10803
          11     0.37607    -0.20437    -0.17046     0.12320    -0.38439    -0.24232
          12    -0.37607    -0.24995     0.09138     0.27045     0.29967    -0.23459
          13     0.05864    -0.00715     0.04087     0.01731    -0.00371     0.03628
          14    -0.05863     0.03187     0.02657    -0.00536     0.01691     0.03456
          15     0.00000     0.02470     0.06740     0.01194     0.01320     0.05532
          16    -0.05864     0.00708    -0.04088     0.01736    -0.00375     0.03720
          17     0.00000     0.04602    -0.05508     0.00547    -0.01694     0.05645
          18     0.05863     0.03897    -0.01424    -0.01186    -0.01320     0.03343
          19     0.00000    -0.07071    -0.01231    -0.01742     0.00375     0.05740
          20     0.05863    -0.03182    -0.02663    -0.00545     0.01691     0.03625
          21    -0.05863    -0.03894     0.01431    -0.01200    -0.01316     0.03421
          22     0.00001     0.45359     0.07896     0.39511    -0.08504    -0.40365
          23    -0.00000    -0.29519     0.35334    -0.12392     0.38468    -0.39716
          24    -0.00001    -0.15842    -0.43232    -0.27118    -0.29964    -0.38944

                   19          20          21          22          23          24
 
 P.Frequency     1291.50     1291.53     1327.80     1327.89     1327.95     1491.05
 
           1    -0.01610    -0.06237     0.00011     0.01536     0.03216     0.00190
           2    -0.04574     0.04594     0.01136     0.01113     0.03191     0.00191
           3     0.06290     0.01739     0.00884     0.02166     0.02694     0.00191
           4     0.26051     0.28599     0.21549    -0.43476     0.06107    -0.28639
           5     0.37184    -0.12055    -0.44731    -0.18316     0.07571    -0.28644
           6    -0.44205    -0.12188    -0.05755    -0.12348    -0.46921     0.28906
           7    -0.09564     0.37966     0.02574     0.36807    -0.32147    -0.28628
           8     0.32187    -0.32269    -0.01591    -0.30043    -0.38466     0.28908
           9    -0.39176     0.08018    -0.48888    -0.00650    -0.00870    -0.28646
          10     0.11362     0.43862    -0.20214    -0.22930    -0.38050     0.28909
          11     0.11294    -0.38282     0.21241     0.29678    -0.32564    -0.28629
          12    -0.29442    -0.27585     0.36067    -0.32952    -0.02752    -0.28635
          13     0.01261    -0.05419    -0.01222    -0.01690     0.02906    -0.00239
          14    -0.01702     0.05411    -0.00094    -0.02114     0.02882    -0.00238
          15     0.03572     0.01063     0.00954     0.02635    -0.02216     0.00221
          16    -0.03633    -0.04132    -0.02248     0.02652     0.00836    -0.00238
          17    -0.02389     0.02628     0.02233    -0.02768     0.00355     0.00221
          18     0.04260     0.03845    -0.01373     0.03288     0.00312    -0.00238
          19    -0.00764    -0.03307    -0.03493    -0.00596     0.00481     0.00221
          20    -0.05261     0.01813     0.03473     0.00482     0.00710    -0.00238
          21     0.05596    -0.01041     0.03220     0.01540     0.00210    -0.00237
          22     0.05193     0.22505     0.44488     0.16354     0.12300     0.28820
          23     0.16274    -0.17963    -0.21902     0.41556     0.13767     0.28815
          24    -0.24446    -0.07270    -0.07073    -0.21086     0.43585     0.28809



 ----------------------------------------------------------------------------
 Normal Eigenvalue ||    Projected Derivative Dipole Moments (debye/angs)
  Mode   [cm**-1]  ||      [d/dqX]             [d/dqY]           [d/dqZ]
 ------ ---------- || ------------------ ------------------ -----------------
    1       -0.000 ||       0.000              -0.000            -0.000
    2       -0.000 ||      -0.000               0.000             0.000
    3       -0.000 ||      -0.000              -0.000             0.001
    4       -0.000 ||       0.000              -0.000             0.000
    5       -0.000 ||       0.000              -0.000             0.000
    6        0.000 ||      -0.000              -0.000             0.000
    7      497.895 ||       0.001               0.000            -0.001
    8      497.895 ||      -0.001               0.001            -0.000
    9      513.917 ||       0.454               0.461             0.468
   10      514.305 ||       0.631              -0.456            -0.163
   11      514.319 ||       0.173               0.462            -0.624
   12      691.530 ||       0.002               0.002             0.002
   13      995.637 ||       0.000              -0.000             0.000
   14      995.842 ||      -0.001               0.001             0.000
   15      995.843 ||      -0.000              -0.001             0.001
   16     1250.829 ||      -0.004               0.005            -0.000
   17     1250.829 ||       0.001              -0.001            -0.000
   18     1291.197 ||      -3.742              -3.607            -3.446
   19     1291.502 ||       1.204               3.532            -5.001
   20     1291.533 ||      -4.843               3.664             1.422
   21     1327.803 ||      -1.615               1.568             0.856
   22     1327.891 ||       0.442              -0.763             2.238
   23     1327.947 ||       1.729               1.659             0.233
   24     1491.053 ||      -0.017              -0.016            -0.016
 ----------------------------------------------------------------------------



  
  
 ----------------------------------------------------------------------------
 Normal Eigenvalue ||           Projected Infra Red Intensities
  Mode   [cm**-1]  || [atomic units] [(debye/angs)**2] [(KM/mol)] [arbitrary]
 ------ ---------- || -------------- ----------------- ---------- -----------
    1       -0.000 ||    0.000000           0.000         0.000       0.000
    2       -0.000 ||    0.000000           0.000         0.000       0.000
    3       -0.000 ||    0.000000           0.000         0.000       0.000
    4       -0.000 ||    0.000000           0.000         0.000       0.000
    5       -0.000 ||    0.000000           0.000         0.000       0.000
    6        0.000 ||    0.000000           0.000         0.000       0.000
    7      497.895 ||    0.000000           0.000         0.000       0.000
    8      497.895 ||    0.000000           0.000         0.000       0.000
    9      513.917 ||    0.027621           0.637        26.926       1.124
   10      514.305 ||    0.027449           0.633        26.759       1.117
   11      514.319 ||    0.027455           0.633        26.765       1.118
   12      691.530 ||    0.000000           0.000         0.000       0.000
   13      995.637 ||    0.000000           0.000         0.000       0.000
   14      995.842 ||    0.000000           0.000         0.000       0.000
   15      995.843 ||    0.000000           0.000         0.000       0.000
   16     1250.829 ||    0.000002           0.000         0.002       0.000
   17     1250.829 ||    0.000000           0.000         0.000       0.000
   18     1291.197 ||    1.685741          38.891      1643.344      68.621
   19     1291.502 ||    1.687666          38.936      1645.220      68.700
   20     1291.533 ||    1.686416          38.907      1644.002      68.649
   21     1327.803 ||    0.251530           5.803       245.204      10.239
   22     1327.891 ||    0.250740           5.785       244.434      10.207
   23     1327.947 ||    0.251149           5.794       244.832      10.223
   24     1491.053 ||    0.000034           0.001         0.033       0.001
 ----------------------------------------------------------------------------



 vib:animation  F

 Task  times  cpu:      809.2s     wall:      810.6s
 
 
                                NWChem Input Module
                                -------------------
 
 
 Summary of allocated global arrays
-----------------------------------
  No active global arrays



                         GA Statistics for process    0
                         ------------------------------

       create   destroy   get      put      acc     scatter   gather  read&inc
calls: 5694     5694     1.31e+06 6.75e+04 2.42e+05    0        0     4.17e+04 
number of processes/call 1.10e+00 1.56e+00 1.02e+00 0.00e+00 0.00e+00
bytes total:             5.38e+09 2.75e+08 1.15e+09 0.00e+00 0.00e+00 3.34e+05
bytes remote:            3.57e+09 8.33e+07 7.68e+08 0.00e+00 0.00e+00 0.00e+00
Max memory consumed for GA by this process: 2387456 bytes
 
MA_summarize_allocated_blocks: starting scan ...
MA_summarize_allocated_blocks: scan completed: 0 heap blocks, 0 stack blocks
MA usage statistics:

	allocation statistics:
					      heap	     stack
					      ----	     -----
	current number of blocks	         0	         0
	maximum number of blocks	        24	        54
	current total bytes		         0	         0
	maximum total bytes		   1797624	  33547048
	maximum total K-bytes		      1798	     33548
	maximum total M-bytes		         2	        34
 
 
                                     CITATION
                                     --------
                Please cite the following reference when publishing
                           results obtained with NWChem:
 
                 M. Valiev, E.J. Bylaska, N. Govind, K. Kowalski,
              T.P. Straatsma, H.J.J. van Dam, D. Wang, J. Nieplocha,
                        E. Apra, T.L. Windus, W.A. de Jong
                 "NWChem: a comprehensive and scalable open-source
                  solution for large scale molecular simulations"
                      Comput. Phys. Commun. 181, 1477 (2010)
                           doi:10.1016/j.cpc.2010.04.018
 
                                      AUTHORS
                                      -------
          E. Apra, E. J. Bylaska, W. A. de Jong, N. Govind, K. Kowalski,
       T. P. Straatsma, M. Valiev, H. J. J. van Dam, D. Wang, T. L. Windus,
        J. Hammond, J. Autschbach, K. Bhaskaran-Nair, J. Brabec, K. Lopata,
        S. Krishnamoorthy, W. Ma, M. Klemm, O. Villa, Y. Chen, V. Anisimov,
    F. Aquino, S. Hirata, M. T. Hackler, T. Risthaus, M. Malagoli, A. Marenich,
   A. Otero-de-la-Roza, J. Mullin, P. Nichols, R. Peverati, J. Pittner, Y. Zhao,
         P.-D. Fan, A. Fonari, R. J. Harrison, M. Dupuis, D. Silverstein,
    D. M. A. Smith, J. Nieplocha, V. Tipparaju, M. Krishnan, B. E. Van Kuiken,
        A. Vazquez-Mayagoitia, L. Jensen, M. Swart, Q. Wu, T. Van Voorhis,
     A. A. Auer, M. Nooijen, L. D. Crosby, E. Brown, G. Cisneros, G. I. Fann,
   H. Fruchtl, J. Garza, K. Hirao, R. A. Kendall, J. A. Nichols, K. Tsemekhman,
    K. Wolinski, J. Anchell, D. E. Bernholdt, P. Borowski, T. Clark, D. Clerc,
   H. Dachsel, M. J. O. Deegan, K. Dyall, D. Elwood, E. Glendening, M. Gutowski,
   A. C. Hess, J. Jaffe, B. G. Johnson, J. Ju, R. Kobayashi, R. Kutteh, Z. Lin,
   R. Littlefield, X. Long, B. Meng, T. Nakajima, S. Niu, L. Pollack, M. Rosing,
   K. Glaesemann, G. Sandrone, M. Stave, H. Taylor, G. Thomas, J. H. van Lenthe,
                               A. T. Wong, Z. Zhang.

 Total times  cpu:     1092.1s     wall:     1095.3s
