 argument  1 = hess_h2o.nw



============================== echo of input deck ==============================
echo
start  h2o
title Water
geometry units au autosym
  O      0.00000000    0.00000000    0.00000000
  H      0.00000000    1.93042809   -1.10715266
  H      0.00000000   -1.93042809   -1.10715266
end
basis noprint
  H library sto-3g
  O library sto-3g
end
scf; thresh 1e-6; end
driver; tight; end
task scf optimize

scf; thresh 1e-8; print none; end
task scf freq

freq
  reuse; temperature 4 298.15 300.0 350.0 400.0
end
task scf freq

freq
 reuse; mass H 2.014101779
 temperature 1 298.15
end
task scf freq

freq
 reuse; mass 2 2.014101779
end
task scf freq

freq
 reuse; mass 2 2.014101779 ; mass 3 3.01604927
end
task scf freq
================================================================================


                                         
                                         


              Northwest Computational Chemistry Package (NWChem) 6.0
              ------------------------------------------------------


                    Environmental Molecular Sciences Laboratory
                       Pacific Northwest National Laboratory
                                Richland, WA 99352

                              Copyright (c) 1994-2010
                       Pacific Northwest National Laboratory
                            Battelle Memorial Institute

             NWChem is an open-source computational chemistry package
                        distributed under the terms of the
                      Educational Community License (ECL) 2.0
             A copy of the license is included with this distribution
                              in the LICENSE.TXT file

                                  ACKNOWLEDGMENT
                                  --------------

            This software and its documentation were developed at the
            EMSL at Pacific Northwest National Laboratory, a multiprogram
            national laboratory, operated for the U.S. Department of Energy
            by Battelle under Contract Number DE-AC05-76RL01830. Support
            for this work was provided by the Department of Energy Office
            of Biological and Environmental Research, Office of Basic
            Energy Sciences, and the Office of Advanced Scientific Computing.


           Job information
           ---------------

    hostname      = arcen
    program       = /home/d3y133/nwchem-releases/nwchem-merge/nwchem-dev/QA/../bin/LINUX64/nwchem
    date          = Mon Oct 25 15:21:11 2010

    compiled      = Mon_Oct_25_14:31:37_2010
    source        = /home/d3y133/nwchem-releases/nwchem-merge/nwchem-dev
    nwchem branch = Development
    input         = hess_h2o.nw
    prefix        = h2o.
    data base     = /home/d3y133/nwchem-releases/nwchem-merge/nwchem-dev/QA/scratchdir/h2o.db
    status        = startup
    nproc         =        4
    time left     =     -1s



           Memory information
           ------------------

    heap     =   16384001 doubles =    125.0 Mbytes
    stack    =   16384001 doubles =    125.0 Mbytes
    global   =   32768000 doubles =    250.0 Mbytes (distinct from heap & stack)
    total    =   65536002 doubles =    500.0 Mbytes
    verify   = yes
    hardfail = no 


           Directory information
           ---------------------

  0 permanent = /home/d3y133/nwchem-releases/nwchem-merge/nwchem-dev/QA/scratchdir
  0 scratch   = /home/d3y133/nwchem-releases/nwchem-merge/nwchem-dev/QA/scratchdir




                                NWChem Input Module
                                -------------------


                                       Water
                                       -----
 C2V symmetry detected

          ------
          auto-z
          ------


                             Geometry "geometry" -> ""
                             -------------------------

 Output coordinates in a.u. (scale by  1.000000000 to convert to a.u.)

  No.       Tag          Charge          X              Y              Z
 ---- ---------------- ---------- -------------- -------------- --------------
    1 O                    8.0000     0.00000000     0.00000000     0.22143053
    2 H                    1.0000    -1.93042809     0.00000000    -0.88572213
    3 H                    1.0000     1.93042809     0.00000000    -0.88572213

      Atomic Mass 
      ----------- 

      O                 15.994910
      H                  1.007825


 Effective nuclear repulsion energy (a.u.)       7.4487761816

            Nuclear Dipole moment (a.u.) 
            ----------------------------
        X                 Y               Z
 ---------------- ---------------- ----------------
     0.0000000000     0.0000000000     0.0000000000

      Symmetry information
      --------------------

 Group name             C2v       
 Group number             16
 Group order               4
 No. of unique centers     2

      Symmetry unique atoms

     1    2



                                Z-matrix (autoz)
                                -------- 

 Units are Angstrom for bonds and degrees for angles

      Type          Name      I     J     K     L     M      Value
      ----------- --------  ----- ----- ----- ----- ----- ----------
    1 Stretch                  1     2                       1.17762
    2 Stretch                  1     3                       1.17762
    3 Bend                     2     1     3               120.32913


            XYZ format geometry
            -------------------
     3
 geometry
 O                     0.00000000     0.00000000     0.11717600
 H                    -1.02153863     0.00000000    -0.46870400
 H                     1.02153863     0.00000000    -0.46870400

  library name resolved from: .nwchemrc
  library file name is: </home/d3y133/nwchem-releases/nwchem-merge/nwchem-dev/QA/../src/basis/libraries/>
  


                           NWChem Geometry Optimization
                           ----------------------------




                                       Water


 maximum gradient threshold         (gmax) =   0.000015
 rms gradient threshold             (grms) =   0.000010
 maximum cartesian step threshold   (xmax) =   0.000060
 rms cartesian step threshold       (xrms) =   0.000040
 fixed trust radius                (trust) =   0.300000
 maximum step size to saddle      (sadstp) =   0.100000
 energy precision                  (eprec) =   1.0D-07
 maximum number of steps          (nptopt) =   20
 initial hessian option           (inhess) =    0
 line search option               (linopt) =    1
 hessian update option            (modupd) =    1
 saddle point option              (modsad) =    0
 initial eigen-mode to follow     (moddir) =    0
 initial variable to follow       (vardir) =    0
 follow first negative mode     (firstneg) =    T
 apply conjugacy                    (opcg) =    F
 source of zmatrix                         =   autoz   


          -------------------
          Energy Minimization
          -------------------


 Names of Z-matrix variables 
    1              2              3         

 Variables with the same non-blank name are constrained to be equal


 Using diagonal initial Hessian 
 Scaling for Hessian diagonals: bonds = 1.00  angles = 0.25  torsions = 0.10

          --------
          Step   0
          --------


                         Geometry "geometry" -> "geometry"
                         ---------------------------------

 Output coordinates in a.u. (scale by  1.000000000 to convert to a.u.)

  No.       Tag          Charge          X              Y              Z
 ---- ---------------- ---------- -------------- -------------- --------------
    1 O                    8.0000     0.00000000     0.00000000     0.22143053
    2 H                    1.0000    -1.93042809     0.00000000    -0.88572213
    3 H                    1.0000     1.93042809     0.00000000    -0.88572213

      Atomic Mass 
      ----------- 

      O                 15.994910
      H                  1.007825


 Effective nuclear repulsion energy (a.u.)       7.4487761816

            Nuclear Dipole moment (a.u.) 
            ----------------------------
        X                 Y               Z
 ---------------- ---------------- ----------------
     0.0000000000     0.0000000000     0.0000000000

      Symmetry information
      --------------------

 Group name             C2v       
 Group number             16
 Group order               4
 No. of unique centers     2

      Symmetry unique atoms

     1    2

                                 NWChem SCF Module
                                 -----------------


                                       Water



  ao basis        = "ao basis"
  functions       =     7
  atoms           =     3
  closed shells   =     5
  open shells     =     0
  charge          =   0.00
  wavefunction    = RHF 
  input vectors   = atomic
  output vectors  = /home/d3y133/nwchem-releases/nwchem-merge/nwchem-dev/QA/scratchdir/h2o.movecs
  use symmetry    = T
  symmetry adapt  = T


 Summary of "ao basis" -> "ao basis" (cartesian)
 ------------------------------------------------------------------------------
       Tag                 Description            Shells   Functions and Types
 ---------------- ------------------------------  ------  ---------------------
 H                           sto-3g                  1        1   1s
 O                           sto-3g                  3        5   2s1p


      Symmetry analysis of basis
      --------------------------

        a1          4
        a2          0
        b1          2
        b2          1


 Forming initial guess at       0.0s


      Superposition of Atomic Density Guess
      -------------------------------------

 Sum of atomic energies:         -74.71095592

      Non-variational initial energy
      ------------------------------

 Total energy =     -74.227684
 1-e energy   =    -118.581244
 2-e energy   =      36.904784
 HOMO         =      -0.221116
 LUMO         =       0.252490


      Symmetry analysis of molecular orbitals - initial
      -------------------------------------------------

  Numbering of irreducible representations: 

     1 a1          2 a2          3 b1          4 b2      

  Orbital symmetries:

     1 a1          2 a1          3 b1          4 a1          5 b2      
     6 a1          7 b1      


 Starting SCF solution at       0.1s



 ----------------------------------------------
         Quadratically convergent ROHF

 Convergence threshold     :          1.000E-06
 Maximum no. of iterations :           30
 Final Fock-matrix accuracy:          1.000E-08
 ----------------------------------------------


 #quartets = 7.900D+01 #integrals = 1.640D+02 #direct =  0.0% #cached =100.0%


 Integral file          = /home/d3y133/nwchem-releases/nwchem-merge/nwchem-dev/QA/scratchdir/h2o.aoints.0
 Record size in doubles =  65536        No. of integs per rec  =  43688
 Max. records in memory =      2        Max. records in file   =  20851
 No. of bits per label  =      8        No. of bits per value  =     64


File balance: exchanges=     0  moved=     0  time=   0.0


              iter       energy          gnorm     gmax       time
             ----- ------------------- --------- --------- --------
                 1      -74.8253535856  7.61D-01  6.23D-01      0.1
                 2      -74.8863576300  1.41D-01  1.06D-01      0.1
                 3      -74.8880346086  3.48D-02  2.50D-02      0.1
                 4      -74.8881424284  4.77D-04  3.68D-04      0.1
                 5      -74.8881424608  4.31D-08  3.23D-08      0.1


       Final RHF  results 
       ------------------ 

         Total SCF energy =    -74.888142460799
      One-electron energy =   -119.244688763521
      Two-electron energy =     36.907770121079
 Nuclear repulsion energy =      7.448776181643

        Time for solution =      0.1s



       Symmetry analysis of molecular orbitals - final
       -----------------------------------------------

  Numbering of irreducible representations: 

     1 a1          2 a2          3 b1          4 b2      

  Orbital symmetries:

     1 a1          2 a1          3 b1          4 a1          5 b2      
     6 a1          7 b1      

             Final eigenvalues
             -----------------

              1      
    1  -20.2485
    2   -1.1727
    3   -0.5295
    4   -0.3894
    5   -0.3744
    6    0.3811
    7    0.5606

                       ROHF Final Molecular Orbital Analysis
                       -------------------------------------

 Vector    2  Occ=2.000000D+00  E=-1.172709D+00  Symmetry=a1
              MO Center=  3.0D-15, -1.7D-17,  1.1D-02, r^2= 5.5D-01
   Bfn.  Coefficient  Atom+Function         Bfn.  Coefficient  Atom+Function  
  ----- ------------  ---------------      ----- ------------  ---------------
     2      0.910725  1 O  s                  1     -0.242919  1 O  s          

 Vector    3  Occ=2.000000D+00  E=-5.295450D-01  Symmetry=b1
              MO Center= -3.1D-15, -1.0D-32, -1.7D-01, r^2= 1.1D+00
   Bfn.  Coefficient  Atom+Function         Bfn.  Coefficient  Atom+Function  
  ----- ------------  ---------------      ----- ------------  ---------------
     3      0.586053  1 O  px                 6     -0.455376  2 H  s          
     7      0.455376  3 H  s          

 Vector    4  Occ=2.000000D+00  E=-3.893881D-01  Symmetry=a1
              MO Center=  2.8D-17, -1.3D-18,  6.6D-02, r^2= 8.1D-01
   Bfn.  Coefficient  Atom+Function         Bfn.  Coefficient  Atom+Function  
  ----- ------------  ---------------      ----- ------------  ---------------
     5      0.780294  1 O  pz                 2      0.414595  1 O  s          
     7     -0.338073  3 H  s                  6     -0.338073  2 H  s          

 Vector    5  Occ=2.000000D+00  E=-3.744217D-01  Symmetry=b2
              MO Center=  5.2D-33,  2.5D-17,  1.2D-01, r^2= 4.2D-01
   Bfn.  Coefficient  Atom+Function         Bfn.  Coefficient  Atom+Function  
  ----- ------------  ---------------      ----- ------------  ---------------
     4      1.000000  1 O  py         

 Vector    6  Occ=0.000000D+00  E= 3.810926D-01  Symmetry=a1
              MO Center=  5.6D-17, -7.0D-18, -3.5D-01, r^2= 1.3D+00
   Bfn.  Coefficient  Atom+Function         Bfn.  Coefficient  Atom+Function  
  ----- ------------  ---------------      ----- ------------  ---------------
     6      0.688691  2 H  s                  7      0.688691  3 H  s          
     5      0.667592  1 O  pz                 2     -0.602871  1 O  s          

 Vector    7  Occ=0.000000D+00  E= 5.605872D-01  Symmetry=b1
              MO Center=  0.0D+00,  8.5D-33, -2.0D-01, r^2= 1.2D+00
   Bfn.  Coefficient  Atom+Function         Bfn.  Coefficient  Atom+Function  
  ----- ------------  ---------------      ----- ------------  ---------------
     3      0.923109  1 O  px                 7     -0.681976  3 H  s          
     6      0.681976  2 H  s          


 center of mass
 --------------
 x =   0.00000000 y =   0.00000000 z =   0.09752365

 moments of inertia (a.u.)
 ------------------
           2.194243005950           0.000000000000           0.000000000000
           0.000000000000           9.705668775629           0.000000000000
           0.000000000000           0.000000000000           7.511425769679

  Mulliken analysis of the total density
  --------------------------------------

    Atom       Charge   Shell Charges
 -----------   ------   -------------------------------------------------------
    1 O    8     8.24   2.00  1.87  4.37
    2 H    1     0.88   0.88
    3 H    1     0.88   0.88

       Multipole analysis of the density wrt the origin
       ------------------------------------------------

     L   x y z        total         open         nuclear
     -   - - -        -----         ----         -------
     0   0 0 0      0.000000      0.000000     10.000000

     1   1 0 0      0.000000      0.000000      0.000000
     1   0 1 0      0.000000      0.000000      0.000000
     1   0 0 1     -0.532980      0.000000      0.000000

     2   2 0 0     -2.762038      0.000000      7.453105
     2   1 1 0      0.000000      0.000000      0.000000
     2   1 0 1      0.000000      0.000000      0.000000
     2   0 2 0     -4.640073      0.000000      0.000000
     2   0 1 1      0.000000      0.000000      0.000000
     2   0 0 2     -4.169032      0.000000      1.961259


 Parallel integral file used       4 records with       0 large values

                              NWChem Gradients Module
                              -----------------------


                                       Water


  wavefunction    =   RHF     

  Using symmetry


                         RHF ENERGY GRADIENTS

    atom               coordinates                        gradient
                 x          y          z           x          y          z
   1 O       0.000000   0.000000   0.221431    0.000000   0.000000   0.058550
   2 H      -1.930428   0.000000  -0.885722   -0.140065   0.000000  -0.029275
   3 H       1.930428   0.000000  -0.885722    0.140065   0.000000  -0.029275

                 ----------------------------------------
                 |  Time  |  1-e(secs)   |  2-e(secs)   |
                 ----------------------------------------
                 |  CPU   |       0.00   |       0.00   |
                 ----------------------------------------
                 |  WALL  |       0.00   |       0.00   |
                 ----------------------------------------

@ Step       Energy      Delta E   Gmax     Grms     Xrms     Xmax   Walltime
@ ---- ---------------- -------- -------- -------- -------- -------- --------
@    0     -74.88814246  0.0D+00  0.13607  0.11511  0.00000  0.00000      0.2
                                                       ok       ok  



                                Z-matrix (autoz)
                                -------- 

 Units are Angstrom for bonds and degrees for angles

      Type          Name      I     J     K     L     M      Value     Gradient
      ----------- --------  ----- ----- ----- ----- ----- ---------- ----------
    1 Stretch                  1     2                       1.17762    0.13607
    2 Stretch                  1     3                       1.17762    0.13607
    3 Bend                     2     1     3               120.32913    0.05216

 Restricting large step in mode    1 eval= 4.4D-02 step=-1.2D+00 new=-3.0D-01
 Restricting large step in mode    2 eval= 2.4D-01 step=-5.8D-01 new=-3.0D-01
 Restricting large step in mode    3 eval= 2.4D-01 step=-5.8D-01 new=-3.0D-01
 Restricting overall step due to large component. alpha=  1.00
                                 NWChem SCF Module
                                 -----------------


                                       Water



  ao basis        = "ao basis"
  functions       =     7
  atoms           =     3
  closed shells   =     5
  open shells     =     0
  charge          =   0.00
  wavefunction    = RHF 
  input vectors   = /home/d3y133/nwchem-releases/nwchem-merge/nwchem-dev/QA/scratchdir/h2o.movecs
  output vectors  = /home/d3y133/nwchem-releases/nwchem-merge/nwchem-dev/QA/scratchdir/h2o.movecs
  use symmetry    = T
  symmetry adapt  = T


 Summary of "ao basis" -> "ao basis" (cartesian)
 ------------------------------------------------------------------------------
       Tag                 Description            Shells   Functions and Types
 ---------------- ------------------------------  ------  ---------------------
 H                           sto-3g                  1        1   1s
 O                           sto-3g                  3        5   2s1p


      Symmetry analysis of basis
      --------------------------

        a1          4
        a2          0
        b1          2
        b2          1


 Forming initial guess at       0.2s


 Loading old vectors from job with title :

Water


      Symmetry analysis of molecular orbitals - initial
      -------------------------------------------------

  Numbering of irreducible representations: 

     1 a1          2 a2          3 b1          4 b2      

  Orbital symmetries:

     1 a1          2 a1          3 b1          4 a1          5 b2      
     6 a1          7 b1      


 Starting SCF solution at       0.2s



 ----------------------------------------------
         Quadratically convergent ROHF

 Convergence threshold     :          1.000E-06
 Maximum no. of iterations :           30
 Final Fock-matrix accuracy:          1.000E-08
 ----------------------------------------------


 #quartets = 7.900D+01 #integrals = 1.640D+02 #direct =  0.0% #cached =100.0%


 Integral file          = /home/d3y133/nwchem-releases/nwchem-merge/nwchem-dev/QA/scratchdir/h2o.aoints.0
 Record size in doubles =  65536        No. of integs per rec  =  43688
 Max. records in memory =      2        Max. records in file   =  20851
 No. of bits per label  =      8        No. of bits per value  =     64


File balance: exchanges=     0  moved=     0  time=   0.0


              iter       energy          gnorm     gmax       time
             ----- ------------------- --------- --------- --------
                 1      -74.9561884469  1.82D-01  1.39D-01      0.1
                 2      -74.9579099936  2.98D-02  2.08D-02      0.1
                 3      -74.9580285155  1.29D-04  8.15D-05      0.1
                 4      -74.9580285164  1.81D-10  1.33D-10      0.2


       Final RHF  results 
       ------------------ 

         Total SCF energy =    -74.958028516405
      One-electron energy =   -121.408244509297
      Two-electron energy =     37.825522985758
 Nuclear repulsion energy =      8.624693007133

        Time for solution =      0.0s



       Symmetry analysis of molecular orbitals - final
       -----------------------------------------------

  Numbering of irreducible representations: 

     1 a1          2 a2          3 b1          4 b2      

  Orbital symmetries:

     1 a1          2 a1          3 b1          4 a1          5 b2      
     6 a1          7 b1      

             Final eigenvalues
             -----------------

              1      
    1  -20.2394
    2   -1.2319
    3   -0.5955
    4   -0.4292
    5   -0.3825
    6    0.5322
    7    0.6920

                       ROHF Final Molecular Orbital Analysis
                       -------------------------------------

 Vector    2  Occ=2.000000D+00  E=-1.231947D+00  Symmetry=a1
              MO Center=  2.9D-15, -1.6D-17, -5.0D-02, r^2= 5.5D-01
   Bfn.  Coefficient  Atom+Function         Bfn.  Coefficient  Atom+Function  
  ----- ------------  ---------------      ----- ------------  ---------------
     2      0.856994  1 O  s                  1     -0.235704  1 O  s          
     7      0.154803  3 H  s                  6      0.154803  2 H  s          

 Vector    3  Occ=2.000000D+00  E=-5.954744D-01  Symmetry=b1
              MO Center= -3.0D-15, -9.4D-33, -1.6D-01, r^2= 9.0D-01
   Bfn.  Coefficient  Atom+Function         Bfn.  Coefficient  Atom+Function  
  ----- ------------  ---------------      ----- ------------  ---------------
     3      0.595532  1 O  px                 6     -0.446094  2 H  s          
     7      0.446094  3 H  s          

 Vector    4  Occ=2.000000D+00  E=-4.292352D-01  Symmetry=a1
              MO Center= -9.7D-17,  3.6D-34,  1.3D-01, r^2= 6.6D-01
   Bfn.  Coefficient  Atom+Function         Bfn.  Coefficient  Atom+Function  
  ----- ------------  ---------------      ----- ------------  ---------------
     5      0.784301  1 O  pz                 2      0.496787  1 O  s          
     6     -0.294160  2 H  s                  7     -0.294160  3 H  s          

 Vector    5  Occ=2.000000D+00  E=-3.825406D-01  Symmetry=b2
              MO Center=  3.4D-33,  2.2D-17,  1.1D-01, r^2= 4.2D-01
   Bfn.  Coefficient  Atom+Function         Bfn.  Coefficient  Atom+Function  
  ----- ------------  ---------------      ----- ------------  ---------------
     4      1.000000  1 O  py         

 Vector    6  Occ=0.000000D+00  E= 5.321632D-01  Symmetry=a1
              MO Center=  0.0D+00, -6.6D-18, -3.8D-01, r^2= 1.2D+00
   Bfn.  Coefficient  Atom+Function         Bfn.  Coefficient  Atom+Function  
  ----- ------------  ---------------      ----- ------------  ---------------
     2      0.797500  1 O  s                  6     -0.762185  2 H  s          
     7     -0.762185  3 H  s                  5     -0.704101  1 O  pz         

 Vector    7  Occ=0.000000D+00  E= 6.920121D-01  Symmetry=b1
              MO Center=  5.6D-17,  3.1D-33, -2.2D-01, r^2= 1.1D+00
   Bfn.  Coefficient  Atom+Function         Bfn.  Coefficient  Atom+Function  
  ----- ------------  ---------------      ----- ------------  ---------------
     3      0.974874  1 O  px                 7     -0.783100  3 H  s          
     6      0.783100  2 H  s          


 center of mass
 --------------
 x =   0.00000000 y =   0.00000000 z =   0.08652047

 moments of inertia (a.u.)
 ------------------
           2.116328329291           0.000000000000           0.000000000000
           0.000000000000           7.205537246059           0.000000000000
           0.000000000000           0.000000000000           5.089208916768

  Mulliken analysis of the total density
  --------------------------------------

    Atom       Charge   Shell Charges
 -----------   ------   -------------------------------------------------------
    1 O    8     8.33   2.00  1.83  4.49
    2 H    1     0.84   0.84
    3 H    1     0.84   0.84

       Multipole analysis of the density wrt the origin
       ------------------------------------------------

     L   x y z        total         open         nuclear
     -   - - -        -----         ----         -------
     0   0 0 0      0.000000      0.000000     10.000000

     1   1 0 0      0.000000      0.000000      0.000000
     1   0 1 0      0.000000      0.000000      0.000000
     1   0 0 1     -0.631529      0.000000     -0.092561

     2   2 0 0     -3.052871      0.000000      5.049695
     2   1 1 0      0.000000      0.000000      0.000000
     2   1 0 1      0.000000      0.000000      0.000000
     2   0 2 0     -4.564792      0.000000      0.000000
     2   0 1 1      0.000000      0.000000      0.000000
     2   0 0 2     -4.070243      0.000000      1.892474


 Parallel integral file used       4 records with       0 large values

 Line search: 
     step= 1.00 grad=-9.7D-02 hess= 2.7D-02 energy=    -74.958029 mode=downhill
 new step= 1.78                   predicted energy=    -74.974498

          --------
          Step   1
          --------


                         Geometry "geometry" -> "geometry"
                         ---------------------------------

 Output coordinates in a.u. (scale by  1.000000000 to convert to a.u.)

  No.       Tag          Charge          X              Y              Z
 ---- ---------------- ---------- -------------- -------------- --------------
    1 O                    8.0000     0.00000000     0.00000000     0.17671469
    2 H                    1.0000    -1.33559018     0.00000000    -0.86336421
    3 H                    1.0000     1.33559018     0.00000000    -0.86336421

      Atomic Mass 
      ----------- 

      O                 15.994910
      H                  1.007825


 Effective nuclear repulsion energy (a.u.)       9.8261730695

            Nuclear Dipole moment (a.u.) 
            ----------------------------
        X                 Y               Z
 ---------------- ---------------- ----------------
     0.0000000000     0.0000000000    -0.3130108825

      Symmetry information
      --------------------

 Group name             C2v       
 Group number             16
 Group order               4
 No. of unique centers     2

      Symmetry unique atoms

     1    2

                                 NWChem SCF Module
                                 -----------------


                                       Water



  ao basis        = "ao basis"
  functions       =     7
  atoms           =     3
  closed shells   =     5
  open shells     =     0
  charge          =   0.00
  wavefunction    = RHF 
  input vectors   = /home/d3y133/nwchem-releases/nwchem-merge/nwchem-dev/QA/scratchdir/h2o.movecs
  output vectors  = /home/d3y133/nwchem-releases/nwchem-merge/nwchem-dev/QA/scratchdir/h2o.movecs
  use symmetry    = T
  symmetry adapt  = T


 Summary of "ao basis" -> "ao basis" (cartesian)
 ------------------------------------------------------------------------------
       Tag                 Description            Shells   Functions and Types
 ---------------- ------------------------------  ------  ---------------------
 H                           sto-3g                  1        1   1s
 O                           sto-3g                  3        5   2s1p


      Symmetry analysis of basis
      --------------------------

        a1          4
        a2          0
        b1          2
        b2          1


 Forming initial guess at       0.3s


 Loading old vectors from job with title :

Water


      Symmetry analysis of molecular orbitals - initial
      -------------------------------------------------

  Numbering of irreducible representations: 

     1 a1          2 a2          3 b1          4 b2      

  Orbital symmetries:

     1 a1          2 a1          3 b1          4 a1          5 b2      
     6 a1          7 b1      


 Starting SCF solution at       0.3s



 ----------------------------------------------
         Quadratically convergent ROHF

 Convergence threshold     :          1.000E-06
 Maximum no. of iterations :           30
 Final Fock-matrix accuracy:          1.000E-08
 ----------------------------------------------


 #quartets = 7.900D+01 #integrals = 1.640D+02 #direct =  0.0% #cached =100.0%


 Integral file          = /home/d3y133/nwchem-releases/nwchem-merge/nwchem-dev/QA/scratchdir/h2o.aoints.0
 Record size in doubles =  65536        No. of integs per rec  =  43688
 Max. records in memory =      2        Max. records in file   =  20851
 No. of bits per label  =      8        No. of bits per value  =     64


File balance: exchanges=     0  moved=     0  time=   0.0


              iter       energy          gnorm     gmax       time
             ----- ------------------- --------- --------- --------
                 1      -74.9407163019  2.00D-01  1.39D-01      0.2
                 2      -74.9427914566  2.51D-02  1.71D-02      0.2
                 3      -74.9428809650  2.37D-04  1.61D-04      0.2
                 4      -74.9428809686  1.76D-09  1.56D-09      0.2


       Final RHF  results 
       ------------------ 

         Total SCF energy =    -74.942880968649
      One-electron energy =   -123.439156617363
      Two-electron energy =     38.670102579258
 Nuclear repulsion energy =      9.826173069457

        Time for solution =      0.0s



       Symmetry analysis of molecular orbitals - final
       -----------------------------------------------

  Numbering of irreducible representations: 

     1 a1          2 a2          3 b1          4 b2      

  Orbital symmetries:

     1 a1          2 a1          3 b1          4 a1          5 b2      
     6 a1          7 b1      

             Final eigenvalues
             -----------------

              1      
    1  -20.2363
    2   -1.3035
    3   -0.6511
    4   -0.4615
    5   -0.3970
    6    0.6698
    7    0.8178

                       ROHF Final Molecular Orbital Analysis
                       -------------------------------------

 Vector    2  Occ=2.000000D+00  E=-1.303499D+00  Symmetry=a1
              MO Center=  2.7D-15, -1.6D-17, -1.1D-01, r^2= 5.3D-01
   Bfn.  Coefficient  Atom+Function         Bfn.  Coefficient  Atom+Function  
  ----- ------------  ---------------      ----- ------------  ---------------
     2      0.811536  1 O  s                  1     -0.230647  1 O  s          
     7      0.161477  3 H  s                  6      0.161477  2 H  s          
     5     -0.152719  1 O  pz         

 Vector    3  Occ=2.000000D+00  E=-6.511382D-01  Symmetry=b1
              MO Center= -2.7D-15, -8.6D-33, -1.4D-01, r^2= 7.8D-01
   Bfn.  Coefficient  Atom+Function         Bfn.  Coefficient  Atom+Function  
  ----- ------------  ---------------      ----- ------------  ---------------
     3      0.610591  1 O  px                 6     -0.440709  2 H  s          
     7      0.440709  3 H  s          

 Vector    4  Occ=2.000000D+00  E=-4.615104D-01  Symmetry=a1
              MO Center= -1.1D-16, -9.4D-20,  1.8D-01, r^2= 5.6D-01
   Bfn.  Coefficient  Atom+Function         Bfn.  Coefficient  Atom+Function  
  ----- ------------  ---------------      ----- ------------  ---------------
     5      0.789894  1 O  pz                 2      0.554815  1 O  s          
     6     -0.252404  2 H  s                  7     -0.252404  3 H  s          

 Vector    5  Occ=2.000000D+00  E=-3.970054D-01  Symmetry=b2
              MO Center=  2.5D-33,  2.1D-17,  9.4D-02, r^2= 4.2D-01
   Bfn.  Coefficient  Atom+Function         Bfn.  Coefficient  Atom+Function  
  ----- ------------  ---------------      ----- ------------  ---------------
     4      1.000000  1 O  py         

 Vector    6  Occ=0.000000D+00  E= 6.698409D-01  Symmetry=a1
              MO Center=  5.6D-17, -5.6D-18, -4.1D-01, r^2= 1.1D+00
   Bfn.  Coefficient  Atom+Function         Bfn.  Coefficient  Atom+Function  
  ----- ------------  ---------------      ----- ------------  ---------------
     2      0.999955  1 O  s                  6     -0.845786  2 H  s          
     7     -0.845786  3 H  s                  5     -0.748964  1 O  pz         

 Vector    7  Occ=0.000000D+00  E= 8.178190D-01  Symmetry=b1
              MO Center= -1.1D-16,  3.1D-33, -2.5D-01, r^2= 9.8D-01
   Bfn.  Coefficient  Atom+Function         Bfn.  Coefficient  Atom+Function  
  ----- ------------  ---------------      ----- ------------  ---------------
     3      1.027880  1 O  px                 6      0.901455  2 H  s          
     7     -0.901455  3 H  s          


 center of mass
 --------------
 x =   0.00000000 y =   0.00000000 z =   0.06031437

 moments of inertia (a.u.)
 ------------------
           1.936432123832           0.000000000000           0.000000000000
           0.000000000000           5.531950847472           0.000000000000
           0.000000000000           0.000000000000           3.595518723639

  Mulliken analysis of the total density
  --------------------------------------

    Atom       Charge   Shell Charges
 -----------   ------   -------------------------------------------------------
    1 O    8     8.43   2.00  1.81  4.62
    2 H    1     0.79   0.79
    3 H    1     0.79   0.79

       Multipole analysis of the density wrt the origin
       ------------------------------------------------

     L   x y z        total         open         nuclear
     -   - - -        -----         ----         -------
     0   0 0 0      0.000000      0.000000     10.000000

     1   1 0 0      0.000000      0.000000      0.000000
     1   0 1 0      0.000000      0.000000      0.000000
     1   0 0 1     -0.710661      0.000000     -0.313011

     2   2 0 0     -3.269187      0.000000      3.567602
     2   1 1 0      0.000000      0.000000      0.000000
     2   1 0 1      0.000000      0.000000      0.000000
     2   0 2 0     -4.488922      0.000000      0.000000
     2   0 1 1      0.000000      0.000000      0.000000
     2   0 0 2     -3.953804      0.000000      1.740620


 Parallel integral file used       4 records with       0 large values

                              NWChem Gradients Module
                              -----------------------


                                       Water


  wavefunction    =   RHF     

  Using symmetry


                         RHF ENERGY GRADIENTS

    atom               coordinates                        gradient
                 x          y          z           x          y          z
   1 O       0.000000   0.000000   0.176715    0.000000   0.000000  -0.178200
   2 H      -1.335590   0.000000  -0.863364    0.109371   0.000000   0.089100
   3 H       1.335590   0.000000  -0.863364   -0.109371   0.000000   0.089100

                 ----------------------------------------
                 |  Time  |  1-e(secs)   |  2-e(secs)   |
                 ----------------------------------------
                 |  CPU   |       0.00   |       0.00   |
                 ----------------------------------------
                 |  WALL  |       0.00   |       0.00   |
                 ----------------------------------------

  Step       Energy      Delta E   Gmax     Grms     Xrms     Xmax   Walltime
  ---- ---------------- -------- -------- -------- -------- -------- --------
@    1     -74.94288097 -5.5D-02  0.14104  0.11517  0.28021  0.59275      0.4
                                                                    



                                Z-matrix (autoz)
                                -------- 

 Units are Angstrom for bonds and degrees for angles

      Type          Name      I     J     K     L     M      Value     Gradient
      ----------- --------  ----- ----- ----- ----- ----- ---------- ----------
    1 Stretch                  1     2                       0.89579   -0.14104
    2 Stretch                  1     3                       0.89579   -0.14104
    3 Bend                     2     1     3               104.18129    0.00278

 Restricting large step in mode    1 eval= 4.6D-02 step=-3.6D-01 new=-3.0D-01
 Restricting large step in mode    3 eval= 5.0D-01 step= 4.0D-01 new= 3.0D-01
                                 NWChem SCF Module
                                 -----------------


                                       Water



  ao basis        = "ao basis"
  functions       =     7
  atoms           =     3
  closed shells   =     5
  open shells     =     0
  charge          =   0.00
  wavefunction    = RHF 
  input vectors   = /home/d3y133/nwchem-releases/nwchem-merge/nwchem-dev/QA/scratchdir/h2o.movecs
  output vectors  = /home/d3y133/nwchem-releases/nwchem-merge/nwchem-dev/QA/scratchdir/h2o.movecs
  use symmetry    = T
  symmetry adapt  = T


 Summary of "ao basis" -> "ao basis" (cartesian)
 ------------------------------------------------------------------------------
       Tag                 Description            Shells   Functions and Types
 ---------------- ------------------------------  ------  ---------------------
 H                           sto-3g                  1        1   1s
 O                           sto-3g                  3        5   2s1p


      Symmetry analysis of basis
      --------------------------

        a1          4
        a2          0
        b1          2
        b2          1


 Forming initial guess at       0.4s


 Loading old vectors from job with title :

Water


      Symmetry analysis of molecular orbitals - initial
      -------------------------------------------------

  Numbering of irreducible representations: 

     1 a1          2 a2          3 b1          4 b2      

  Orbital symmetries:

     1 a1          2 a1          3 b1          4 a1          5 b2      
     6 a1          7 b1      


 Starting SCF solution at       0.4s



 ----------------------------------------------
         Quadratically convergent ROHF

 Convergence threshold     :          1.000E-06
 Maximum no. of iterations :           30
 Final Fock-matrix accuracy:          1.000E-08
 ----------------------------------------------


 #quartets = 7.900D+01 #integrals = 1.640D+02 #direct =  0.0% #cached =100.0%


 Integral file          = /home/d3y133/nwchem-releases/nwchem-merge/nwchem-dev/QA/scratchdir/h2o.aoints.0
 Record size in doubles =  65536        No. of integs per rec  =  43688
 Max. records in memory =      2        Max. records in file   =  20851
 No. of bits per label  =      8        No. of bits per value  =     64


File balance: exchanges=     0  moved=     0  time=   0.0


              iter       energy          gnorm     gmax       time
             ----- ------------------- --------- --------- --------
                 1      -74.9573455748  2.54D-01  1.88D-01      0.2
                 2      -74.9631717014  6.43D-02  4.29D-02      0.2
                 3      -74.9638740643  1.91D-03  1.52D-03      0.3
                 4      -74.9638744530  9.39D-08  8.42D-08      0.3


       Final RHF  results 
       ------------------ 

         Total SCF energy =    -74.963874452982
      One-electron energy =   -121.417682722400
      Two-electron energy =     37.765780924610
 Nuclear repulsion energy =      8.688027344808

        Time for solution =      0.0s



       Symmetry analysis of molecular orbitals - final
       -----------------------------------------------

  Numbering of irreducible representations: 

     1 a1          2 a2          3 b1          4 b2      

  Orbital symmetries:

     1 a1          2 a1          3 b1          4 a1          5 b2      
     6 a1          7 b1      

             Final eigenvalues
             -----------------

              1      
    1  -20.2596
    2   -1.2497
    3   -0.5735
    4   -0.4661
    5   -0.3941
    6    0.5633
    7    0.6533

                       ROHF Final Molecular Orbital Analysis
                       -------------------------------------

 Vector    2  Occ=2.000000D+00  E=-1.249652D+00  Symmetry=a1
              MO Center=  2.7D-15, -1.6D-17, -7.1D-03, r^2= 5.4D-01
   Bfn.  Coefficient  Atom+Function         Bfn.  Coefficient  Atom+Function  
  ----- ------------  ---------------      ----- ------------  ---------------
     2      0.853260  1 O  s                  1     -0.234626  1 O  s          
     7      0.152820  3 H  s                  6      0.152820  2 H  s          

 Vector    3  Occ=2.000000D+00  E=-5.734841D-01  Symmetry=b1
              MO Center= -2.7D-15, -1.6D-46, -1.2D-01, r^2= 8.5D-01
   Bfn.  Coefficient  Atom+Function         Bfn.  Coefficient  Atom+Function  
  ----- ------------  ---------------      ----- ------------  ---------------
     3      0.620662  1 O  px                 6     -0.452068  2 H  s          
     7      0.452068  3 H  s          

 Vector    4  Occ=2.000000D+00  E=-4.661493D-01  Symmetry=a1
              MO Center=  0.0D+00, -3.0D-34,  1.6D-01, r^2= 7.0D-01
   Bfn.  Coefficient  Atom+Function         Bfn.  Coefficient  Atom+Function  
  ----- ------------  ---------------      ----- ------------  ---------------
     5      0.737371  1 O  pz                 2      0.538218  1 O  s          
     6     -0.308903  2 H  s                  7     -0.308903  3 H  s          

 Vector    5  Occ=2.000000D+00  E=-3.941310D-01  Symmetry=b2
              MO Center=  2.8D-33,  2.2D-17,  1.8D-01, r^2= 4.2D-01
   Bfn.  Coefficient  Atom+Function         Bfn.  Coefficient  Atom+Function  
  ----- ------------  ---------------      ----- ------------  ---------------
     4      1.000000  1 O  py         

 Vector    6  Occ=0.000000D+00  E= 5.632860D-01  Symmetry=a1
              MO Center=  0.0D+00, -5.6D-18, -3.7D-01, r^2= 1.1D+00
   Bfn.  Coefficient  Atom+Function         Bfn.  Coefficient  Atom+Function  
  ----- ------------  ---------------      ----- ------------  ---------------
     5      0.781744  1 O  pz                 2     -0.769133  1 O  s          
     6      0.746016  2 H  s                  7      0.746016  3 H  s          

 Vector    7  Occ=0.000000D+00  E= 6.532929D-01  Symmetry=b1
              MO Center=  1.7D-16,  6.9D-33, -2.2D-01, r^2= 1.0D+00
   Bfn.  Coefficient  Atom+Function         Bfn.  Coefficient  Atom+Function  
  ----- ------------  ---------------      ----- ------------  ---------------
     3      0.933911  1 O  px                 7     -0.799309  3 H  s          
     6      0.799309  2 H  s          


 center of mass
 --------------
 x =   0.00000000 y =   0.00000000 z =   0.19752182

 moments of inertia (a.u.)
 ------------------
           2.966904523707           0.000000000000           0.000000000000
           0.000000000000           7.050525665595           0.000000000000
           0.000000000000           0.000000000000           4.083621141888

  Mulliken analysis of the total density
  --------------------------------------

    Atom       Charge   Shell Charges
 -----------   ------   -------------------------------------------------------
    1 O    8     8.30   2.00  1.86  4.44
    2 H    1     0.85   0.85
    3 H    1     0.85   0.85

       Multipole analysis of the density wrt the origin
       ------------------------------------------------

     L   x y z        total         open         nuclear
     -   - - -        -----         ----         -------
     0   0 0 0      0.000000      0.000000     10.000000

     1   1 0 0      0.000000      0.000000      0.000000
     1   0 1 0      0.000000      0.000000      0.000000
     1   0 0 1     -0.666783      0.000000      0.841202

     2   2 0 0     -3.426443      0.000000      4.051915
     2   1 1 0      0.000000      0.000000      0.000000
     2   1 0 1      0.000000      0.000000      0.000000
     2   0 2 0     -4.572348      0.000000      0.000000
     2   0 1 1      0.000000      0.000000      0.000000
     2   0 0 2     -4.030356      0.000000      2.722642


 Parallel integral file used       4 records with       0 large values

 Line search: 
     step= 1.00 grad=-6.5D-02 hess= 4.4D-02 energy=    -74.963874 mode=downhill
 new step= 0.74                   predicted energy=    -74.966813

          --------
          Step   2
          --------


                         Geometry "geometry" -> "geometry"
                         ---------------------------------

 Output coordinates in a.u. (scale by  1.000000000 to convert to a.u.)

  No.       Tag          Charge          X              Y              Z
 ---- ---------------- ---------- -------------- -------------- --------------
    1 O                    8.0000     0.00000000     0.00000000     0.29759731
    2 H                    1.0000    -1.40338354     0.00000000    -0.92380551
    3 H                    1.0000     1.40338354     0.00000000    -0.92380551

      Atomic Mass 
      ----------- 

      O                 15.994910
      H                  1.007825


 Effective nuclear repulsion energy (a.u.)       8.9563069409

            Nuclear Dipole moment (a.u.) 
            ----------------------------
        X                 Y               Z
 ---------------- ---------------- ----------------
     0.0000000000     0.0000000000     0.5331674168

      Symmetry information
      --------------------

 Group name             C2v       
 Group number             16
 Group order               4
 No. of unique centers     2

      Symmetry unique atoms

     1    2

                                 NWChem SCF Module
                                 -----------------


                                       Water



  ao basis        = "ao basis"
  functions       =     7
  atoms           =     3
  closed shells   =     5
  open shells     =     0
  charge          =   0.00
  wavefunction    = RHF 
  input vectors   = /home/d3y133/nwchem-releases/nwchem-merge/nwchem-dev/QA/scratchdir/h2o.movecs
  output vectors  = /home/d3y133/nwchem-releases/nwchem-merge/nwchem-dev/QA/scratchdir/h2o.movecs
  use symmetry    = T
  symmetry adapt  = T


 Summary of "ao basis" -> "ao basis" (cartesian)
 ------------------------------------------------------------------------------
       Tag                 Description            Shells   Functions and Types
 ---------------- ------------------------------  ------  ---------------------
 H                           sto-3g                  1        1   1s
 O                           sto-3g                  3        5   2s1p


      Symmetry analysis of basis
      --------------------------

        a1          4
        a2          0
        b1          2
        b2          1


 Forming initial guess at       0.5s


 Loading old vectors from job with title :

Water


      Symmetry analysis of molecular orbitals - initial
      -------------------------------------------------

  Numbering of irreducible representations: 

     1 a1          2 a2          3 b1          4 b2      

  Orbital symmetries:

     1 a1          2 a1          3 b1          4 a1          5 b2      
     6 a1          7 b1      


 Starting SCF solution at       0.5s



 ----------------------------------------------
         Quadratically convergent ROHF

 Convergence threshold     :          1.000E-06
 Maximum no. of iterations :           30
 Final Fock-matrix accuracy:          1.000E-08
 ----------------------------------------------


 #quartets = 7.900D+01 #integrals = 1.640D+02 #direct =  0.0% #cached =100.0%


 Integral file          = /home/d3y133/nwchem-releases/nwchem-merge/nwchem-dev/QA/scratchdir/h2o.aoints.0
 Record size in doubles =  65536        No. of integs per rec  =  43688
 Max. records in memory =      2        Max. records in file   =  20851
 No. of bits per label  =      8        No. of bits per value  =     64


File balance: exchanges=     0  moved=     0  time=   0.0


              iter       energy          gnorm     gmax       time
             ----- ------------------- --------- --------- --------
                 1      -74.9652728702  5.76D-02  4.49D-02      0.3
                 2      -74.9656196273  3.06D-03  2.22D-03      0.3
                 3      -74.9656203641  3.42D-07  2.59D-07      0.3


       Final RHF  results 
       ------------------ 

         Total SCF energy =    -74.965620364123
      One-electron energy =   -121.909230018798
      Two-electron energy =     37.987302713819
 Nuclear repulsion energy =      8.956306940856

        Time for solution =      0.0s



       Symmetry analysis of molecular orbitals - final
       -----------------------------------------------

  Numbering of irreducible representations: 

     1 a1          2 a2          3 b1          4 b2      

  Orbital symmetries:

     1 a1          2 a1          3 b1          4 a1          5 b2      
     6 a1          7 b1      

             Final eigenvalues
             -----------------

              1      
    1  -20.2533
    2   -1.2621
    3   -0.5925
    4   -0.4652
    5   -0.3942
    6    0.5894
    7    0.6928

                       ROHF Final Molecular Orbital Analysis
                       -------------------------------------

 Vector    2  Occ=2.000000D+00  E=-1.262137D+00  Symmetry=a1
              MO Center=  0.0D+00,  4.2D-36, -3.6D-02, r^2= 5.4D-01
   Bfn.  Coefficient  Atom+Function         Bfn.  Coefficient  Atom+Function  
  ----- ------------  ---------------      ----- ------------  ---------------
     2      0.842002  1 O  s                  1     -0.233369  1 O  s          
     6      0.155790  2 H  s                  7      0.155790  3 H  s          

 Vector    3  Occ=2.000000D+00  E=-5.925395D-01  Symmetry=b1
              MO Center=  8.3D-17,  1.1D-36, -1.3D-01, r^2= 8.4D-01
   Bfn.  Coefficient  Atom+Function         Bfn.  Coefficient  Atom+Function  
  ----- ------------  ---------------      ----- ------------  ---------------
     3      0.616409  1 O  px                 7      0.450014  3 H  s          
     6     -0.450014  2 H  s          

 Vector    4  Occ=2.000000D+00  E=-4.651782D-01  Symmetry=a1
              MO Center= -2.8D-17,  1.2D-19,  1.7D-01, r^2= 6.6D-01
   Bfn.  Coefficient  Atom+Function         Bfn.  Coefficient  Atom+Function  
  ----- ------------  ---------------      ----- ------------  ---------------
     5      0.750311  1 O  pz                 2      0.545930  1 O  s          
     6     -0.295384  2 H  s                  7     -0.295384  3 H  s          

 Vector    5  Occ=2.000000D+00  E=-3.941836D-01  Symmetry=b2
              MO Center=  2.8D-33,  5.5D-18,  1.6D-01, r^2= 4.2D-01
   Bfn.  Coefficient  Atom+Function         Bfn.  Coefficient  Atom+Function  
  ----- ------------  ---------------      ----- ------------  ---------------
     4      1.000000  1 O  py         

 Vector    6  Occ=0.000000D+00  E= 5.893908D-01  Symmetry=a1
              MO Center=  0.0D+00, -5.6D-18, -3.8D-01, r^2= 1.1D+00
   Bfn.  Coefficient  Atom+Function         Bfn.  Coefficient  Atom+Function  
  ----- ------------  ---------------      ----- ------------  ---------------
     2      0.823114  1 O  s                  5     -0.774429  1 O  pz         
     6     -0.769568  2 H  s                  7     -0.769568  3 H  s          

 Vector    7  Occ=0.000000D+00  E= 6.928486D-01  Symmetry=b1
              MO Center=  1.7D-16,  0.0D+00, -2.3D-01, r^2= 1.0D+00
   Bfn.  Coefficient  Atom+Function         Bfn.  Coefficient  Atom+Function  
  ----- ------------  ---------------      ----- ------------  ---------------
     3      0.956067  1 O  px                 7     -0.821272  3 H  s          
     6      0.821272  2 H  s          


 center of mass
 --------------
 x =   0.00000000 y =   0.00000000 z =   0.16090413

 moments of inertia (a.u.)
 ------------------
           2.670469021862           0.000000000000           0.000000000000
           0.000000000000           6.640262174961           0.000000000000
           0.000000000000           0.000000000000           3.969793153100

  Mulliken analysis of the total density
  --------------------------------------

    Atom       Charge   Shell Charges
 -----------   ------   -------------------------------------------------------
    1 O    8     8.33   2.00  1.85  4.48
    2 H    1     0.83   0.83
    3 H    1     0.83   0.83

       Multipole analysis of the density wrt the origin
       ------------------------------------------------

     L   x y z        total         open         nuclear
     -   - - -        -----         ----         -------
     0   0 0 0      0.000000      0.000000     10.000000

     1   1 0 0      0.000000      0.000000      0.000000
     1   0 1 0      0.000000      0.000000      0.000000
     1   0 0 1     -0.679926      0.000000      0.533167

     2   2 0 0     -3.384326      0.000000      3.938971
     2   1 1 0      0.000000      0.000000      0.000000
     2   1 0 1      0.000000      0.000000      0.000000
     2   0 2 0     -4.552246      0.000000      0.000000
     2   0 1 1      0.000000      0.000000      0.000000
     2   0 0 2     -4.014830      0.000000      2.415347


 Parallel integral file used       4 records with       0 large values

                              NWChem Gradients Module
                              -----------------------


                                       Water


  wavefunction    =   RHF     

  Using symmetry


                         RHF ENERGY GRADIENTS

    atom               coordinates                        gradient
                 x          y          z           x          y          z
   1 O       0.000000   0.000000   0.297597    0.000000   0.000000  -0.000029
   2 H      -1.403384   0.000000  -0.923806    0.009653   0.000000   0.000014
   3 H       1.403384   0.000000  -0.923806   -0.009653   0.000000   0.000014

                 ----------------------------------------
                 |  Time  |  1-e(secs)   |  2-e(secs)   |
                 ----------------------------------------
                 |  CPU   |       0.00   |       0.00   |
                 ----------------------------------------
                 |  WALL  |       0.00   |       0.00   |
                 ----------------------------------------

  Step       Energy      Delta E   Gmax     Grms     Xrms     Xmax   Walltime
  ---- ---------------- -------- -------- -------- -------- -------- --------
@    2     -74.96562036 -2.3D-02  0.00729  0.00695  0.05769  0.12673      0.6
                                                                    



                                Z-matrix (autoz)
                                -------- 

 Units are Angstrom for bonds and degrees for angles

      Type          Name      I     J     K     L     M      Value     Gradient
      ----------- --------  ----- ----- ----- ----- ----- ---------- ----------
    1 Stretch                  1     2                       0.98451   -0.00729
    2 Stretch                  1     3                       0.98451   -0.00729
    3 Bend                     2     1     3                97.93213   -0.00623

                                 NWChem SCF Module
                                 -----------------


                                       Water



  ao basis        = "ao basis"
  functions       =     7
  atoms           =     3
  closed shells   =     5
  open shells     =     0
  charge          =   0.00
  wavefunction    = RHF 
  input vectors   = /home/d3y133/nwchem-releases/nwchem-merge/nwchem-dev/QA/scratchdir/h2o.movecs
  output vectors  = /home/d3y133/nwchem-releases/nwchem-merge/nwchem-dev/QA/scratchdir/h2o.movecs
  use symmetry    = T
  symmetry adapt  = T


 Summary of "ao basis" -> "ao basis" (cartesian)
 ------------------------------------------------------------------------------
       Tag                 Description            Shells   Functions and Types
 ---------------- ------------------------------  ------  ---------------------
 H                           sto-3g                  1        1   1s
 O                           sto-3g                  3        5   2s1p


      Symmetry analysis of basis
      --------------------------

        a1          4
        a2          0
        b1          2
        b2          1


 Forming initial guess at       0.6s


 Loading old vectors from job with title :

Water


      Symmetry analysis of molecular orbitals - initial
      -------------------------------------------------

  Numbering of irreducible representations: 

     1 a1          2 a2          3 b1          4 b2      

  Orbital symmetries:

     1 a1          2 a1          3 b1          4 a1          5 b2      
     6 a1          7 b1      


 Starting SCF solution at       0.6s



 ----------------------------------------------
         Quadratically convergent ROHF

 Convergence threshold     :          1.000E-06
 Maximum no. of iterations :           30
 Final Fock-matrix accuracy:          1.000E-08
 ----------------------------------------------


 #quartets = 7.900D+01 #integrals = 1.640D+02 #direct =  0.0% #cached =100.0%


 Integral file          = /home/d3y133/nwchem-releases/nwchem-merge/nwchem-dev/QA/scratchdir/h2o.aoints.0
 Record size in doubles =  65536        No. of integs per rec  =  43688
 Max. records in memory =      2        Max. records in file   =  20851
 No. of bits per label  =      8        No. of bits per value  =     64


File balance: exchanges=     0  moved=     0  time=   0.0


              iter       energy          gnorm     gmax       time
             ----- ------------------- --------- --------- --------
                 1      -74.9657019434  2.07D-02  1.75D-02      0.3
                 2      -74.9657756947  8.25D-05  7.83D-05      0.4
                 3      -74.9657756949  3.33D-11  2.20D-11      0.4


       Final RHF  results 
       ------------------ 

         Total SCF energy =    -74.965775694852
      One-electron energy =   -121.843680338092
      Two-electron energy =     37.972193777097
 Nuclear repulsion energy =      8.905710866143

        Time for solution =      0.0s



       Symmetry analysis of molecular orbitals - final
       -----------------------------------------------

  Numbering of irreducible representations: 

     1 a1          2 a2          3 b1          4 b2      

  Orbital symmetries:

     1 a1          2 a1          3 b1          4 a1          5 b2      
     6 a1          7 b1      

             Final eigenvalues
             -----------------

              1      
    1  -20.2495
    2   -1.2559
    3   -0.5969
    4   -0.4558
    5   -0.3915
    6    0.5795
    7    0.6976

                       ROHF Final Molecular Orbital Analysis
                       -------------------------------------

 Vector    2  Occ=2.000000D+00  E=-1.255918D+00  Symmetry=a1
              MO Center=  0.0D+00,  9.0D-20, -4.3D-02, r^2= 5.4D-01
   Bfn.  Coefficient  Atom+Function         Bfn.  Coefficient  Atom+Function  
  ----- ------------  ---------------      ----- ------------  ---------------
     2      0.844710  1 O  s                  1     -0.233880  1 O  s          
     6      0.155839  2 H  s                  7      0.155839  3 H  s          

 Vector    3  Occ=2.000000D+00  E=-5.969070D-01  Symmetry=b1
              MO Center=  8.3D-17, -7.5D-37, -1.4D-01, r^2= 8.5D-01
   Bfn.  Coefficient  Atom+Function         Bfn.  Coefficient  Atom+Function  
  ----- ------------  ---------------      ----- ------------  ---------------
     3      0.609900  1 O  px                 7      0.448395  3 H  s          
     6     -0.448395  2 H  s          

 Vector    4  Occ=2.000000D+00  E=-4.558422D-01  Symmetry=a1
              MO Center=  6.9D-18,  9.6D-37,  1.6D-01, r^2= 6.6D-01
   Bfn.  Coefficient  Atom+Function         Bfn.  Coefficient  Atom+Function  
  ----- ------------  ---------------      ----- ------------  ---------------
     5      0.761183  1 O  pz                 2      0.533693  1 O  s          
     6     -0.293239  2 H  s                  7     -0.293239  3 H  s          

 Vector    5  Occ=2.000000D+00  E=-3.914924D-01  Symmetry=b2
              MO Center=  2.9D-33,  5.8D-18,  1.4D-01, r^2= 4.2D-01
   Bfn.  Coefficient  Atom+Function         Bfn.  Coefficient  Atom+Function  
  ----- ------------  ---------------      ----- ------------  ---------------
     4      1.000000  1 O  py         

 Vector    6  Occ=0.000000D+00  E= 5.794993D-01  Symmetry=a1
              MO Center=  0.0D+00, -5.8D-18, -3.8D-01, r^2= 1.1D+00
   Bfn.  Coefficient  Atom+Function         Bfn.  Coefficient  Atom+Function  
  ----- ------------  ---------------      ----- ------------  ---------------
     2      0.824627  1 O  s                  6     -0.771576  2 H  s          
     7     -0.771576  3 H  s                  5     -0.755077  1 O  pz         

 Vector    7  Occ=0.000000D+00  E= 6.975817D-01  Symmetry=b1
              MO Center=  1.7D-16, -1.5D-33, -2.3D-01, r^2= 1.0D+00
   Bfn.  Coefficient  Atom+Function         Bfn.  Coefficient  Atom+Function  
  ----- ------------  ---------------      ----- ------------  ---------------
     3      0.964914  1 O  px                 7     -0.813213  3 H  s          
     6      0.813213  2 H  s          


 center of mass
 --------------
 x =   0.00000000 y =   0.00000000 z =   0.13787362

 moments of inertia (a.u.)
 ------------------
           2.492017839089           0.000000000000           0.000000000000
           0.000000000000           6.726896901134           0.000000000000
           0.000000000000           0.000000000000           4.234879062045

  Mulliken analysis of the total density
  --------------------------------------

    Atom       Charge   Shell Charges
 -----------   ------   -------------------------------------------------------
    1 O    8     8.33   2.00  1.85  4.49
    2 H    1     0.83   0.83
    3 H    1     0.83   0.83

       Multipole analysis of the density wrt the origin
       ------------------------------------------------

     L   x y z        total         open         nuclear
     -   - - -        -----         ----         -------
     0   0 0 0      0.000000      0.000000     10.000000

     1   1 0 0      0.000000      0.000000      0.000000
     1   0 1 0      0.000000      0.000000      0.000000
     1   0 0 1     -0.668861      0.000000      0.339431

     2   2 0 0     -3.295824      0.000000      4.201998
     2   1 1 0      0.000000      0.000000      0.000000
     2   1 0 1      0.000000      0.000000      0.000000
     2   0 2 0     -4.553125      0.000000      0.000000
     2   0 1 1      0.000000      0.000000      0.000000
     2   0 0 2     -4.028466      0.000000      2.238938


 Parallel integral file used       4 records with       0 large values

 Line search: 
     step= 1.00 grad=-9.0D-04 hess= 7.4D-04 energy=    -74.965776 mode=downhill
 new step= 0.60                   predicted energy=    -74.965892

          --------
          Step   3
          --------


                         Geometry "geometry" -> "geometry"
                         ---------------------------------

 Output coordinates in a.u. (scale by  1.000000000 to convert to a.u.)

  No.       Tag          Charge          X              Y              Z
 ---- ---------------- ---------- -------------- -------------- --------------
    1 O                    8.0000     0.00000000     0.00000000     0.28101111
    2 H                    1.0000    -1.43138217     0.00000000    -0.91551242
    3 H                    1.0000     1.43138217     0.00000000    -0.91551242

      Atomic Mass 
      ----------- 

      O                 15.994910
      H                  1.007825


 Effective nuclear repulsion energy (a.u.)       8.9255680175

            Nuclear Dipole moment (a.u.) 
            ----------------------------
        X                 Y               Z
 ---------------- ---------------- ----------------
     0.0000000000     0.0000000000     0.4170640206

      Symmetry information
      --------------------

 Group name             C2v       
 Group number             16
 Group order               4
 No. of unique centers     2

      Symmetry unique atoms

     1    2

                                 NWChem SCF Module
                                 -----------------


                                       Water



  ao basis        = "ao basis"
  functions       =     7
  atoms           =     3
  closed shells   =     5
  open shells     =     0
  charge          =   0.00
  wavefunction    = RHF 
  input vectors   = /home/d3y133/nwchem-releases/nwchem-merge/nwchem-dev/QA/scratchdir/h2o.movecs
  output vectors  = /home/d3y133/nwchem-releases/nwchem-merge/nwchem-dev/QA/scratchdir/h2o.movecs
  use symmetry    = T
  symmetry adapt  = T


 Summary of "ao basis" -> "ao basis" (cartesian)
 ------------------------------------------------------------------------------
       Tag                 Description            Shells   Functions and Types
 ---------------- ------------------------------  ------  ---------------------
 H                           sto-3g                  1        1   1s
 O                           sto-3g                  3        5   2s1p


      Symmetry analysis of basis
      --------------------------

        a1          4
        a2          0
        b1          2
        b2          1


 Forming initial guess at       0.7s


 Loading old vectors from job with title :

Water


      Symmetry analysis of molecular orbitals - initial
      -------------------------------------------------

  Numbering of irreducible representations: 

     1 a1          2 a2          3 b1          4 b2      

  Orbital symmetries:

     1 a1          2 a1          3 b1          4 a1          5 b2      
     6 a1          7 b1      


 Starting SCF solution at       0.7s



 ----------------------------------------------
         Quadratically convergent ROHF

 Convergence threshold     :          1.000E-06
 Maximum no. of iterations :           30
 Final Fock-matrix accuracy:          1.000E-08
 ----------------------------------------------


 #quartets = 7.900D+01 #integrals = 1.640D+02 #direct =  0.0% #cached =100.0%


 Integral file          = /home/d3y133/nwchem-releases/nwchem-merge/nwchem-dev/QA/scratchdir/h2o.aoints.0
 Record size in doubles =  65536        No. of integs per rec  =  43688
 Max. records in memory =      2        Max. records in file   =  20851
 No. of bits per label  =      8        No. of bits per value  =     64


File balance: exchanges=     0  moved=     0  time=   0.0


              iter       energy          gnorm     gmax       time
             ----- ------------------- --------- --------- --------
                 1      -74.9658786057  8.23D-03  6.95D-03      0.4
                 2      -74.9658901173  5.06D-05  3.81D-05      0.4
                 3      -74.9658901175  3.90D-08  3.48D-08      0.4


       Final RHF  results 
       ------------------ 

         Total SCF energy =    -74.965890117528
      One-electron energy =   -121.869158936378
      Two-electron energy =     37.977700801358
 Nuclear repulsion energy =      8.925568017492

        Time for solution =      0.0s



       Symmetry analysis of molecular orbitals - final
       -----------------------------------------------

  Numbering of irreducible representations: 

     1 a1          2 a2          3 b1          4 b2      

  Orbital symmetries:

     1 a1          2 a1          3 b1          4 a1          5 b2      
     6 a1          7 b1      

             Final eigenvalues
             -----------------

              1      
    1  -20.2511
    2   -1.2584
    3   -0.5953
    4   -0.4596
    5   -0.3926
    6    0.5836
    7    0.6956

                       ROHF Final Molecular Orbital Analysis
                       -------------------------------------

 Vector    2  Occ=2.000000D+00  E=-1.258389D+00  Symmetry=a1
              MO Center=  0.0D+00,  5.4D-20, -4.0D-02, r^2= 5.4D-01
   Bfn.  Coefficient  Atom+Function         Bfn.  Coefficient  Atom+Function  
  ----- ------------  ---------------      ----- ------------  ---------------
     2      0.843677  1 O  s                  1     -0.233685  1 O  s          
     6      0.155800  2 H  s                  7      0.155800  3 H  s          

 Vector    3  Occ=2.000000D+00  E=-5.952599D-01  Symmetry=b1
              MO Center=  2.8D-17,  0.0D+00, -1.3D-01, r^2= 8.4D-01
   Bfn.  Coefficient  Atom+Function         Bfn.  Coefficient  Atom+Function  
  ----- ------------  ---------------      ----- ------------  ---------------
     3      0.612401  1 O  px                 7      0.449029  3 H  s          
     6     -0.449029  2 H  s          

 Vector    4  Occ=2.000000D+00  E=-4.595623D-01  Symmetry=a1
              MO Center=  6.9D-18, -3.8D-20,  1.6D-01, r^2= 6.6D-01
   Bfn.  Coefficient  Atom+Function         Bfn.  Coefficient  Atom+Function  
  ----- ------------  ---------------      ----- ------------  ---------------
     5      0.756901  1 O  pz                 2      0.538517  1 O  s          
     6     -0.294097  2 H  s                  7     -0.294097  3 H  s          

 Vector    5  Occ=2.000000D+00  E=-3.925973D-01  Symmetry=b2
              MO Center=  2.9D-33,  5.7D-18,  1.5D-01, r^2= 4.2D-01
   Bfn.  Coefficient  Atom+Function         Bfn.  Coefficient  Atom+Function  
  ----- ------------  ---------------      ----- ------------  ---------------
     4      1.000000  1 O  py         

 Vector    6  Occ=0.000000D+00  E= 5.835693D-01  Symmetry=a1
              MO Center=  0.0D+00, -5.8D-18, -3.8D-01, r^2= 1.1D+00
   Bfn.  Coefficient  Atom+Function         Bfn.  Coefficient  Atom+Function  
  ----- ------------  ---------------      ----- ------------  ---------------
     2      0.824093  1 O  s                  6     -0.770869  2 H  s          
     7     -0.770869  3 H  s                  5     -0.762794  1 O  pz         

 Vector    7  Occ=0.000000D+00  E= 6.956103D-01  Symmetry=b1
              MO Center=  1.1D-16,  2.3D-33, -2.3D-01, r^2= 1.0D+00
   Bfn.  Coefficient  Atom+Function         Bfn.  Coefficient  Atom+Function  
  ----- ------------  ---------------      ----- ------------  ---------------
     3      0.961486  1 O  px                 7     -0.816250  3 H  s          
     6      0.816250  2 H  s          


 center of mass
 --------------
 x =   0.00000000 y =   0.00000000 z =   0.14710230

 moments of inertia (a.u.)
 ------------------
           2.562785086966           0.000000000000           0.000000000000
           0.000000000000           6.692559491902           0.000000000000
           0.000000000000           0.000000000000           4.129774404936

  Mulliken analysis of the total density
  --------------------------------------

    Atom       Charge   Shell Charges
 -----------   ------   -------------------------------------------------------
    1 O    8     8.33   2.00  1.85  4.49
    2 H    1     0.83   0.83
    3 H    1     0.83   0.83

       Multipole analysis of the density wrt the origin
       ------------------------------------------------

     L   x y z        total         open         nuclear
     -   - - -        -----         ----         -------
     0   0 0 0      0.000000      0.000000     10.000000

     1   1 0 0      0.000000      0.000000      0.000000
     1   0 1 0      0.000000      0.000000      0.000000
     1   0 0 1     -0.673236      0.000000      0.417064

     2   2 0 0     -3.331181      0.000000      4.097710
     2   1 1 0      0.000000      0.000000      0.000000
     2   1 0 1      0.000000      0.000000      0.000000
     2   0 2 0     -4.552821      0.000000      0.000000
     2   0 1 1      0.000000      0.000000      0.000000
     2   0 0 2     -4.023219      0.000000      2.308064


 Parallel integral file used       4 records with       0 large values

                              NWChem Gradients Module
                              -----------------------


                                       Water


  wavefunction    =   RHF     

  Using symmetry


                         RHF ENERGY GRADIENTS

    atom               coordinates                        gradient
                 x          y          z           x          y          z
   1 O       0.000000   0.000000   0.281011    0.000000   0.000000  -0.003679
   2 H      -1.431382   0.000000  -0.915512    0.001650   0.000000   0.001839
   3 H       1.431382   0.000000  -0.915512   -0.001650   0.000000   0.001839

                 ----------------------------------------
                 |  Time  |  1-e(secs)   |  2-e(secs)   |
                 ----------------------------------------
                 |  CPU   |       0.00   |       0.00   |
                 ----------------------------------------
                 |  WALL  |       0.00   |       0.00   |
                 ----------------------------------------

  Step       Energy      Delta E   Gmax     Grms     Xrms     Xmax   Walltime
  ---- ---------------- -------- -------- -------- -------- -------- --------
@    3     -74.96589012 -2.7D-04  0.00245  0.00201  0.01472  0.02749      0.8
                                                                    



                                Z-matrix (autoz)
                                -------- 

 Units are Angstrom for bonds and degrees for angles

      Type          Name      I     J     K     L     M      Value     Gradient
      ----------- --------  ----- ----- ----- ----- ----- ---------- ----------
    1 Stretch                  1     2                       0.98724   -0.00245
    2 Stretch                  1     3                       0.98724   -0.00245
    3 Bend                     2     1     3               100.21403    0.00035

                                 NWChem SCF Module
                                 -----------------


                                       Water



  ao basis        = "ao basis"
  functions       =     7
  atoms           =     3
  closed shells   =     5
  open shells     =     0
  charge          =   0.00
  wavefunction    = RHF 
  input vectors   = /home/d3y133/nwchem-releases/nwchem-merge/nwchem-dev/QA/scratchdir/h2o.movecs
  output vectors  = /home/d3y133/nwchem-releases/nwchem-merge/nwchem-dev/QA/scratchdir/h2o.movecs
  use symmetry    = T
  symmetry adapt  = T


 Summary of "ao basis" -> "ao basis" (cartesian)
 ------------------------------------------------------------------------------
       Tag                 Description            Shells   Functions and Types
 ---------------- ------------------------------  ------  ---------------------
 H                           sto-3g                  1        1   1s
 O                           sto-3g                  3        5   2s1p


      Symmetry analysis of basis
      --------------------------

        a1          4
        a2          0
        b1          2
        b2          1


 Forming initial guess at       0.8s


 Loading old vectors from job with title :

Water


      Symmetry analysis of molecular orbitals - initial
      -------------------------------------------------

  Numbering of irreducible representations: 

     1 a1          2 a2          3 b1          4 b2      

  Orbital symmetries:

     1 a1          2 a1          3 b1          4 a1          5 b2      
     6 a1          7 b1      


 Starting SCF solution at       0.8s



 ----------------------------------------------
         Quadratically convergent ROHF

 Convergence threshold     :          1.000E-06
 Maximum no. of iterations :           30
 Final Fock-matrix accuracy:          1.000E-08
 ----------------------------------------------


 #quartets = 7.900D+01 #integrals = 1.640D+02 #direct =  0.0% #cached =100.0%


 Integral file          = /home/d3y133/nwchem-releases/nwchem-merge/nwchem-dev/QA/scratchdir/h2o.aoints.0
 Record size in doubles =  65536        No. of integs per rec  =  43688
 Max. records in memory =      2        Max. records in file   =  20851
 No. of bits per label  =      8        No. of bits per value  =     64


File balance: exchanges=     0  moved=     0  time=   0.0


              iter       energy          gnorm     gmax       time
             ----- ------------------- --------- --------- --------
                 1      -74.9658994342  3.41D-03  2.70D-03      0.4
                 2      -74.9659007239  1.10D-06  8.49D-07      0.5
                 3      -74.9659007239  5.08D-08  3.37D-08      0.5


       Final RHF  results 
       ------------------ 

         Total SCF energy =    -74.965900723914
      One-electron energy =   -121.841355055431
      Two-electron energy =     37.965024342875
 Nuclear repulsion energy =      8.910429988642

        Time for solution =      0.0s



       Symmetry analysis of molecular orbitals - final
       -----------------------------------------------

  Numbering of irreducible representations: 

     1 a1          2 a2          3 b1          4 b2      

  Orbital symmetries:

     1 a1          2 a1          3 b1          4 a1          5 b2      
     6 a1          7 b1      

             Final eigenvalues
             -----------------

              1      
    1  -20.2515
    2   -1.2577
    3   -0.5941
    4   -0.4597
    5   -0.3926
    6    0.5822
    7    0.6933

                       ROHF Final Molecular Orbital Analysis
                       -------------------------------------

 Vector    2  Occ=2.000000D+00  E=-1.257724D+00  Symmetry=a1
              MO Center=  0.0D+00,  5.3D-20, -3.8D-02, r^2= 5.4D-01
   Bfn.  Coefficient  Atom+Function         Bfn.  Coefficient  Atom+Function  
  ----- ------------  ---------------      ----- ------------  ---------------
     2      0.844289  1 O  s                  1     -0.233749  1 O  s          
     6      0.155637  2 H  s                  7      0.155637  3 H  s          

 Vector    3  Occ=2.000000D+00  E=-5.941428D-01  Symmetry=b1
              MO Center=  0.0D+00,  0.0D+00, -1.3D-01, r^2= 8.5D-01
   Bfn.  Coefficient  Atom+Function         Bfn.  Coefficient  Atom+Function  
  ----- ------------  ---------------      ----- ------------  ---------------
     3      0.612637  1 O  px                 6     -0.449183  2 H  s          
     7      0.449183  3 H  s          

 Vector    4  Occ=2.000000D+00  E=-4.596988D-01  Symmetry=a1
              MO Center=  6.9D-18, -5.1D-20,  1.6D-01, r^2= 6.6D-01
[...]
 Projected Nuclear Hessian trans-rot subspace norm:6.1630D-33
                         (should be close to zero!) 


From the projected analysis 
The Zero-Point Energy (Kcal/mol) =          13.25234592

 center of mass
 --------------
 x =   0.00000000 y =   0.00000000 z =   0.14985879

 moments of inertia (a.u.)
 ------------------
           2.584114546865           0.000000000000           0.000000000000
           0.000000000000           6.720713727728           0.000000000000
           0.000000000000           0.000000000000           4.136599180862

 Rotational Constants
 --------------------
 A=  23.296249 cm-1  ( 33.517357 K)
 B=  14.553060 cm-1  ( 20.938139 K)
 C=   8.957408 cm-1  ( 12.887424 K)


 Temperature                      =   298.15K
 frequency scaling parameter      =   1.0000

 Zero-Point correction to Energy  =   13.242 kcal/mol  (  0.021103 au)
 Thermal correction to Energy     =   15.019 kcal/mol  (  0.023935 au)
 Thermal correction to Enthalpy   =   15.611 kcal/mol  (  0.024878 au)

 Total Entropy                    =   45.263 cal/mol-K
   - Translational                =   34.593 cal/mol-K (mol. weight =  18.0106)
   - Rotational                   =   10.668 cal/mol-K (symmetry #  =        2)
   - Vibrational                  =    0.002 cal/mol-K

 Cv (constant volume heat capacity) =    5.976 cal/mol-K
   - Translational                  =    2.979 cal/mol-K
   - Rotational                     =    2.979 cal/mol-K
   - Vibrational                    =    0.018 cal/mol-K



          -------------------------------------------------
          NORMAL MODE EIGENVECTORS IN CARTESIAN COORDINATES
          -------------------------------------------------
             (Projected Frequencies expressed in cm-1)

                    1           2           3           4           5           6
 
 P.Frequency        0.00        0.00        0.00        0.00        0.00        0.00
 
           1     0.00000     0.00000     0.00000     0.01470    -0.22902    -0.06044
           2     0.25004     0.00000     0.00000     0.00000     0.00000     0.00000
           3     0.00000     0.00000     0.00000    -0.22854    -0.00008    -0.03073
           4     0.00000     0.00000     0.00000    -0.07637    -0.23085     0.31318
           5     0.00000     0.70463     0.00000     0.00000     0.00000     0.00000
           6     0.00000     0.00000     0.00000    -0.11996     0.00210    -0.47620
           7     0.00000     0.00000     0.00000    -0.07637    -0.23085     0.31318
           8     0.00000     0.00000     0.99611     0.00000     0.00000     0.00000
           9     0.00000     0.00000     0.00000    -0.33712    -0.00226     0.41473

                    7           8           9
 
 P.Frequency     1900.87     3090.22     4276.29
 
           1     0.00055     0.05893    -0.05222
           2     0.00000     0.00000     0.00000
           3    -0.07385     0.05381     0.03156
           4    -0.25743    -0.52117     0.03760
           5     0.00000     0.00000     0.00000
           6     0.29142    -0.40994     0.04859
           7     0.50572     0.10621     0.75366
           8     0.00000     0.00000     0.00000
           9     0.58972    -0.03481    -0.59800



 ----------------------------------------------------------------------------
 Normal Eigenvalue ||    Projected Derivative Dipole Moments (debye/angs)
  Mode   [cm**-1]  ||      [d/dqX]             [d/dqY]           [d/dqZ]
 ------ ---------- || ------------------ ------------------ -----------------
    1        0.000 ||       0.000              -0.672             0.000
    2        0.000 ||       0.000               0.947             0.000
    3        0.000 ||       0.000               1.339             0.000
    4        0.000 ||       0.245               0.000             0.000
    5        0.000 ||       0.005               0.000             0.000
    6        0.000 ||       1.004               0.000             0.000
    7     1900.870 ||       0.336               0.000             0.369
    8     3090.218 ||       0.360               0.000             0.584
    9     4276.287 ||      -0.621               0.000             0.663
 ----------------------------------------------------------------------------



  
  
 ----------------------------------------------------------------------------
 Normal Eigenvalue ||           Projected Infra Red Intensities
  Mode   [cm**-1]  || [atomic units] [(debye/angs)**2] [(KM/mol)] [arbitrary]
 ------ ---------- || -------------- ----------------- ---------- -----------
    1        0.000 ||    0.019584           0.452        19.091       7.065
    2        0.000 ||    0.038881           0.897        37.904      14.026
    3        0.000 ||    0.077703           1.793        75.749      28.031
    4        0.000 ||    0.002598           0.060         2.532       0.937
    5        0.000 ||    0.000001           0.000         0.001       0.000
    6        0.000 ||    0.043725           1.009        42.625      15.774
    7     1900.870 ||    0.010807           0.249        10.536       3.899
    8     3090.218 ||    0.020391           0.470        19.878       7.356
    9     4276.287 ||    0.035792           0.826        34.892      12.912
 ----------------------------------------------------------------------------



 vib:animation  F

 Task  times  cpu:        0.0s     wall:        0.0s


                                NWChem Input Module
                                -------------------


  WARNING: old mass redefinitions being replaced


                   NWChem Nuclear Hessian and Frequency Analysis
                   ---------------------------------------------

                       reusing previously generated Hessian
                       ------------------------------------


  Vibrational analysis via the FX method 

  See chapter 2 in "Molecular Vibrations" by Wilson, Decius and Cross

  Vib: Default input used 

  Nuclear Hessian passed symmetry test 



 ---------------------------- Atom information ----------------------------
     atom    #        X              Y              Z            mass
 --------------------------------------------------------------------------
    O        1  0.0000000D+00  0.0000000D+00  2.8432369D-01  1.5994910D+01
    H        2 -1.4325644D+00  0.0000000D+00 -9.1716871D-01  2.0141018D+00
    H        3  1.4325644D+00  0.0000000D+00 -9.1716871D-01  3.0160493D+00
 --------------------------------------------------------------------------




          ----------------------------------------------------
          MASS-WEIGHTED NUCLEAR HESSIAN (Hartree/Bohr/Bohr/Kamu)
          ----------------------------------------------------


              1           2           3           4           5           6           7           8           9
   ----- ----- ----- ----- -----
    1   5.02629D+01
    2  -1.97223D-16-3.58723D-07
    3   9.59055D-15 5.94164D-15 3.96939D+01
    4  -7.08219D+01 1.35178D-15-3.81109D+01 2.17919D+02
    5  -2.03368D-15 5.03601D-07-3.82677D-15 6.44472D-16-2.57577D-05
    6  -5.93984D+01-8.33793D-15-5.59299D+01 1.37394D+02-9.02283D-16 1.49001D+02
    7  -5.78748D+01-1.02982D-15 3.11437D+01-1.49863D+01 5.28095D-15 2.45113D+01 1.45525D+02
    8   2.11608D-15 4.11536D-07-2.93873D-15-1.16640D-15 1.98891D-05 1.78301D-15-3.91991D-15-1.72008D-05
    9   4.85396D+01-6.86924D-15-4.57052D+01-2.45113D+01-1.27346D-15 7.03810D+00-9.17507D+01 1.68597D-14 9.95022D+01



          -------------------------------------------------
          NORMAL MODE EIGENVECTORS IN CARTESIAN COORDINATES
          -------------------------------------------------
                 (Frequencies expressed in cm-1)

                    1           2           3           4           5           6
 
 Frequency         -1.05       -0.84       -0.20       -0.01       -0.01        0.00
 
           1     0.00000    -0.07242     0.00000     0.21809     0.00000     0.00000
           2    -0.00080     0.00000    -0.12238     0.00000     0.21804     0.00000
           3     0.00000    -0.01720     0.00000     0.00000     0.00000    -0.21809
           4     0.00000     0.23033     0.00000     0.21808     0.00000     0.00000
           5     0.54816     0.00000     0.38522     0.00000     0.21823     0.00000
           6     0.00000    -0.37818     0.00000     0.00001     0.00000    -0.21809
           7     0.00000     0.23033     0.00000     0.21808     0.00000     0.00000
           8    -0.36180     0.00000     0.39120     0.00000     0.21823     0.00000
           9     0.00000     0.34378     0.00000    -0.00001     0.00000    -0.21809

                    7           8           9
 
 Frequency       1463.33     2579.31     3123.05
 
           1    -0.00210    -0.06129     0.07714
           2     0.00000     0.00000     0.00000
           3    -0.08994     0.07150     0.03821
           4    -0.35462    -0.12043    -0.50560
           5     0.00000     0.00000     0.00000
           6     0.36409    -0.07983    -0.40863
           7     0.24792     0.40543    -0.07146
           8     0.00000     0.00000     0.00000
           9     0.23382    -0.32590     0.07023



 ----------------------------------------------------------------------------
 Normal Eigenvalue ||         Derivative Dipole Moments (debye/angs)
  Mode   [cm**-1]  ||      [d/dqX]             [d/dqY]           [d/dqZ]
 ------ ---------- || ------------------ ------------------ -----------------
    1       -1.051 ||       0.000               0.253             0.000
    2       -0.842 ||       0.814               0.000             0.000
    3       -0.199 ||       0.000               1.373             0.000
    4       -0.007 ||       0.000               0.000             0.000
    5       -0.005 ||       0.000               0.001             0.000
    6       -0.005 ||       0.000               0.000             0.000
    7     1463.328 ||      -0.146               0.000             0.299
    8     2579.306 ||      -0.231               0.000             0.507
    9     3123.047 ||       0.455               0.000             0.411
 ----------------------------------------------------------------------------



  
  
 ----------------------------------------------------------------------------
 Normal Eigenvalue ||                 Infra Red Intensities
  Mode   [cm**-1]  || [atomic units] [(debye/angs)**2] [(KM/mol)] [arbitrary]
 ------ ---------- || -------------- ----------------- ---------- -----------
    1       -1.051 ||    0.002767           0.064         2.697       1.686
    2       -0.842 ||    0.028712           0.662        27.990      17.498
    3       -0.199 ||    0.081663           1.884        79.609      49.769
    4       -0.007 ||    0.000000           0.000         0.000       0.000
    5       -0.005 ||    0.000000           0.000         0.000       0.000
    6       -0.005 ||    0.000000           0.000         0.000       0.000
    7     1463.328 ||    0.004791           0.111         4.671       2.920
    8     2579.306 ||    0.013455           0.310        13.117       8.200
    9     3123.047 ||    0.016289           0.376        15.879       9.927
 ----------------------------------------------------------------------------





        Vibrational analysis via the FX method 
  --- with translations and rotations projected out ---
  --- via the Eckart algorithm                      ---
 Projected Nuclear Hessian trans-rot subspace norm:6.1630D-33
                         (should be close to zero!) 


From the projected analysis 
The Zero-Point Energy (Kcal/mol) =          10.24692347

 center of mass
 --------------
 x =   0.00000000 y =   0.00000000 z =   0.14985879

 moments of inertia (a.u.)
 ------------------
           2.584114546865           0.000000000000           0.000000000000
           0.000000000000           6.720713727728           0.000000000000
           0.000000000000           0.000000000000           4.136599180862

 Rotational Constants
 --------------------
 A=  23.296249 cm-1  ( 33.517357 K)
 B=  14.553060 cm-1  ( 20.938139 K)
 C=   8.957408 cm-1  ( 12.887424 K)


 Temperature                      =   298.15K
 frequency scaling parameter      =   1.0000

 Zero-Point correction to Energy  =   10.239 kcal/mol  (  0.016317 au)
 Thermal correction to Energy     =   12.019 kcal/mol  (  0.019154 au)
 Thermal correction to Enthalpy   =   12.611 kcal/mol  (  0.020098 au)

 Total Entropy                    =   45.275 cal/mol-K
   - Translational                =   34.593 cal/mol-K (mol. weight =  18.0106)
   - Rotational                   =   10.668 cal/mol-K (symmetry #  =        2)
   - Vibrational                  =    0.014 cal/mol-K

 Cv (constant volume heat capacity) =    6.045 cal/mol-K
   - Translational                  =    2.979 cal/mol-K
   - Rotational                     =    2.979 cal/mol-K
   - Vibrational                    =    0.086 cal/mol-K



          -------------------------------------------------
          NORMAL MODE EIGENVECTORS IN CARTESIAN COORDINATES
          -------------------------------------------------
             (Projected Frequencies expressed in cm-1)

                    1           2           3           4           5           6
 
 P.Frequency        0.00        0.00        0.00        0.00        0.00        0.00
 
           1    -0.03280     0.06540     0.00000     0.00000     0.00000     0.21785
           2     0.00000     0.00000     0.25004     0.00000     0.00000     0.00000
           3    -0.20266    -0.08238     0.00000     0.00000     0.00000    -0.00006
           4     0.10292    -0.20523     0.00000     0.00000     0.00000     0.21885
           5     0.00000     0.00000     0.00000     0.70463     0.00000     0.00000
           6    -0.36447     0.24029     0.00000     0.00000     0.00000    -0.00126
           7     0.10292    -0.20523     0.00000     0.00000     0.00000     0.21885
           8     0.00000     0.00000     0.00000     0.00000     0.57581     0.00000
           9    -0.04084    -0.40506     0.00000     0.00000     0.00000     0.00115

                    7           8           9
 
 P.Frequency     1463.33     2579.31     3123.05
 
           1    -0.00210    -0.06129     0.07714
           2     0.00000     0.00000     0.00000
           3    -0.08994     0.07150     0.03821
           4    -0.35462    -0.12043    -0.50560
           5     0.00000     0.00000     0.00000
           6     0.36409    -0.07983    -0.40863
           7     0.24792     0.40543    -0.07146
           8     0.00000     0.00000     0.00000
           9     0.23382    -0.32590     0.07023



 ----------------------------------------------------------------------------
 Normal Eigenvalue ||    Projected Derivative Dipole Moments (debye/angs)
  Mode   [cm**-1]  ||      [d/dqX]             [d/dqY]           [d/dqZ]
 ------ ---------- || ------------------ ------------------ -----------------
    1        0.000 ||       0.365               0.000             0.000
    2        0.000 ||       0.728               0.000             0.000
    3        0.000 ||       0.000              -0.672             0.000
    4        0.000 ||       0.000               0.947             0.000
    5        0.000 ||       0.000               0.774             0.000
    6        0.000 ||       0.003               0.000             0.000
    7     1463.328 ||      -0.146               0.000             0.299
    8     2579.306 ||      -0.231               0.000             0.507
    9     3123.047 ||       0.455               0.000             0.411
 ----------------------------------------------------------------------------



  
  
 ----------------------------------------------------------------------------
 Normal Eigenvalue ||           Projected Infra Red Intensities
  Mode   [cm**-1]  || [atomic units] [(debye/angs)**2] [(KM/mol)] [arbitrary]
 ------ ---------- || -------------- ----------------- ---------- -----------
    1        0.000 ||    0.005769           0.133         5.624       3.516
    2        0.000 ||    0.022942           0.529        22.365      13.982
    3        0.000 ||    0.019584           0.452        19.091      11.935
    4        0.000 ||    0.038881           0.897        37.904      23.696
    5        0.000 ||    0.025965           0.599        25.312      15.824
    6        0.000 ||    0.000000           0.000         0.000       0.000
    7     1463.328 ||    0.004791           0.111         4.671       2.920
    8     2579.306 ||    0.013455           0.310        13.117       8.200
    9     3123.047 ||    0.016289           0.376        15.879       9.927
 ----------------------------------------------------------------------------



 vib:animation  F

 Task  times  cpu:        0.0s     wall:        0.0s
 Summary of allocated global arrays
-----------------------------------
  No active global arrays



                         GA Statistics for process    0
                         ------------------------------

       create   destroy   get      put      acc     scatter   gather  read&inc
calls: 2845     2845     9463     4386     4574      136        0      676     
number of processes/call 1.12e+00 1.25e+00 1.07e+00 1.62e+00 0.00e+00
bytes total:             1.27e+06 4.81e+05 3.62e+05 1.64e+04 0.00e+00 5.41e+03
bytes remote:            1.60e+05 6.74e+04 9.07e+04 -7.49e+03 0.00e+00 0.00e+00
Max memory consumed for GA by this process: 11784 bytes
MA_summarize_allocated_blocks: starting scan ...
MA_summarize_allocated_blocks: scan completed: 0 heap blocks, 0 stack blocks
MA usage statistics:

	allocation statistics:
					      heap	     stack
					      ----	     -----
	current number of blocks	         0	         0
	maximum number of blocks	        25	        36
	current total bytes		         0	         0
	maximum total bytes		   1053912	  63834536
	maximum total K-bytes		      1054	     63835
	maximum total M-bytes		         2	        64


                                NWChem Input Module
                                -------------------





                                     CITATION
                                     --------
                Please cite the following reference when publishing
                           results obtained with NWChem:

                 M. Valiev, E.J. Bylaska, N. Govind, K. Kowalski,
              T.P. Straatsma, H.J.J. van Dam, D. Wang, J. Nieplocha,
                        E. Apra, T.L. Windus, W.A. de Jong
                 "NWChem: a comprehensive and scalable open-source
                  solution for large scale molecular simulations"
                      Comput. Phys. Commun. 181, 1477 (2010)
                           doi:10.1016/j.cpc.2010.04.018

                              AUTHORS & CONTRIBUTORS
                              ----------------------
      E. J. Bylaska, W. A. de Jong, N. Govind, K. Kowalski, T. P. Straatsma,
     M. Valiev, H. J. J. van Dam, D. Wang, E. Apra, T. L. Windus, J. Hammond,
     J. Autschbach, P. Nichols, S. Hirata, M. T. Hackler, Y. Zhao, P.-D. Fan,
      R. J. Harrison, M. Dupuis, D. M. A. Smith, K. Glaesemann, J. Nieplocha,
      V. Tipparaju, M. Krishnan, A. Vazquez-Mayagoitia, L. Jensen, M. Swart,
      Q. Wu, T. Van Voorhis, A. A. Auer, M. Nooijen, L. D. Crosby, E. Brown,
             G. Cisneros, G. I. Fann, H. Fruchtl, J. Garza, K. Hirao,
        R. Kendall, J. A. Nichols, K. Tsemekhman, K. Wolinski, J. Anchell,
       D. Bernholdt, P. Borowski, T. Clark, D. Clerc, H. Dachsel, M. Deegan,
        K. Dyall, D. Elwood, E. Glendening, M. Gutowski, A. Hess, J. Jaffe,
        B. Johnson, J. Ju, R. Kobayashi, R. Kutteh, Z. Lin, R. Littlefield,
    X. Long, B. Meng, T. Nakajima, S. Niu, L. Pollack, M. Rosing, G. Sandrone,
       M. Stave, H. Taylor, G. Thomas, J. H. van Lenthe, A. Wong, Z. Zhang.

 Total times  cpu:        0.7s     wall:        1.2s
