 argument  1 = hess_h2o.nw

0:good so far



============================== echo of input deck ==============================
echo
start  h2o
title Water
geometry units au autosym
  O      0.00000000    0.00000000    0.00000000
  H      0.00000000    1.93042809   -1.10715266
  H      0.00000000   -1.93042809   -1.10715266
end
basis noprint
  H library sto-3g
  O library sto-3g
end
scf; thresh 1e-6; end
driver; tight; end
task scf optimize

scf; thresh 1e-8; print none; end
task scf freq

freq
  reuse; temperature 4 298.15 300.0 350.0 400.0
end
task scf freq

freq
 reuse; mass H 2.014101779
 temperature 1 298.15
end
task scf freq

freq
 reuse; mass 2 2.014101779
end
task scf freq

freq
 reuse; mass 2 2.014101779 ; mass 3 3.01604927
end
task scf freq
================================================================================


                                         
                                         


              Northwest Computational Chemistry Package (NWChem) 4.7
              ------------------------------------------------------


                    Environmental Molecular Sciences Laboratory
                       Pacific Northwest National Laboratory
                                Richland, WA 99352

                                         
                                         


                     COPYRIGHT (C) 1994, 1995, 1996, 1997, 1998,
                         1999, 2000, 2001, 2002, 2003, 2004
                        Pacific Northwest National Laboratory,
                             Battelle Memorial Institute.

                            >>> All Rights Reserved <<<


                                    DISCLAIMER
                                    ----------

            This material was prepared as an account of work sponsored
            by an agency of the United States Government.  Neither the
            United States Government nor the United States Department
            of Energy, nor Battelle, nor any of their employees, MAKES
            ANY WARRANTY, EXPRESS OR IMPLIED, OR ASSUMES ANY LEGAL
            LIABILITY OR RESPONSIBILITY FOR THE ACCURACY, COMPLETENESS,
            OR USEFULNESS OF ANY INFORMATION, APPARATUS, PRODUCT,
            SOFTWARE, OR PROCESS DISCLOSED, OR REPRESENTS THAT ITS USE
            WOULD NOT INFRINGE PRIVATELY OWNED RIGHTS.


                                    LIMITED USE
                                    -----------

            This software (including any documentation) is being made
            available to you for your internal use only, solely for use
            in performance of work directly for the U.S. Federal
            Government or work under contracts with the U.S. Department
            of Energy or other U.S. Federal Government agencies.  This
            software is a version which has not yet been evaluated and
            cleared for commercialization.  Adherence to this notice
            may be necessary for the author, Battelle Memorial
            Institute, to successfully assert copyright in and
            commercialize this software. This software is not intended
            for duplication or distribution to third parties without
            the permission of the Manager of Software Products at
            Pacific Northwest National Laboratory, Richland,
            Washington, 99352.


                                  ACKNOWLEDGMENT
                                  --------------

            This software and its documentation were produced with
            Government support under Contract Number DE-AC06-76RLO-1830
            awarded by the United States Department of Energy.  The
            Government retains a paid-up non-exclusive, irrevocable
            worldwide license to reproduce, prepare derivative works,
            perform publicly and display publicly by or for the
            Government, including the right to distribute to other
            Government contractors.


           Job information
           ---------------

    hostname      = skor
    program       = /home/windus/nwchem/bin/LINUX/nwchem
    date          = Tue Aug 16 16:10:43 2005

    compiled      = Tue Aug 16 14:53:45 PDT 2005
    source        = /home/windus/nwchem
    nwchem branch = Development
    input         = hess_h2o.nw
    prefix        = h2o.
    data base     = ./h2o.db
    status        = startup
    nproc         =    1
    time left     =     -1s



           Memory information
           ------------------

    heap      =   39321601 doubles =    300.0 Mbytes
    stack     =   13107201 doubles =    100.0 Mbytes
    global    =   52428811 doubles =    400.0 Mbytes (within heap+stack)
    total     =   52428802 doubles =    400.0 Mbytes
    verify    = yes
    hardfail  = no 


           Directory information
           ---------------------

  0 permanent = .
  0 scratch   = .




                                NWChem Input Module
                                -------------------


                                       Water
                                       -----
 C2V symmetry detected

          ------
          auto-z
          ------


                             Geometry "geometry" -> ""
                             -------------------------

 Output coordinates in a.u. (scale by  1.000000000 to convert to a.u.)

  No.       Tag          Charge          X              Y              Z
 ---- ---------------- ---------- -------------- -------------- --------------
    1 O                    8.0000     0.00000000     0.00000000     0.22143053
    2 H                    1.0000    -1.93042809     0.00000000    -0.88572213
    3 H                    1.0000     1.93042809     0.00000000    -0.88572213

      Atomic Mass 
      ----------- 

      O                 15.994910
      H                  1.007825


 Effective nuclear repulsion energy (a.u.)       7.4487761816

            Nuclear Dipole moment (a.u.) 
            ----------------------------
        X                 Y               Z
 ---------------- ---------------- ----------------
     0.0000000000     0.0000000000     0.0000000000

      Symmetry information
      --------------------

 Group name             C2v       
 Group number             16
 Group order               4
 No. of unique centers     2

      Symmetry unique atoms

     1    2



                                Z-matrix (autoz)
                                -------- 

 Units are Angstrom for bonds and degrees for angles

      Type          Name      I     J     K     L     M      Value
      ----------- --------  ----- ----- ----- ----- ----- ----------
    1 Stretch                  1     2                       1.17762
    2 Stretch                  1     3                       1.17762
    3 Bend                     2     1     3               120.32913


            XYZ format geometry
            -------------------
     3
 geometry
 O                     0.00000000     0.00000000     0.11717600
 H                    -1.02153863     0.00000000    -0.46870400
 H                     1.02153863     0.00000000    -0.46870400



                           NWChem Geometry Optimization
                           ----------------------------




                                       Water


 maximum gradient threshold         (gmax) =   0.000015
 rms gradient threshold             (grms) =   0.000010
 maximum cartesian step threshold   (xmax) =   0.000060
 rms cartesian step threshold       (xrms) =   0.000040
 fixed trust radius                (trust) =   0.300000
 maximum step size to saddle      (sadstp) =   0.100000
 energy precision                  (eprec) =   1.0E-07
 maximum number of steps          (nptopt) =   20
 initial hessian option           (inhess) =    0
 line search option               (linopt) =    1
 hessian update option            (modupd) =    1
 saddle point option              (modsad) =    0
 initial eigen-mode to follow     (moddir) =    0
 initial variable to follow       (vardir) =    0
 follow first negative mode     (firstneg) =    T
 apply conjugacy                    (opcg) =    F
 source of zmatrix                         =   autoz   


          -------------------
          Energy Minimization
          -------------------


 Names of Z-matrix variables 
    1              2              3         

 Variables with the same non-blank name are constrained to be equal


 Using diagonal initial Hessian 
 Scaling for Hessian diagonals: bonds = 1.00  angles = 0.25  torsions = 0.10

          --------
          Step   0
          --------


                         Geometry "geometry" -> "geometry"
                         ---------------------------------

 Output coordinates in a.u. (scale by  1.000000000 to convert to a.u.)

  No.       Tag          Charge          X              Y              Z
 ---- ---------------- ---------- -------------- -------------- --------------
    1 O                    8.0000     0.00000000     0.00000000     0.22143053
    2 H                    1.0000    -1.93042809     0.00000000    -0.88572213
    3 H                    1.0000     1.93042809     0.00000000    -0.88572213

      Atomic Mass 
      ----------- 

      O                 15.994910
      H                  1.007825


 Effective nuclear repulsion energy (a.u.)       7.4487761816

            Nuclear Dipole moment (a.u.) 
            ----------------------------
        X                 Y               Z
 ---------------- ---------------- ----------------
     0.0000000000     0.0000000000     0.0000000000

      Symmetry information
      --------------------

 Group name             C2v       
 Group number             16
 Group order               4
 No. of unique centers     2

      Symmetry unique atoms

     1    2

                                 NWChem SCF Module
                                 -----------------


                                       Water



  ao basis        = "ao basis"
  functions       =     7
  atoms           =     3
  closed shells   =     5
  open shells     =     0
  charge          =   0.00
  wavefunction    = RHF 
  input vectors   = atomic
  output vectors  = ./h2o.movecs
  use symmetry    = T
  symmetry adapt  = T


 Summary of "ao basis" -> "ao basis" (cartesian)
 ------------------------------------------------------------------------------
       Tag                 Description            Shells   Functions and Types
 ---------------- ------------------------------  ------  ---------------------
 H                           sto-3g                  1        1   1s
 O                           sto-3g                  3        5   2s1p


      Symmetry analysis of basis
      --------------------------

        a1          4
        a2          0
        b1          2
        b2          1


 Forming initial guess at       0.1s


      Superposition of Atomic Density Guess
      -------------------------------------

 Sum of atomic energies:         -74.71095592

      Non-variational initial energy
      ------------------------------

 Total energy =     -74.227684
 1-e energy   =    -118.581244
 2-e energy   =      36.904784
 HOMO         =      -0.221116
 LUMO         =       0.252490


      Symmetry analysis of molecular orbitals - initial
      -------------------------------------------------

  Numbering of irreducible representations: 

     1 a1          2 a2          3 b1          4 b2      

  Orbital symmetries:

     1 a1          2 a1          3 b1          4 a1          5 b2      
     6 a1          7 b1      


 Starting SCF solution at       0.2s



 ----------------------------------------------
         Quadratically convergent ROHF

 Convergence threshold     :          1.000E-06
 Maximum no. of iterations :           20
 Final Fock-matrix accuracy:          1.000E-08
 ----------------------------------------------


 #quartets = 7.900E+01 #integrals = 1.640E+02 #direct =  0.0% #cached =100.0%


 Integral file          = ./h2o.aoints.0
 Record size in doubles =  65536        No. of integs per rec  =  43688
 Max. records in memory =      2        Max. records in file   =  22626
 No. of bits per label  =      8        No. of bits per value  =     64


              iter       energy          gnorm     gmax       time
             ----- ------------------- --------- --------- --------
                 1      -74.8253535856  7.61E-01  6.23E-01      0.1
                 2      -74.8863576300  1.41E-01  1.06E-01      0.1
                 3      -74.8880346086  3.48E-02  2.50E-02      0.1
                 4      -74.8881424284  4.77E-04  3.68E-04      0.1
                 5      -74.8881424608  4.31E-08  3.23E-08      0.1


       Final RHF  results 
       ------------------ 

         Total SCF energy =    -74.888142460797
      One-electron energy =   -119.244688763518
      Two-electron energy =     36.907770121077
 Nuclear repulsion energy =      7.448776181643

        Time for solution =      0.1s



       Symmetry analysis of molecular orbitals - final
       -----------------------------------------------

  Numbering of irreducible representations: 

     1 a1          2 a2          3 b1          4 b2      

  Orbital symmetries:

     1 a1          2 a1          3 b1          4 a1          5 b2      
     6 a1          7 b1      

             Final eigenvalues
             -----------------

              1      
    1  -20.2485
    2   -1.1727
    3   -0.5295
    4   -0.3894
    5   -0.3744
    6    0.3811
    7    0.5606

                       ROHF Final Molecular Orbital Analysis
                       -------------------------------------

 Vector    2  Occ=2.000000E+00  E=-1.172709E+00  Symmetry=a1
              MO Center=  4.6E-17, -1.6E-17,  1.1E-02, r^2= 5.5E-01
   Bfn.  Coefficient  Atom+Function         Bfn.  Coefficient  Atom+Function  
  ----- ------------  ---------------      ----- ------------  ---------------
     2      0.910725  1 O  s                  1     -0.242919  1 O  s          

 Vector    3  Occ=2.000000E+00  E=-5.295450E-01  Symmetry=b1
              MO Center= -2.7E-15, -1.9E-31, -1.7E-01, r^2= 1.1E+00
   Bfn.  Coefficient  Atom+Function         Bfn.  Coefficient  Atom+Function  
  ----- ------------  ---------------      ----- ------------  ---------------
     3      0.586053  1 O  px                 6     -0.455376  2 H  s          
     7      0.455376  3 H  s          

 Vector    4  Occ=2.000000E+00  E=-3.893881E-01  Symmetry=a1
              MO Center=  3.3E-15, -2.8E-17,  6.6E-02, r^2= 8.1E-01
   Bfn.  Coefficient  Atom+Function         Bfn.  Coefficient  Atom+Function  
  ----- ------------  ---------------      ----- ------------  ---------------
     5      0.780294  1 O  pz                 2      0.414595  1 O  s          
     7     -0.338073  3 H  s                  6     -0.338073  2 H  s          

 Vector    5  Occ=2.000000E+00  E=-3.744217E-01  Symmetry=b2
              MO Center= -1.2E-32,  4.1E-17,  1.2E-01, r^2= 4.2E-01
   Bfn.  Coefficient  Atom+Function         Bfn.  Coefficient  Atom+Function  
  ----- ------------  ---------------      ----- ------------  ---------------
     4      1.000000  1 O  py         

 Vector    6  Occ=0.000000E+00  E= 3.810926E-01  Symmetry=a1
              MO Center= -8.5E-16,  3.5E-18, -3.5E-01, r^2= 1.3E+00
   Bfn.  Coefficient  Atom+Function         Bfn.  Coefficient  Atom+Function  
  ----- ------------  ---------------      ----- ------------  ---------------
     6      0.688691  2 H  s                  7      0.688691  3 H  s          
     5      0.667592  1 O  pz                 2     -0.602871  1 O  s          

 Vector    7  Occ=0.000000E+00  E= 5.605872E-01  Symmetry=b1
              MO Center=  2.5E-16, -9.2E-33, -2.0E-01, r^2= 1.2E+00
   Bfn.  Coefficient  Atom+Function         Bfn.  Coefficient  Atom+Function  
  ----- ------------  ---------------      ----- ------------  ---------------
     3      0.923109  1 O  px                 6      0.681976  2 H  s          
     7     -0.681976  3 H  s          


 center of mass
 --------------
 x =   0.00000000 y =   0.00000000 z =   0.09752365

 moments of inertia (a.u.)
 ------------------
           2.194243005950           0.000000000000           0.000000000000
           0.000000000000           9.705668775629           0.000000000000
           0.000000000000           0.000000000000           7.511425769679

  Mulliken analysis of the total density
  --------------------------------------

    Atom       Charge   Shell Charges
 -----------   ------   -------------------------------------------------------
    1 O    8     8.24   2.00  1.87  4.37
    2 H    1     0.88   0.88
    3 H    1     0.88   0.88

       Multipole analysis of the density wrt the origin
       ------------------------------------------------

     L   x y z        total         open         nuclear
     -   - - -        -----         ----         -------
     0   0 0 0      0.000000      0.000000     10.000000

     1   1 0 0      0.000000      0.000000      0.000000
     1   0 1 0      0.000000      0.000000      0.000000
     1   0 0 1     -0.532980      0.000000      0.000000

     2   2 0 0     -2.762038      0.000000      7.453105
     2   1 1 0      0.000000      0.000000      0.000000
     2   1 0 1      0.000000      0.000000      0.000000
     2   0 2 0     -4.640073      0.000000      0.000000
     2   0 1 1      0.000000      0.000000      0.000000
     2   0 0 2     -4.169032      0.000000      1.961259


 Parallel integral file used       1 records with       0 large values

                              NWChem Gradients Module
                              -----------------------


                                       Water


  wavefunction    =   RHF     

  Using symmetry


                         RHF ENERGY GRADIENTS

    atom               coordinates                        gradient
                 x          y          z           x          y          z
   1 O       0.000000   0.000000   0.221431    0.000000   0.000000   0.058550
   2 H      -1.930428   0.000000  -0.885722   -0.140065   0.000000  -0.029275
   3 H       1.930428   0.000000  -0.885722    0.140065   0.000000  -0.029275

                 ----------------------------------------
                 |  Time  |  1-e(secs)   |  2-e(secs)   |
                 ----------------------------------------
                 |  CPU   |       0.00   |       0.03   |
                 ----------------------------------------
                 |  WALL  |       0.00   |       0.02   |
                 ----------------------------------------

@ Step       Energy      Delta E   Gmax     Grms     Xrms     Xmax   Walltime
@ ---- ---------------- -------- -------- -------- -------- -------- --------
@    0     -74.88814246  0.0E+00  0.13607  0.11511  0.00000  0.00000      0.5
                                                       ok       ok  



                                Z-matrix (autoz)
                                -------- 

 Units are Angstrom for bonds and degrees for angles

      Type          Name      I     J     K     L     M      Value     Gradient
      ----------- --------  ----- ----- ----- ----- ----- ---------- ----------
    1 Stretch                  1     2                       1.17762    0.13607
    2 Stretch                  1     3                       1.17762    0.13607
    3 Bend                     2     1     3               120.32913    0.05216

 Restricting large step in mode    1 eval= 4.4E-02 step=-1.2E+00 new=-3.0E-01
 Restricting large step in mode    2 eval= 2.4E-01 step=-5.8E-01 new=-3.0E-01
 Restricting large step in mode    3 eval= 2.4E-01 step=-5.8E-01 new=-3.0E-01
 Restricting overall step due to large component. alpha=  1.00
                                 NWChem SCF Module
                                 -----------------


                                       Water



  ao basis        = "ao basis"
  functions       =     7
  atoms           =     3
  closed shells   =     5
  open shells     =     0
  charge          =   0.00
  wavefunction    = RHF 
  input vectors   = ./h2o.movecs
  output vectors  = ./h2o.movecs
  use symmetry    = T
  symmetry adapt  = T


 Summary of "ao basis" -> "ao basis" (cartesian)
 ------------------------------------------------------------------------------
       Tag                 Description            Shells   Functions and Types
 ---------------- ------------------------------  ------  ---------------------
 H                           sto-3g                  1        1   1s
 O                           sto-3g                  3        5   2s1p


      Symmetry analysis of basis
      --------------------------

        a1          4
        a2          0
        b1          2
        b2          1


 Forming initial guess at       0.6s


 Loading old vectors from job with title :

Water


      Symmetry analysis of molecular orbitals - initial
      -------------------------------------------------

  Numbering of irreducible representations: 

     1 a1          2 a2          3 b1          4 b2      

  Orbital symmetries:

     1 a1          2 a1          3 b1          4 a1          5 b2      
     6 a1          7 b1      


 Starting SCF solution at       0.6s



 ----------------------------------------------
         Quadratically convergent ROHF

 Convergence threshold     :          1.000E-06
 Maximum no. of iterations :           20
 Final Fock-matrix accuracy:          1.000E-08
 ----------------------------------------------


 #quartets = 7.900E+01 #integrals = 1.640E+02 #direct =  0.0% #cached =100.0%


 Integral file          = ./h2o.aoints.0
 Record size in doubles =  65536        No. of integs per rec  =  43688
 Max. records in memory =      2        Max. records in file   =  22626
 No. of bits per label  =      8        No. of bits per value  =     64


              iter       energy          gnorm     gmax       time
             ----- ------------------- --------- --------- --------
                 1      -74.9561884469  1.82E-01  1.39E-01      0.3
                 2      -74.9579099936  2.98E-02  2.08E-02      0.3
                 3      -74.9580285155  1.29E-04  8.15E-05      0.3
                 4      -74.9580285164  1.81E-10  1.33E-10      0.3


       Final RHF  results 
       ------------------ 

         Total SCF energy =    -74.958028516403
      One-electron energy =   -121.408244509293
      Two-electron energy =     37.825522985757
 Nuclear repulsion energy =      8.624693007133

        Time for solution =      0.1s



       Symmetry analysis of molecular orbitals - final
       -----------------------------------------------

  Numbering of irreducible representations: 

     1 a1          2 a2          3 b1          4 b2      

  Orbital symmetries:

     1 a1          2 a1          3 b1          4 a1          5 b2      
     6 a1          7 b1      

             Final eigenvalues
             -----------------

              1      
    1  -20.2394
    2   -1.2319
    3   -0.5955
    4   -0.4292
    5   -0.3825
    6    0.5322
    7    0.6920

                       ROHF Final Molecular Orbital Analysis
                       -------------------------------------

 Vector    2  Occ=2.000000E+00  E=-1.231947E+00  Symmetry=a1
              MO Center= -2.4E-18, -2.6E-21, -5.0E-02, r^2= 5.5E-01
   Bfn.  Coefficient  Atom+Function         Bfn.  Coefficient  Atom+Function  
  ----- ------------  ---------------      ----- ------------  ---------------
     2      0.856994  1 O  s                  1     -0.235704  1 O  s          
     6      0.154803  2 H  s                  7      0.154803  3 H  s          

 Vector    3  Occ=2.000000E+00  E=-5.954744E-01  Symmetry=b1
              MO Center=  1.4E-17, -2.1E-36, -1.6E-01, r^2= 9.0E-01
   Bfn.  Coefficient  Atom+Function         Bfn.  Coefficient  Atom+Function  
  ----- ------------  ---------------      ----- ------------  ---------------
     3      0.595532  1 O  px                 7      0.446094  3 H  s          
     6     -0.446094  2 H  s          

 Vector    4  Occ=2.000000E+00  E=-4.292352E-01  Symmetry=a1
              MO Center= -5.7E-16, -3.7E-17,  1.3E-01, r^2= 6.6E-01
   Bfn.  Coefficient  Atom+Function         Bfn.  Coefficient  Atom+Function  
  ----- ------------  ---------------      ----- ------------  ---------------
     5      0.784301  1 O  pz                 2      0.496787  1 O  s          
     6     -0.294160  2 H  s                  7     -0.294160  3 H  s          

 Vector    5  Occ=2.000000E+00  E=-3.825406E-01  Symmetry=b2
              MO Center=  7.6E-33,  3.4E-17,  1.1E-01, r^2= 4.2E-01
   Bfn.  Coefficient  Atom+Function         Bfn.  Coefficient  Atom+Function  
  ----- ------------  ---------------      ----- ------------  ---------------
     4      1.000000  1 O  py         

 Vector    6  Occ=0.000000E+00  E= 5.321632E-01  Symmetry=a1
              MO Center=  4.2E-16,  2.7E-18, -3.8E-01, r^2= 1.2E+00
   Bfn.  Coefficient  Atom+Function         Bfn.  Coefficient  Atom+Function  
  ----- ------------  ---------------      ----- ------------  ---------------
     2      0.797500  1 O  s                  7     -0.762185  3 H  s          
     6     -0.762185  2 H  s                  5     -0.704101  1 O  pz         

 Vector    7  Occ=0.000000E+00  E= 6.920121E-01  Symmetry=b1
              MO Center=  1.9E-16, -3.6E-33, -2.2E-01, r^2= 1.1E+00
   Bfn.  Coefficient  Atom+Function         Bfn.  Coefficient  Atom+Function  
  ----- ------------  ---------------      ----- ------------  ---------------
     3      0.974874  1 O  px                 6      0.783100  2 H  s          
     7     -0.783100  3 H  s          


 center of mass
 --------------
 x =   0.00000000 y =   0.00000000 z =   0.08652047

 moments of inertia (a.u.)
 ------------------
           2.116328329291           0.000000000000           0.000000000000
           0.000000000000           7.205537246059           0.000000000000
           0.000000000000           0.000000000000           5.089208916768

  Mulliken analysis of the total density
  --------------------------------------

    Atom       Charge   Shell Charges
 -----------   ------   -------------------------------------------------------
    1 O    8     8.33   2.00  1.83  4.49
    2 H    1     0.84   0.84
    3 H    1     0.84   0.84

       Multipole analysis of the density wrt the origin
       ------------------------------------------------

     L   x y z        total         open         nuclear
     -   - - -        -----         ----         -------
     0   0 0 0      0.000000      0.000000     10.000000

     1   1 0 0      0.000000      0.000000      0.000000
     1   0 1 0      0.000000      0.000000      0.000000
     1   0 0 1     -0.631529      0.000000     -0.092561

     2   2 0 0     -3.052871      0.000000      5.049695
     2   1 1 0      0.000000      0.000000      0.000000
     2   1 0 1      0.000000      0.000000      0.000000
     2   0 2 0     -4.564792      0.000000      0.000000
     2   0 1 1      0.000000      0.000000      0.000000
     2   0 0 2     -4.070243      0.000000      1.892474


 Parallel integral file used       1 records with       0 large values

 Line search: 
     step= 1.00 grad=-9.7E-02 hess= 2.7E-02 energy=    -74.958029 mode=downhill
 new step= 1.78                   predicted energy=    -74.974498

          --------
          Step   1
          --------


                         Geometry "geometry" -> "geometry"
                         ---------------------------------

 Output coordinates in a.u. (scale by  1.000000000 to convert to a.u.)

  No.       Tag          Charge          X              Y              Z
 ---- ---------------- ---------- -------------- -------------- --------------
    1 O                    8.0000     0.00000000     0.00000000     0.17671469
    2 H                    1.0000    -1.33559018     0.00000000    -0.86336421
    3 H                    1.0000     1.33559018     0.00000000    -0.86336421

      Atomic Mass 
      ----------- 

      O                 15.994910
      H                  1.007825


 Effective nuclear repulsion energy (a.u.)       9.8261730698

            Nuclear Dipole moment (a.u.) 
            ----------------------------
        X                 Y               Z
 ---------------- ---------------- ----------------
     0.0000000000     0.0000000000    -0.3130108826

      Symmetry information
      --------------------

 Group name             C2v       
 Group number             16
 Group order               4
 No. of unique centers     2

      Symmetry unique atoms

     1    2

                                 NWChem SCF Module
                                 -----------------


                                       Water



  ao basis        = "ao basis"
  functions       =     7
  atoms           =     3
  closed shells   =     5
  open shells     =     0
  charge          =   0.00
  wavefunction    = RHF 
  input vectors   = ./h2o.movecs
  output vectors  = ./h2o.movecs
  use symmetry    = T
  symmetry adapt  = T


 Summary of "ao basis" -> "ao basis" (cartesian)
 ------------------------------------------------------------------------------
       Tag                 Description            Shells   Functions and Types
 ---------------- ------------------------------  ------  ---------------------
 H                           sto-3g                  1        1   1s
 O                           sto-3g                  3        5   2s1p


      Symmetry analysis of basis
      --------------------------

        a1          4
        a2          0
        b1          2
        b2          1


 Forming initial guess at       0.9s


 Loading old vectors from job with title :

Water


      Symmetry analysis of molecular orbitals - initial
      -------------------------------------------------

  Numbering of irreducible representations: 

     1 a1          2 a2          3 b1          4 b2      

  Orbital symmetries:

     1 a1          2 a1          3 b1          4 a1          5 b2      
     6 a1          7 b1      


 Starting SCF solution at       0.9s



 ----------------------------------------------
         Quadratically convergent ROHF

 Convergence threshold     :          1.000E-06
 Maximum no. of iterations :           20
 Final Fock-matrix accuracy:          1.000E-08
 ----------------------------------------------


 #quartets = 7.900E+01 #integrals = 1.640E+02 #direct =  0.0% #cached =100.0%


 Integral file          = ./h2o.aoints.0
 Record size in doubles =  65536        No. of integs per rec  =  43688
 Max. records in memory =      2        Max. records in file   =  22626
 No. of bits per label  =      8        No. of bits per value  =     64


              iter       energy          gnorm     gmax       time
             ----- ------------------- --------- --------- --------
                 1      -74.9407163018  2.00E-01  1.39E-01      0.4
                 2      -74.9427914566  2.51E-02  1.71E-02      0.4
                 3      -74.9428809650  2.37E-04  1.61E-04      0.4
                 4      -74.9428809686  1.76E-09  1.56E-09      0.4


       Final RHF  results 
       ------------------ 

         Total SCF energy =    -74.942880968634
      One-electron energy =   -123.439156617853
      Two-electron energy =     38.670102579459
 Nuclear repulsion energy =      9.826173069760

        Time for solution =      0.1s



       Symmetry analysis of molecular orbitals - final
       -----------------------------------------------

  Numbering of irreducible representations: 

     1 a1          2 a2          3 b1          4 b2      

  Orbital symmetries:

     1 a1          2 a1          3 b1          4 a1          5 b2      
     6 a1          7 b1      

             Final eigenvalues
             -----------------

              1      
    1  -20.2363
    2   -1.3035
    3   -0.6511
    4   -0.4615
    5   -0.3970
    6    0.6698
    7    0.8178

                       ROHF Final Molecular Orbital Analysis
                       -------------------------------------

 Vector    2  Occ=2.000000E+00  E=-1.303499E+00  Symmetry=a1
              MO Center= -1.4E-17,  9.1E-18, -1.1E-01, r^2= 5.3E-01
   Bfn.  Coefficient  Atom+Function         Bfn.  Coefficient  Atom+Function  
  ----- ------------  ---------------      ----- ------------  ---------------
     2      0.811536  1 O  s                  1     -0.230647  1 O  s          
     6      0.161477  2 H  s                  7      0.161477  3 H  s          
     5     -0.152719  1 O  pz         

 Vector    3  Occ=2.000000E+00  E=-6.511382E-01  Symmetry=b1
              MO Center= -3.3E-18,  4.1E-36, -1.4E-01, r^2= 7.8E-01
   Bfn.  Coefficient  Atom+Function         Bfn.  Coefficient  Atom+Function  
  ----- ------------  ---------------      ----- ------------  ---------------
     3      0.610591  1 O  px                 7      0.440709  3 H  s          
     6     -0.440709  2 H  s          

 Vector    4  Occ=2.000000E+00  E=-4.615104E-01  Symmetry=a1
              MO Center= -4.4E-16, -4.5E-17,  1.8E-01, r^2= 5.6E-01
   Bfn.  Coefficient  Atom+Function         Bfn.  Coefficient  Atom+Function  
  ----- ------------  ---------------      ----- ------------  ---------------
     5      0.789894  1 O  pz                 2      0.554815  1 O  s          
     6     -0.252404  2 H  s                  7     -0.252404  3 H  s          

 Vector    5  Occ=2.000000E+00  E=-3.970054E-01  Symmetry=b2
              MO Center=  6.5E-33,  3.4E-17,  9.4E-02, r^2= 4.2E-01
   Bfn.  Coefficient  Atom+Function         Bfn.  Coefficient  Atom+Function  
  ----- ------------  ---------------      ----- ------------  ---------------
     4      1.000000  1 O  py         

 Vector    6  Occ=0.000000E+00  E= 6.698409E-01  Symmetry=a1
              MO Center= -5.7E-18,  1.7E-18, -4.1E-01, r^2= 1.1E+00
   Bfn.  Coefficient  Atom+Function         Bfn.  Coefficient  Atom+Function  
  ----- ------------  ---------------      ----- ------------  ---------------
     2      0.999955  1 O  s                  6     -0.845786  2 H  s          
     7     -0.845786  3 H  s                  5     -0.748964  1 O  pz         

 Vector    7  Occ=0.000000E+00  E= 8.178190E-01  Symmetry=b1
              MO Center=  3.8E-16, -6.4E-33, -2.5E-01, r^2= 9.8E-01
   Bfn.  Coefficient  Atom+Function         Bfn.  Coefficient  Atom+Function  
  ----- ------------  ---------------      ----- ------------  ---------------
     3      1.027880  1 O  px                 7     -0.901455  3 H  s          
     6      0.901455  2 H  s          


 center of mass
 --------------
 x =   0.00000000 y =   0.00000000 z =   0.06031437

 moments of inertia (a.u.)
 ------------------
           1.936432123782           0.000000000000           0.000000000000
           0.000000000000           5.531950847127           0.000000000000
           0.000000000000           0.000000000000           3.595518723345

  Mulliken analysis of the total density
  --------------------------------------

    Atom       Charge   Shell Charges
 -----------   ------   -------------------------------------------------------
    1 O    8     8.43   2.00  1.81  4.62
    2 H    1     0.79   0.79
    3 H    1     0.79   0.79

       Multipole analysis of the density wrt the origin
       ------------------------------------------------

     L   x y z        total         open         nuclear
     -   - - -        -----         ----         -------
     0   0 0 0      0.000000      0.000000     10.000000

     1   1 0 0      0.000000      0.000000      0.000000
     1   0 1 0      0.000000      0.000000      0.000000
     1   0 0 1     -0.710661      0.000000     -0.313011

     2   2 0 0     -3.269187      0.000000      3.567602
     2   1 1 0      0.000000      0.000000      0.000000
     2   1 0 1      0.000000      0.000000      0.000000
     2   0 2 0     -4.488922      0.000000      0.000000
     2   0 1 1      0.000000      0.000000      0.000000
     2   0 0 2     -3.953804      0.000000      1.740620


 Parallel integral file used       1 records with       0 large values

                              NWChem Gradients Module
                              -----------------------


                                       Water


  wavefunction    =   RHF     

  Using symmetry


                         RHF ENERGY GRADIENTS

    atom               coordinates                        gradient
                 x          y          z           x          y          z
   1 O       0.000000   0.000000   0.176715    0.000000   0.000000  -0.178200
   2 H      -1.335590   0.000000  -0.863364    0.109371   0.000000   0.089100
   3 H       1.335590   0.000000  -0.863364   -0.109371   0.000000   0.089100

                 ----------------------------------------
                 |  Time  |  1-e(secs)   |  2-e(secs)   |
                 ----------------------------------------
                 |  CPU   |       0.00   |       0.03   |
                 ----------------------------------------
                 |  WALL  |       0.00   |       0.02   |
                 ----------------------------------------

  Step       Energy      Delta E   Gmax     Grms     Xrms     Xmax   Walltime
  ---- ---------------- -------- -------- -------- -------- -------- --------
@    1     -74.94288097 -5.5E-02  0.14104  0.11517  0.28021  0.59275      1.2
                                                                    



                                Z-matrix (autoz)
                                -------- 

 Units are Angstrom for bonds and degrees for angles

      Type          Name      I     J     K     L     M      Value     Gradient
      ----------- --------  ----- ----- ----- ----- ----- ---------- ----------
    1 Stretch                  1     2                       0.89579   -0.14104
    2 Stretch                  1     3                       0.89579   -0.14104
    3 Bend                     2     1     3               104.18129    0.00278

 Restricting large step in mode    1 eval= 4.6E-02 step=-3.6E-01 new=-3.0E-01
 Restricting large step in mode    3 eval= 5.0E-01 step= 4.0E-01 new= 3.0E-01
                                 NWChem SCF Module
                                 -----------------


                                       Water



  ao basis        = "ao basis"
  functions       =     7
  atoms           =     3
  closed shells   =     5
  open shells     =     0
  charge          =   0.00
  wavefunction    = RHF 
  input vectors   = ./h2o.movecs
  output vectors  = ./h2o.movecs
  use symmetry    = T
  symmetry adapt  = T


 Summary of "ao basis" -> "ao basis" (cartesian)
 ------------------------------------------------------------------------------
       Tag                 Description            Shells   Functions and Types
 ---------------- ------------------------------  ------  ---------------------
 H                           sto-3g                  1        1   1s
 O                           sto-3g                  3        5   2s1p


      Symmetry analysis of basis
      --------------------------

        a1          4
        a2          0
        b1          2
        b2          1


 Forming initial guess at       1.2s


 Loading old vectors from job with title :

Water


      Symmetry analysis of molecular orbitals - initial
      -------------------------------------------------

  Numbering of irreducible representations: 

     1 a1          2 a2          3 b1          4 b2      

  Orbital symmetries:

     1 a1          2 a1          3 b1          4 a1          5 b2      
     6 a1          7 b1      


 Starting SCF solution at       1.2s



 ----------------------------------------------
         Quadratically convergent ROHF

 Convergence threshold     :          1.000E-06
 Maximum no. of iterations :           20
 Final Fock-matrix accuracy:          1.000E-08
 ----------------------------------------------


 #quartets = 7.900E+01 #integrals = 1.640E+02 #direct =  0.0% #cached =100.0%


 Integral file          = ./h2o.aoints.0
 Record size in doubles =  65536        No. of integs per rec  =  43688
 Max. records in memory =      2        Max. records in file   =  22626
 No. of bits per label  =      8        No. of bits per value  =     64


              iter       energy          gnorm     gmax       time
             ----- ------------------- --------- --------- --------
                 1      -74.9573455748  2.54E-01  1.88E-01      0.5
                 2      -74.9631717014  6.43E-02  4.29E-02      0.5
                 3      -74.9638740643  1.91E-03  1.52E-03      0.6
                 4      -74.9638744530  9.39E-08  8.42E-08      0.6


       Final RHF  results 
       ------------------ 

         Total SCF energy =    -74.963874452983
      One-electron energy =   -121.417682722827
      Two-electron energy =     37.765780924793
 Nuclear repulsion energy =      8.688027345052

        Time for solution =      0.1s



       Symmetry analysis of molecular orbitals - final
       -----------------------------------------------

  Numbering of irreducible representations: 

     1 a1          2 a2          3 b1          4 b2      

  Orbital symmetries:

     1 a1          2 a1          3 b1          4 a1          5 b2      
     6 a1          7 b1      

             Final eigenvalues
             -----------------

              1      
    1  -20.2596
    2   -1.2497
    3   -0.5735
    4   -0.4661
    5   -0.3941
    6    0.5633
    7    0.6533

                       ROHF Final Molecular Orbital Analysis
                       -------------------------------------

 Vector    2  Occ=2.000000E+00  E=-1.249652E+00  Symmetry=a1
              MO Center= -1.3E-17,  2.0E-18, -7.1E-03, r^2= 5.4E-01
   Bfn.  Coefficient  Atom+Function         Bfn.  Coefficient  Atom+Function  
  ----- ------------  ---------------      ----- ------------  ---------------
     2      0.853260  1 O  s                  1     -0.234626  1 O  s          
     6      0.152820  2 H  s                  7      0.152820  3 H  s          

 Vector    3  Occ=2.000000E+00  E=-5.734841E-01  Symmetry=b1
              MO Center=  2.1E-17,  6.7E-37, -1.2E-01, r^2= 8.5E-01
   Bfn.  Coefficient  Atom+Function         Bfn.  Coefficient  Atom+Function  
  ----- ------------  ---------------      ----- ------------  ---------------
     3      0.620662  1 O  px                 7      0.452068  3 H  s          
     6     -0.452068  2 H  s          

 Vector    4  Occ=2.000000E+00  E=-4.661493E-01  Symmetry=a1
              MO Center= -5.7E-16, -4.0E-17,  1.6E-01, r^2= 7.0E-01
   Bfn.  Coefficient  Atom+Function         Bfn.  Coefficient  Atom+Function  
  ----- ------------  ---------------      ----- ------------  ---------------
     5      0.737371  1 O  pz                 2      0.538218  1 O  s          
     6     -0.308903  2 H  s                  7     -0.308903  3 H  s          

 Vector    5  Occ=2.000000E+00  E=-3.941310E-01  Symmetry=b2
              MO Center=  7.3E-33,  3.5E-17,  1.8E-01, r^2= 4.2E-01
   Bfn.  Coefficient  Atom+Function         Bfn.  Coefficient  Atom+Function  
  ----- ------------  ---------------      ----- ------------  ---------------
     4      1.000000  1 O  py         

 Vector    6  Occ=0.000000E+00  E= 5.632860E-01  Symmetry=a1
              MO Center=  1.5E-16,  2.8E-18, -3.7E-01, r^2= 1.1E+00
   Bfn.  Coefficient  Atom+Function         Bfn.  Coefficient  Atom+Function  
  ----- ------------  ---------------      ----- ------------  ---------------
     5      0.781744  1 O  pz                 2     -0.769133  1 O  s          
     7      0.746016  3 H  s                  6      0.746016  2 H  s          

 Vector    7  Occ=0.000000E+00  E= 6.532929E-01  Symmetry=b1
              MO Center=  4.6E-16, -4.8E-33, -2.2E-01, r^2= 1.0E+00
   Bfn.  Coefficient  Atom+Function         Bfn.  Coefficient  Atom+Function  
  ----- ------------  ---------------      ----- ------------  ---------------
     3      0.933911  1 O  px                 7     -0.799309  3 H  s          
     6      0.799309  2 H  s          


 center of mass
 --------------
 x =   0.00000000 y =   0.00000000 z =   0.19752182

 moments of inertia (a.u.)
 ------------------
           2.966904523637           0.000000000000           0.000000000000
           0.000000000000           7.050525665195           0.000000000000
           0.000000000000           0.000000000000           4.083621141558

  Mulliken analysis of the total density
  --------------------------------------

    Atom       Charge   Shell Charges
 -----------   ------   -------------------------------------------------------
    1 O    8     8.30   2.00  1.86  4.44
    2 H    1     0.85   0.85
    3 H    1     0.85   0.85

       Multipole analysis of the density wrt the origin
       ------------------------------------------------

     L   x y z        total         open         nuclear
     -   - - -        -----         ----         -------
     0   0 0 0      0.000000      0.000000     10.000000

     1   1 0 0      0.000000      0.000000      0.000000
     1   0 1 0      0.000000      0.000000      0.000000
     1   0 0 1     -0.666783      0.000000      0.841202

     2   2 0 0     -3.426443      0.000000      4.051915
     2   1 1 0      0.000000      0.000000      0.000000
     2   1 0 1      0.000000      0.000000      0.000000
     2   0 2 0     -4.572348      0.000000      0.000000
     2   0 1 1      0.000000      0.000000      0.000000
     2   0 0 2     -4.030356      0.000000      2.722642


 Parallel integral file used       1 records with       0 large values

 Line search: 
     step= 1.00 grad=-6.5E-02 hess= 4.4E-02 energy=    -74.963874 mode=downhill
 new step= 0.74                   predicted energy=    -74.966813

          --------
          Step   2
          --------


                         Geometry "geometry" -> "geometry"
                         ---------------------------------

 Output coordinates in a.u. (scale by  1.000000000 to convert to a.u.)

  No.       Tag          Charge          X              Y              Z
 ---- ---------------- ---------- -------------- -------------- --------------
    1 O                    8.0000     0.00000000     0.00000000     0.29759731
    2 H                    1.0000    -1.40338354     0.00000000    -0.92380551
    3 H                    1.0000     1.40338354     0.00000000    -0.92380551

      Atomic Mass 
      ----------- 

      O                 15.994910
      H                  1.007825


 Effective nuclear repulsion energy (a.u.)       8.9563069410

            Nuclear Dipole moment (a.u.) 
            ----------------------------
        X                 Y               Z
 ---------------- ---------------- ----------------
     0.0000000000     0.0000000000     0.5331674169

      Symmetry information
      --------------------

 Group name             C2v       
 Group number             16
 Group order               4
 No. of unique centers     2

      Symmetry unique atoms

     1    2

                                 NWChem SCF Module
                                 -----------------


                                       Water



  ao basis        = "ao basis"
  functions       =     7
  atoms           =     3
  closed shells   =     5
  open shells     =     0
  charge          =   0.00
  wavefunction    = RHF 
  input vectors   = ./h2o.movecs
  output vectors  = ./h2o.movecs
  use symmetry    = T
  symmetry adapt  = T


 Summary of "ao basis" -> "ao basis" (cartesian)
 ------------------------------------------------------------------------------
       Tag                 Description            Shells   Functions and Types
 ---------------- ------------------------------  ------  ---------------------
 H                           sto-3g                  1        1   1s
 O                           sto-3g                  3        5   2s1p


      Symmetry analysis of basis
      --------------------------

        a1          4
        a2          0
        b1          2
        b2          1


 Forming initial guess at       1.5s


 Loading old vectors from job with title :

Water


      Symmetry analysis of molecular orbitals - initial
      -------------------------------------------------

  Numbering of irreducible representations: 

     1 a1          2 a2          3 b1          4 b2      

  Orbital symmetries:

     1 a1          2 a1          3 b1          4 a1          5 b2      
     6 a1          7 b1      


 Starting SCF solution at       1.5s



 ----------------------------------------------
         Quadratically convergent ROHF

 Convergence threshold     :          1.000E-06
 Maximum no. of iterations :           20
 Final Fock-matrix accuracy:          1.000E-08
 ----------------------------------------------


 #quartets = 7.900E+01 #integrals = 1.640E+02 #direct =  0.0% #cached =100.0%


 Integral file          = ./h2o.aoints.0
 Record size in doubles =  65536        No. of integs per rec  =  43688
 Max. records in memory =      2        Max. records in file   =  22626
 No. of bits per label  =      8        No. of bits per value  =     64


              iter       energy          gnorm     gmax       time
             ----- ------------------- --------- --------- --------
                 1      -74.9652728702  5.76E-02  4.49E-02      0.6
                 2      -74.9656196273  3.06E-03  2.22E-03      0.7
                 3      -74.9656203641  3.42E-07  2.59E-07      0.7


       Final RHF  results 
       ------------------ 

         Total SCF energy =    -74.965620364121
      One-electron energy =   -121.909230018981
      Two-electron energy =     37.987302713890
 Nuclear repulsion energy =      8.956306940971

        Time for solution =      0.1s



       Symmetry analysis of molecular orbitals - final
       -----------------------------------------------

  Numbering of irreducible representations: 

     1 a1          2 a2          3 b1          4 b2      

  Orbital symmetries:

     1 a1          2 a1          3 b1          4 a1          5 b2      
     6 a1          7 b1      

             Final eigenvalues
             -----------------

              1      
    1  -20.2533
    2   -1.2621
    3   -0.5925
    4   -0.4652
    5   -0.3942
    6    0.5894
    7    0.6928

                       ROHF Final Molecular Orbital Analysis
                       -------------------------------------

 Vector    2  Occ=2.000000E+00  E=-1.262137E+00  Symmetry=a1
              MO Center= -1.8E-17,  4.0E-18, -3.6E-02, r^2= 5.4E-01
   Bfn.  Coefficient  Atom+Function         Bfn.  Coefficient  Atom+Function  
  ----- ------------  ---------------      ----- ------------  ---------------
     2      0.842002  1 O  s                  1     -0.233369  1 O  s          
     6      0.155790  2 H  s                  7      0.155790  3 H  s          

 Vector    3  Occ=2.000000E+00  E=-5.925395E-01  Symmetry=b1
              MO Center=  3.9E-17,  3.9E-37, -1.3E-01, r^2= 8.4E-01
   Bfn.  Coefficient  Atom+Function         Bfn.  Coefficient  Atom+Function  
  ----- ------------  ---------------      ----- ------------  ---------------
     3      0.616409  1 O  px                 7      0.450014  3 H  s          
     6     -0.450014  2 H  s          

 Vector    4  Occ=2.000000E+00  E=-4.651782E-01  Symmetry=a1
              MO Center= -5.4E-16, -4.2E-17,  1.7E-01, r^2= 6.6E-01
   Bfn.  Coefficient  Atom+Function         Bfn.  Coefficient  Atom+Function  
  ----- ------------  ---------------      ----- ------------  ---------------
     5      0.750311  1 O  pz                 2      0.545930  1 O  s          
     6     -0.295384  2 H  s                  7     -0.295384  3 H  s          

 Vector    5  Occ=2.000000E+00  E=-3.941836E-01  Symmetry=b2
              MO Center=  7.1E-33,  3.5E-17,  1.6E-01, r^2= 4.2E-01
   Bfn.  Coefficient  Atom+Function         Bfn.  Coefficient  Atom+Function  
  ----- ------------  ---------------      ----- ------------  ---------------
     4      1.000000  1 O  py         

 Vector    6  Occ=0.000000E+00  E= 5.893908E-01  Symmetry=a1
              MO Center=  8.1E-17,  2.6E-18, -3.8E-01, r^2= 1.1E+00
   Bfn.  Coefficient  Atom+Function         Bfn.  Coefficient  Atom+Function  
  ----- ------------  ---------------      ----- ------------  ---------------
     2      0.823114  1 O  s                  5     -0.774429  1 O  pz         
     7     -0.769568  3 H  s                  6     -0.769568  2 H  s          

 Vector    7  Occ=0.000000E+00  E= 6.928486E-01  Symmetry=b1
              MO Center=  4.3E-16, -5.5E-33, -2.3E-01, r^2= 1.0E+00
   Bfn.  Coefficient  Atom+Function         Bfn.  Coefficient  Atom+Function  
  ----- ------------  ---------------      ----- ------------  ---------------
     3      0.956067  1 O  px                 7     -0.821272  3 H  s          
     6      0.821272  2 H  s          


 center of mass
 --------------
 x =   0.00000000 y =   0.00000000 z =   0.16090413

 moments of inertia (a.u.)
 ------------------
           2.670469021944           0.000000000000           0.000000000000
           0.000000000000           6.640262174784           0.000000000000
           0.000000000000           0.000000000000           3.969793152840

  Mulliken analysis of the total density
  --------------------------------------

    Atom       Charge   Shell Charges
 -----------   ------   -------------------------------------------------------
    1 O    8     8.33   2.00  1.85  4.48
    2 H    1     0.83   0.83
    3 H    1     0.83   0.83

       Multipole analysis of the density wrt the origin
       ------------------------------------------------

     L   x y z        total         open         nuclear
     -   - - -        -----         ----         -------
     0   0 0 0      0.000000      0.000000     10.000000

     1   1 0 0      0.000000      0.000000      0.000000
     1   0 1 0      0.000000      0.000000      0.000000
     1   0 0 1     -0.679926      0.000000      0.533167

     2   2 0 0     -3.384326      0.000000      3.938971
     2   1 1 0      0.000000      0.000000      0.000000
     2   1 0 1      0.000000      0.000000      0.000000
     2   0 2 0     -4.552246      0.000000      0.000000
     2   0 1 1      0.000000      0.000000      0.000000
     2   0 0 2     -4.014830      0.000000      2.415347


 Parallel integral file used       1 records with       0 large values

                              NWChem Gradients Module
                              -----------------------


                                       Water


  wavefunction    =   RHF     

  Using symmetry


                         RHF ENERGY GRADIENTS

    atom               coordinates                        gradient
                 x          y          z           x          y          z
   1 O       0.000000   0.000000   0.297597    0.000000   0.000000  -0.000029
   2 H      -1.403384   0.000000  -0.923806    0.009653   0.000000   0.000014
   3 H       1.403384   0.000000  -0.923806   -0.009653   0.000000   0.000014

                 ----------------------------------------
                 |  Time  |  1-e(secs)   |  2-e(secs)   |
                 ----------------------------------------
                 |  CPU   |       0.00   |       0.03   |
                 ----------------------------------------
                 |  WALL  |       0.00   |       0.02   |
                 ----------------------------------------

  Step       Energy      Delta E   Gmax     Grms     Xrms     Xmax   Walltime
  ---- ---------------- -------- -------- -------- -------- -------- --------
@    2     -74.96562036 -2.3E-02  0.00729  0.00695  0.05769  0.12673      1.8
                                                                    



                                Z-matrix (autoz)
                                -------- 

 Units are Angstrom for bonds and degrees for angles

      Type          Name      I     J     K     L     M      Value     Gradient
      ----------- --------  ----- ----- ----- ----- ----- ---------- ----------
    1 Stretch                  1     2                       0.98451   -0.00729
    2 Stretch                  1     3                       0.98451   -0.00729
    3 Bend                     2     1     3                97.93213   -0.00623

                                 NWChem SCF Module
                                 -----------------


                                       Water



  ao basis        = "ao basis"
  functions       =     7
  atoms           =     3
  closed shells   =     5
  open shells     =     0
  charge          =   0.00
  wavefunction    = RHF 
  input vectors   = ./h2o.movecs
  output vectors  = ./h2o.movecs
  use symmetry    = T
  symmetry adapt  = T


 Summary of "ao basis" -> "ao basis" (cartesian)
 ------------------------------------------------------------------------------
       Tag                 Description            Shells   Functions and Types
 ---------------- ------------------------------  ------  ---------------------
 H                           sto-3g                  1        1   1s
 O                           sto-3g                  3        5   2s1p


      Symmetry analysis of basis
      --------------------------

        a1          4
        a2          0
        b1          2
        b2          1


 Forming initial guess at       1.8s


 Loading old vectors from job with title :

Water


      Symmetry analysis of molecular orbitals - initial
      -------------------------------------------------

  Numbering of irreducible representations: 

     1 a1          2 a2          3 b1          4 b2      

  Orbital symmetries:

     1 a1          2 a1          3 b1          4 a1          5 b2      
     6 a1          7 b1      


 Starting SCF solution at       1.8s



 ----------------------------------------------
         Quadratically convergent ROHF

 Convergence threshold     :          1.000E-06
 Maximum no. of iterations :           20
 Final Fock-matrix accuracy:          1.000E-08
 ----------------------------------------------


 #quartets = 7.900E+01 #integrals = 1.640E+02 #direct =  0.0% #cached =100.0%


 Integral file          = ./h2o.aoints.0
 Record size in doubles =  65536        No. of integs per rec  =  43688
 Max. records in memory =      2        Max. records in file   =  22626
 No. of bits per label  =      8        No. of bits per value  =     64


              iter       energy          gnorm     gmax       time
             ----- ------------------- --------- --------- --------
                 1      -74.9657019434  2.07E-02  1.75E-02      0.8
                 2      -74.9657756947  8.25E-05  7.83E-05      0.8
                 3      -74.9657756949  3.33E-11  2.20E-11      0.8


       Final RHF  results 
       ------------------ 

         Total SCF energy =    -74.965775694851
      One-electron energy =   -121.843680338124
      Two-electron energy =     37.972193777121
 Nuclear repulsion energy =      8.905710866153

        Time for solution =      0.1s



       Symmetry analysis of molecular orbitals - final
       -----------------------------------------------

  Numbering of irreducible representations: 

     1 a1          2 a2          3 b1          4 b2      

  Orbital symmetries:

     1 a1          2 a1          3 b1          4 a1          5 b2      
     6 a1          7 b1      

             Final eigenvalues
             -----------------

              1      
    1  -20.2495
    2   -1.2559
    3   -0.5969
    4   -0.4558
    5   -0.3915
    6    0.5795
    7    0.6976

                       ROHF Final Molecular Orbital Analysis
                       -------------------------------------

 Vector    2  Occ=2.000000E+00  E=-1.255918E+00  Symmetry=a1
              MO Center= -1.9E-17,  3.1E-18, -4.3E-02, r^2= 5.4E-01
   Bfn.  Coefficient  Atom+Function         Bfn.  Coefficient  Atom+Function  
  ----- ------------  ---------------      ----- ------------  ---------------
     2      0.844710  1 O  s                  1     -0.233880  1 O  s          
     6      0.155839  2 H  s                  7      0.155839  3 H  s          

 Vector    3  Occ=2.000000E+00  E=-5.969070E-01  Symmetry=b1
              MO Center=  2.3E-17,  3.4E-37, -1.4E-01, r^2= 8.5E-01
   Bfn.  Coefficient  Atom+Function         Bfn.  Coefficient  Atom+Function  
  ----- ------------  ---------------      ----- ------------  ---------------
     3      0.609900  1 O  px                 7      0.448395  3 H  s          
     6     -0.448395  2 H  s          

 Vector    4  Occ=2.000000E+00  E=-4.558422E-01  Symmetry=a1
              MO Center= -5.5E-16, -4.1E-17,  1.6E-01, r^2= 6.6E-01
   Bfn.  Coefficient  Atom+Function         Bfn.  Coefficient  Atom+Function  
  ----- ------------  ---------------      ----- ------------  ---------------
     5      0.761183  1 O  pz                 2      0.533693  1 O  s          
     6     -0.293239  2 H  s                  7     -0.293239  3 H  s          

 Vector    5  Occ=2.000000E+00  E=-3.914924E-01  Symmetry=b2
              MO Center=  7.2E-33,  3.5E-17,  1.4E-01, r^2= 4.2E-01
   Bfn.  Coefficient  Atom+Function         Bfn.  Coefficient  Atom+Function  
  ----- ------------  ---------------      ----- ------------  ---------------
     4      1.000000  1 O  py         

 Vector    6  Occ=0.000000E+00  E= 5.794993E-01  Symmetry=a1
              MO Center=  3.8E-17,  2.6E-18, -3.8E-01, r^2= 1.1E+00
   Bfn.  Coefficient  Atom+Function         Bfn.  Coefficient  Atom+Function  
  ----- ------------  ---------------      ----- ------------  ---------------
     2      0.824627  1 O  s                  7     -0.771576  3 H  s          
     6     -0.771576  2 H  s                  5     -0.755077  1 O  pz         

 Vector    7  Occ=0.000000E+00  E= 6.975817E-01  Symmetry=b1
              MO Center=  3.9E-16, -7.6E-33, -2.3E-01, r^2= 1.0E+00
   Bfn.  Coefficient  Atom+Function         Bfn.  Coefficient  Atom+Function  
  ----- ------------  ---------------      ----- ------------  ---------------
     3      0.964914  1 O  px                 7     -0.813213  3 H  s          
     6      0.813213  2 H  s          


 center of mass
 --------------
 x =   0.00000000 y =   0.00000000 z =   0.13787362

 moments of inertia (a.u.)
 ------------------
           2.492017838943           0.000000000000           0.000000000000
           0.000000000000           6.726896901127           0.000000000000
           0.000000000000           0.000000000000           4.234879062184

  Mulliken analysis of the total density
  --------------------------------------

    Atom       Charge   Shell Charges
 -----------   ------   -------------------------------------------------------
    1 O    8     8.33   2.00  1.85  4.49
    2 H    1     0.83   0.83
    3 H    1     0.83   0.83

       Multipole analysis of the density wrt the origin
       ------------------------------------------------

     L   x y z        total         open         nuclear
     -   - - -        -----         ----         -------
     0   0 0 0      0.000000      0.000000     10.000000

     1   1 0 0      0.000000      0.000000      0.000000
     1   0 1 0      0.000000      0.000000      0.000000
     1   0 0 1     -0.668861      0.000000      0.339431

     2   2 0 0     -3.295824      0.000000      4.201998
     2   1 1 0      0.000000      0.000000      0.000000
     2   1 0 1      0.000000      0.000000      0.000000
     2   0 2 0     -4.553125      0.000000      0.000000
     2   0 1 1      0.000000      0.000000      0.000000
     2   0 0 2     -4.028466      0.000000      2.238938


 Parallel integral file used       1 records with       0 large values

 Line search: 
     step= 1.00 grad=-9.0E-04 hess= 7.4E-04 energy=    -74.965776 mode=downhill
 new step= 0.60                   predicted energy=    -74.965892

          --------
          Step   3
          --------


                         Geometry "geometry" -> "geometry"
                         ---------------------------------

 Output coordinates in a.u. (scale by  1.000000000 to convert to a.u.)

  No.       Tag          Charge          X              Y              Z
 ---- ---------------- ---------- -------------- -------------- --------------
    1 O                    8.0000     0.00000000     0.00000000     0.28101111
    2 H                    1.0000    -1.43138217     0.00000000    -0.91551242
    3 H                    1.0000     1.43138217     0.00000000    -0.91551242

      Atomic Mass 
      ----------- 

      O                 15.994910
      H                  1.007825


 Effective nuclear repulsion energy (a.u.)       8.9255680175

            Nuclear Dipole moment (a.u.) 
            ----------------------------
        X                 Y               Z
 ---------------- ---------------- ----------------
     0.0000000000     0.0000000000     0.4170640205

      Symmetry information
      --------------------

 Group name             C2v       
 Group number             16
 Group order               4
 No. of unique centers     2

      Symmetry unique atoms

     1    2

                                 NWChem SCF Module
                                 -----------------


                                       Water



  ao basis        = "ao basis"
  functions       =     7
  atoms           =     3
  closed shells   =     5
  open shells     =     0
  charge          =   0.00
  wavefunction    = RHF 
  input vectors   = ./h2o.movecs
  output vectors  = ./h2o.movecs
  use symmetry    = T
  symmetry adapt  = T


 Summary of "ao basis" -> "ao basis" (cartesian)
 ------------------------------------------------------------------------------
       Tag                 Description            Shells   Functions and Types
 ---------------- ------------------------------  ------  ---------------------
 H                           sto-3g                  1        1   1s
 O                           sto-3g                  3        5   2s1p


      Symmetry analysis of basis
      --------------------------

        a1          4
        a2          0
        b1          2
        b2          1


 Forming initial guess at       2.1s


 Loading old vectors from job with title :

Water


      Symmetry analysis of molecular orbitals - initial
      -------------------------------------------------

  Numbering of irreducible representations: 

     1 a1          2 a2          3 b1          4 b2      

  Orbital symmetries:

     1 a1          2 a1          3 b1          4 a1          5 b2      
     6 a1          7 b1      


 Starting SCF solution at       2.1s



 ----------------------------------------------
         Quadratically convergent ROHF

 Convergence threshold     :          1.000E-06
 Maximum no. of iterations :           20
 Final Fock-matrix accuracy:          1.000E-08
 ----------------------------------------------


 #quartets = 7.900E+01 #integrals = 1.640E+02 #direct =  0.0% #cached =100.0%


 Integral file          = ./h2o.aoints.0
 Record size in doubles =  65536        No. of integs per rec  =  43688
 Max. records in memory =      2        Max. records in file   =  22626
 No. of bits per label  =      8        No. of bits per value  =     64


              iter       energy          gnorm     gmax       time
             ----- ------------------- --------- --------- --------
                 1      -74.9658786057  8.23E-03  6.95E-03      0.9
                 2      -74.9658901173  5.06E-05  3.81E-05      0.9
                 3      -74.9658901175  3.90E-08  3.48E-08      0.9


       Final RHF  results 
       ------------------ 

         Total SCF energy =    -74.965890117527
      One-electron energy =   -121.869158936463
      Two-electron energy =     37.977700801398
 Nuclear repulsion energy =      8.925568017538

        Time for solution =      0.1s



       Symmetry analysis of molecular orbitals - final
       -----------------------------------------------

  Numbering of irreducible representations: 

     1 a1          2 a2          3 b1          4 b2      

  Orbital symmetries:

     1 a1          2 a1          3 b1          4 a1          5 b2      
     6 a1          7 b1      

             Final eigenvalues
             -----------------

              1      
    1  -20.2511
    2   -1.2584
    3   -0.5953
    4   -0.4596
    5   -0.3926
    6    0.5836
    7    0.6956

                       ROHF Final Molecular Orbital Analysis
                       -------------------------------------

 Vector    2  Occ=2.000000E+00  E=-1.258389E+00  Symmetry=a1
              MO Center= -1.1E-17,  3.5E-18, -4.0E-02, r^2= 5.4E-01
   Bfn.  Coefficient  Atom+Function         Bfn.  Coefficient  Atom+Function  
  ----- ------------  ---------------      ----- ------------  ---------------
     2      0.843677  1 O  s                  1     -0.233685  1 O  s          
     6      0.155800  2 H  s                  7      0.155800  3 H  s          

 Vector    3  Occ=2.000000E+00  E=-5.952599E-01  Symmetry=b1
              MO Center=  2.3E-18,  2.5E-37, -1.3E-01, r^2= 8.4E-01
   Bfn.  Coefficient  Atom+Function         Bfn.  Coefficient  Atom+Function  
  ----- ------------  ---------------      ----- ------------  ---------------
     3      0.612401  1 O  px                 7      0.449029  3 H  s          
     6     -0.449029  2 H  s          

 Vector    4  Occ=2.000000E+00  E=-4.595623E-01  Symmetry=a1
              MO Center= -5.3E-16, -4.1E-17,  1.6E-01, r^2= 6.6E-01
   Bfn.  Coefficient  Atom+Function         Bfn.  Coefficient  Atom+Function  
  ----- ------------  ---------------      ----- ------------  ---------------
     5      0.756901  1 O  pz                 2      0.538517  1 O  s          
     6     -0.294097  2 H  s                  7     -0.294097  3 H  s          

 Vector    5  Occ=2.000000E+00  E=-3.925973E-01  Symmetry=b2
              MO Center=  7.2E-33,  3.5E-17,  1.5E-01, r^2= 4.2E-01
   Bfn.  Coefficient  Atom+Function         Bfn.  Coefficient  Atom+Function  
  ----- ------------  ---------------      ----- ------------  ---------------
     4      1.000000  1 O  py         

 Vector    6  Occ=0.000000E+00  E= 5.835693E-01  Symmetry=a1
              MO Center=  7.8E-17,  2.6E-18, -3.8E-01, r^2= 1.1E+00
   Bfn.  Coefficient  Atom+Function         Bfn.  Coefficient  Atom+Function  
  ----- ------------  ---------------      ----- ------------  ---------------
     2      0.824093  1 O  s                  7     -0.770869  3 H  s          
     6     -0.770869  2 H  s                  5     -0.762794  1 O  pz         

 Vector    7  Occ=0.000000E+00  E= 6.956103E-01  Symmetry=b1
              MO Center=  5.6E-16, -2.3E-33, -2.3E-01, r^2= 1.0E+00
   Bfn.  Coefficient  Atom+Function         Bfn.  Coefficient  Atom+Function  
  ----- ------------  ---------------      ----- ------------  ---------------
     3      0.961486  1 O  px                 7     -0.816250  3 H  s          
     6      0.816250  2 H  s          


 center of mass
 --------------
 x =   0.00000000 y =   0.00000000 z =   0.14710230

 moments of inertia (a.u.)
 ------------------
           2.562785086897           0.000000000000           0.000000000000
           0.000000000000           6.692559491834           0.000000000000
           0.000000000000           0.000000000000           4.129774404937

  Mulliken analysis of the total density
  --------------------------------------

    Atom       Charge   Shell Charges
 -----------   ------   -------------------------------------------------------
    1 O    8     8.33   2.00  1.85  4.49
    2 H    1     0.83   0.83
    3 H    1     0.83   0.83

       Multipole analysis of the density wrt the origin
       ------------------------------------------------

     L   x y z        total         open         nuclear
     -   - - -        -----         ----         -------
     0   0 0 0      0.000000      0.000000     10.000000

     1   1 0 0      0.000000      0.000000      0.000000
     1   0 1 0      0.000000      0.000000      0.000000
     1   0 0 1     -0.673236      0.000000      0.417064

     2   2 0 0     -3.331181      0.000000      4.097710
     2   1 1 0      0.000000      0.000000      0.000000
     2   1 0 1      0.000000      0.000000      0.000000
     2   0 2 0     -4.552821      0.000000      0.000000
     2   0 1 1      0.000000      0.000000      0.000000
     2   0 0 2     -4.023219      0.000000      2.308064


 Parallel integral file used       1 records with       0 large values

                              NWChem Gradients Module
                              -----------------------


                                       Water


  wavefunction    =   RHF     

  Using symmetry


                         RHF ENERGY GRADIENTS

    atom               coordinates                        gradient
                 x          y          z           x          y          z
   1 O       0.000000   0.000000   0.281011    0.000000   0.000000  -0.003679
   2 H      -1.431382   0.000000  -0.915512    0.001650   0.000000   0.001839
   3 H       1.431382   0.000000  -0.915512   -0.001650   0.000000   0.001839

                 ----------------------------------------
                 |  Time  |  1-e(secs)   |  2-e(secs)   |
                 ----------------------------------------
                 |  CPU   |       0.01   |       0.02   |
                 ----------------------------------------
                 |  WALL  |       0.00   |       0.02   |
                 ----------------------------------------

  Step       Energy      Delta E   Gmax     Grms     Xrms     Xmax   Walltime
  ---- ---------------- -------- -------- -------- -------- -------- --------
@    3     -74.96589012 -2.7E-04  0.00245  0.00201  0.01472  0.02749      2.4
                                                                    



                                Z-matrix (autoz)
                                -------- 

 Units are Angstrom for bonds and degrees for angles

      Type          Name      I     J     K     L     M      Value     Gradient
      ----------- --------  ----- ----- ----- ----- ----- ---------- ----------
    1 Stretch                  1     2                       0.98724   -0.00245
    2 Stretch                  1     3                       0.98724   -0.00245
    3 Bend                     2     1     3               100.21403    0.00035

                                 NWChem SCF Module
                                 -----------------


                                       Water



  ao basis        = "ao basis"
  functions       =     7
  atoms           =     3
  closed shells   =     5
  open shells     =     0
  charge          =   0.00
  wavefunction    = RHF 
  input vectors   = ./h2o.movecs
  output vectors  = ./h2o.movecs
  use symmetry    = T
  symmetry adapt  = T


 Summary of "ao basis" -> "ao basis" (cartesian)
 ------------------------------------------------------------------------------
       Tag                 Description            Shells   Functions and Types
 ---------------- ------------------------------  ------  ---------------------
 H                           sto-3g                  1        1   1s
 O                           sto-3g                  3        5   2s1p


      Symmetry analysis of basis
      --------------------------

        a1          4
        a2          0
        b1          2
        b2          1


 Forming initial guess at       2.4s


 Loading old vectors from job with title :

Water


      Symmetry analysis of molecular orbitals - initial
      -------------------------------------------------

  Numbering of irreducible representations: 

     1 a1          2 a2          3 b1          4 b2      

  Orbital symmetries:

     1 a1          2 a1          3 b1          4 a1          5 b2      
     6 a1          7 b1      


 Starting SCF solution at       2.4s



 ----------------------------------------------
         Quadratically convergent ROHF

 Convergence threshold     :          1.000E-06
 Maximum no. of iterations :           20
 Final Fock-matrix accuracy:          1.000E-08
 ----------------------------------------------


 #quartets = 7.900E+01 #integrals = 1.640E+02 #direct =  0.0% #cached =100.0%


 Integral file          = ./h2o.aoints.0
 Record size in doubles =  65536        No. of integs per rec  =  43688
 Max. records in memory =      2        Max. records in file   =  22626
 No. of bits per label  =      8        No. of bits per value  =     64


              iter       energy          gnorm     gmax       time
             ----- ------------------- --------- --------- --------
                 1      -74.9658994342  3.41E-03  2.70E-03      1.0
                 2      -74.9659007239  1.10E-06  8.49E-07      1.1
                 3      -74.9659007239  5.08E-08  3.37E-08      1.1


       Final RHF  results 
       ------------------ 

         Total SCF energy =    -74.965900723913
      One-electron energy =   -121.841355055445
      Two-electron energy =     37.965024342881
 Nuclear repulsion energy =      8.910429988651

        Time for solution =      0.1s



       Symmetry analysis of molecular orbitals - final
       -----------------------------------------------

  Numbering of irreducible representations: 

     1 a1          2 a2          3 b1          4 b2      

  Orbital symmetries:

     1 a1          2 a1          3 b1          4 a1          5 b2      
     6 a1          7 b1      

             Final eigenvalues
             -----------------

              1      
    1  -20.2515
    2   -1.2577
    3   -0.5941
    4   -0.4597
    5   -0.3926
    6    0.5822
    7    0.6933

                       ROHF Final Molecular Orbital Analysis
                       -------------------------------------

 Vector    2  Occ=2.000000E+00  E=-1.257724E+00  Symmetry=a1
              MO Center= -1.2E-17,  3.4E-18, -3.8E-02, r^2= 5.4E-01
   Bfn.  Coefficient  Atom+Function         Bfn.  Coefficient  Atom+Function  
  ----- ------------  ---------------      ----- ------------  ---------------
     2      0.844289  1 O  s                  1     -0.233749  1 O  s          
     6      0.155637  2 H  s                  7      0.155637  3 H  s          

 Vector    3  Occ=2.000000E+00  E=-5.941428E-01  Symmetry=b1
              MO Center=  5.0E-17,  1.2E-37, -1.3E-01, r^2= 8.5E-01
   Bfn.  Coefficient  Atom+Function         Bfn.  Coefficient  Atom+Function  
  ----- ------------  ---------------      ----- ------------  ---------------
     3      0.612637  1 O  px                 7      0.449183  3 H  s          
     6     -0.449183  2 H  s          

 Vector    4  Occ=2.000000E+00  E=-4.596988E-01  Symmetry=a1
              MO Center=  8.3E-18,  6.2E-34,  1.6E-01, r^2= 6.6E-01
   Bfn.  Coefficient  Atom+Function         Bfn.  Coefficient  Atom+Function  
  ----- ------------  ---------------      ----- ------------  ---------------
     5      0.756084  1 O  pz                 2      0.538245  1 O  s          
     6     -0.294897  2 H  s                  7     -0.294897  3 H  s          

 Vector    5  Occ=2.000000E+00  E=-3.926138E-01  Symmetry=b2
              MO Center= -2.0E-33, -6.0E-18,  1.5E-01, r^2= 4.2E-01
   Bfn.  Coefficient  Atom+Function         Bfn.  Coefficient  Atom+Function  
  ----- ------------  ---------------      ----- ------------  ---------------
     4      1.000000  1 O  py         

 Vector    6  Occ=0.000000E+00  E= 5.821629E-01  Symmetry=a1
              MO Center=  3.5E-17,  2.6E-18, -3.8E-01, r^2= 1.1E+00
[...]
  --- with translations and rotations projected out ---
  --- via the Eckart algorithm                      ---
 Projected Nuclear Hessian trans-rot subspace norm:1.3253E-32
                         (should be close to zero!) 


From the projected analysis 
The Zero-Point Energy (Kcal/mol) =          13.25234587

 center of mass
 --------------
 x =   0.00000000 y =   0.00000000 z =   0.14985879

 moments of inertia (a.u.)
 ------------------
           2.584114546865           0.000000000000           0.000000000000
           0.000000000000           6.720713727726           0.000000000000
           0.000000000000           0.000000000000           4.136599180861

 Rotational Constants
 --------------------
 A=  23.296249 cm-1  ( 33.517357 K)
 B=  14.553060 cm-1  ( 20.938139 K)
 C=   8.957408 cm-1  ( 12.887424 K)


 Temperature                      =   298.15K

 Zero-Point correction to Energy  =   13.242 kcal/mol  (  0.021103 au)
 Thermal correction to Energy     =   15.019 kcal/mol  (  0.023935 au)
 Thermal correction to Enthalpy   =   15.611 kcal/mol  (  0.024878 au)

 Total Entropy                    =   45.263 cal/mol-K
   - Translational                =   34.593 cal/mol-K (mol. weight =  18.0106)
   - Rotational                   =   10.668 cal/mol-K (symmetry #  =        2)
   - Vibrational                  =    0.002 cal/mol-K

 Cv (constant volume heat capacity) =    5.976 cal/mol-K
   - Translational                  =    2.979 cal/mol-K
   - Rotational                     =    2.979 cal/mol-K
   - Vibrational                    =    0.018 cal/mol-K



          -------------------------------------------------
          NORMAL MODE EIGENVECTORS IN CARTESIAN COORDINATES
          -------------------------------------------------
             (Projected Frequencies expressed in cm-1)

                    1           2           3           4           5           6
 
 P.Frequency        0.00        0.00        0.00        0.00        0.00        0.00
 
           1     0.06044    -0.01470     0.00000     0.00000     0.00000     0.22902
           2     0.00000     0.00000     0.00000     0.00000     0.25004     0.00000
           3     0.03073     0.22854     0.00000     0.00000     0.00000     0.00008
           4    -0.31318     0.07637     0.00000     0.00000     0.00000     0.23085
           5     0.00000     0.00000     0.00000     0.70463     0.00000     0.00000
           6     0.47620     0.11996     0.00000     0.00000     0.00000    -0.00210
           7    -0.31318     0.07637     0.00000     0.00000     0.00000     0.23085
           8     0.00000     0.00000     0.99611     0.00000     0.00000     0.00000
           9    -0.41473     0.33712     0.00000     0.00000     0.00000     0.00226

                    7           8           9
 
 P.Frequency     1900.87     3090.22     4276.29
 
           1     0.00055    -0.05893    -0.05222
           2     0.00000     0.00000     0.00000
           3    -0.07385    -0.05381     0.03156
           4    -0.25743     0.52117     0.03760
           5     0.00000     0.00000     0.00000
           6     0.29142     0.40994     0.04859
           7     0.50572    -0.10621     0.75366
           8     0.00000     0.00000     0.00000
           9     0.58972     0.03481    -0.59800



 ----------------------------------------------------------------------------
 Normal Eigenvalue ||    Projected Derivative Dipole Moments (debye/angs)
  Mode   [cm**-1]  ||      [d/dqX]             [d/dqY]           [d/dqZ]
 ------ ---------- || ------------------ ------------------ -----------------
    1        0.000 ||      -1.004               0.000             0.000
    2        0.000 ||       0.245               0.000             0.000
    3        0.000 ||       0.000               1.339             0.000
    4        0.000 ||       0.000               0.947             0.000
    5        0.000 ||       0.000              -0.672             0.000
    6        0.000 ||       0.005               0.000             0.000
    7     1900.870 ||       0.336               0.000             0.369
    8     3090.218 ||      -0.360               0.000            -0.584
    9     4276.287 ||      -0.621               0.000             0.663
 ----------------------------------------------------------------------------



  
  
 ----------------------------------------------------------------------------
 Normal Eigenvalue ||           Projected Infra Red Intensities
  Mode   [cm**-1]  || [atomic units] [(debye/angs)**2] [(KM/mol)] [arbitrary]
 ------ ---------- || -------------- ----------------- ---------- -----------
    1        0.000 ||    0.043725           1.009        42.625      15.774
    2        0.000 ||    0.002598           0.060         2.532       0.937
    3        0.000 ||    0.077703           1.793        75.749      28.031
    4        0.000 ||    0.038881           0.897        37.904      14.026
    5        0.000 ||    0.019584           0.452        19.091       7.065
    6        0.000 ||    0.000001           0.000         0.001       0.000
    7     1900.870 ||    0.010807           0.249        10.536       3.899
    8     3090.218 ||    0.020391           0.470        19.878       7.356
    9     4276.287 ||    0.035792           0.826        34.892      12.912
 ----------------------------------------------------------------------------



 vib:animation  F

 Task  times  cpu:        0.0s     wall:        0.0s


                                NWChem Input Module
                                -------------------


  WARNING: old mass redefinitions being replaced


                   NWChem Nuclear Hessian and Frequency Analysis
                   ---------------------------------------------

                       reusing previously generated Hessian
                       ------------------------------------


  Vibrational analysis via the FX method 

  See chapter 2 in "Molecular Vibrations" by Wilson, Decius and Cross

  Vib: Default input used 

  Nuclear Hessian passed symmetry test 



 ---------------------------- Atom information ----------------------------
     atom    #        X              Y              Z            mass
 --------------------------------------------------------------------------
    O        1  0.0000000E+00  0.0000000E+00  2.8432369E-01  1.5994910E+01
    H        2 -1.4325644E+00  0.0000000E+00 -9.1716871E-01  2.0141018E+00
    H        3  1.4325644E+00  0.0000000E+00 -9.1716871E-01  3.0160493E+00
 --------------------------------------------------------------------------




          ----------------------------------------------------
          MASS-WEIGHTED NUCLEAR HESSIAN (Hartree/Bohr/Bohr/Kamu)
          ----------------------------------------------------


              1           2           3           4           5           6           7           8           9
   ----- ----- ----- ----- -----
    1   5.02629E+01
    2  -4.92737E-16-3.57627E-07
    3   5.10678E-14-4.16617E-15 3.96939E+01
    4  -7.08219E+01-3.54101E-15-3.81109E+01 2.17919E+02
    5  -2.11769E-16 5.03618E-07 7.16281E-15-5.01566E-15-2.57577E-05
    6  -5.93984E+01 6.85801E-15-5.59299E+01 1.37394E+02 3.84705E-15 1.49001E+02
    7  -5.78748E+01-7.47083E-17 3.11437E+01-1.49863E+01-1.80541E-15 2.45113E+01 1.45525E+02
    8   1.30777E-15 4.11550E-07 3.54194E-15 3.43246E-16 1.98891E-05-2.55022E-15-3.29214E-15-1.72009E-05
    9   4.85396E+01 3.98993E-15-4.57052E+01-2.45113E+01-2.06784E-14 7.03810E+00-9.17507E+01 6.81815E-15 9.95022E+01



          -------------------------------------------------
          NORMAL MODE EIGENVECTORS IN CARTESIAN COORDINATES
          -------------------------------------------------
                 (Frequencies expressed in cm-1)

                    1           2           3           4           5           6
 
 Frequency         -1.05       -0.84       -0.20        0.00        0.00        0.00
 
           1     0.00000     0.07243     0.00000     0.21809     0.00000     0.00000
           2    -0.00080     0.00000    -0.12231     0.00000     0.21808     0.00000
           3     0.00000     0.01720     0.00000     0.00000     0.00000     0.21809
           4     0.00000    -0.23032     0.00000     0.21809     0.00000     0.00000
           5     0.54816     0.00000     0.38529     0.00000     0.21811     0.00000
           6     0.00000     0.37818     0.00000     0.00000     0.00000     0.21809
           7     0.00000    -0.23032     0.00000     0.21809     0.00000     0.00000
           8    -0.36180     0.00000     0.39127     0.00000     0.21811     0.00000
           9     0.00000    -0.34378     0.00000     0.00000     0.00000     0.21809

                    7           8           9
 
 Frequency       1463.33     2579.31     3123.05
 
           1    -0.00210    -0.06129    -0.07714
           2     0.00000     0.00000     0.00000
           3    -0.08994     0.07150    -0.03821
           4    -0.35462    -0.12043     0.50560
           5     0.00000     0.00000     0.00000
           6     0.36409    -0.07983     0.40863
           7     0.24792     0.40543     0.07146
           8     0.00000     0.00000     0.00000
           9     0.23382    -0.32590    -0.07023



 ----------------------------------------------------------------------------
 Normal Eigenvalue ||         Derivative Dipole Moments (debye/angs)
  Mode   [cm**-1]  ||      [d/dqX]             [d/dqY]           [d/dqZ]
 ------ ---------- || ------------------ ------------------ -----------------
    1       -1.051 ||       0.000               0.253             0.000
    2       -0.842 ||      -0.814               0.000             0.000
    3       -0.199 ||       0.000               1.373             0.000
    4       -0.002 ||       0.000               0.000             0.000
    5       -0.002 ||       0.000               0.000             0.000
    6        0.002 ||       0.000               0.000             0.000
    7     1463.328 ||      -0.146               0.000             0.299
    8     2579.306 ||      -0.231               0.000             0.507
    9     3123.047 ||      -0.455               0.000            -0.411
 ----------------------------------------------------------------------------



  
  
 ----------------------------------------------------------------------------
 Normal Eigenvalue ||                 Infra Red Intensities
  Mode   [cm**-1]  || [atomic units] [(debye/angs)**2] [(KM/mol)] [arbitrary]
 ------ ---------- || -------------- ----------------- ---------- -----------
    1       -1.051 ||    0.002767           0.064         2.697       1.686
    2       -0.842 ||    0.028712           0.662        27.990      17.498
    3       -0.199 ||    0.081663           1.884        79.609      49.769
    4       -0.002 ||    0.000000           0.000         0.000       0.000
    5       -0.002 ||    0.000000           0.000         0.000       0.000
    6        0.002 ||    0.000000           0.000         0.000       0.000
    7     1463.328 ||    0.004791           0.111         4.671       2.920
    8     2579.306 ||    0.013455           0.310        13.117       8.200
    9     3123.047 ||    0.016289           0.376        15.879       9.927
 ----------------------------------------------------------------------------





        Vibrational analysis via the FX method 
  --- with translations and rotations projected out ---
  --- via the Eckart algorithm                      ---
 Projected Nuclear Hessian trans-rot subspace norm:1.3253E-32
                         (should be close to zero!) 


From the projected analysis 
The Zero-Point Energy (Kcal/mol) =          10.24692346

 center of mass
 --------------
 x =   0.00000000 y =   0.00000000 z =   0.14985879

 moments of inertia (a.u.)
 ------------------
           2.584114546865           0.000000000000           0.000000000000
           0.000000000000           6.720713727726           0.000000000000
           0.000000000000           0.000000000000           4.136599180861

 Rotational Constants
 --------------------
 A=  23.296249 cm-1  ( 33.517357 K)
 B=  14.553060 cm-1  ( 20.938139 K)
 C=   8.957408 cm-1  ( 12.887424 K)


 Temperature                      =   298.15K

 Zero-Point correction to Energy  =   10.239 kcal/mol  (  0.016317 au)
 Thermal correction to Energy     =   12.019 kcal/mol  (  0.019154 au)
 Thermal correction to Enthalpy   =   12.611 kcal/mol  (  0.020098 au)

 Total Entropy                    =   45.275 cal/mol-K
   - Translational                =   34.593 cal/mol-K (mol. weight =  18.0106)
   - Rotational                   =   10.668 cal/mol-K (symmetry #  =        2)
   - Vibrational                  =    0.014 cal/mol-K

 Cv (constant volume heat capacity) =    6.045 cal/mol-K
   - Translational                  =    2.979 cal/mol-K
   - Rotational                     =    2.979 cal/mol-K
   - Vibrational                    =    0.086 cal/mol-K



          -------------------------------------------------
          NORMAL MODE EIGENVECTORS IN CARTESIAN COORDINATES
          -------------------------------------------------
             (Projected Frequencies expressed in cm-1)

                    1           2           3           4           5           6
 
 P.Frequency        0.00        0.00        0.00        0.00        0.00        0.00
 
           1     0.03280     0.06540     0.00000     0.00000     0.00000     0.21785
           2     0.00000     0.00000     0.00000     0.00000     0.25004     0.00000
           3     0.20266    -0.08238     0.00000     0.00000     0.00000    -0.00006
           4    -0.10292    -0.20523     0.00000     0.00000     0.00000     0.21885
           5     0.00000     0.00000     0.00000     0.70463     0.00000     0.00000
           6     0.36447     0.24029     0.00000     0.00000     0.00000    -0.00126
           7    -0.10292    -0.20523     0.00000     0.00000     0.00000     0.21885
           8     0.00000     0.00000     0.57581     0.00000     0.00000     0.00000
           9     0.04084    -0.40506     0.00000     0.00000     0.00000     0.00115

                    7           8           9
 
 P.Frequency     1463.33     2579.31     3123.05
 
           1    -0.00210    -0.06129    -0.07714
           2     0.00000     0.00000     0.00000
           3    -0.08994     0.07150    -0.03821
           4    -0.35462    -0.12043     0.50560
           5     0.00000     0.00000     0.00000
           6     0.36409    -0.07983     0.40863
           7     0.24792     0.40543     0.07146
           8     0.00000     0.00000     0.00000
           9     0.23382    -0.32590    -0.07023



 ----------------------------------------------------------------------------
 Normal Eigenvalue ||    Projected Derivative Dipole Moments (debye/angs)
  Mode   [cm**-1]  ||      [d/dqX]             [d/dqY]           [d/dqZ]
 ------ ---------- || ------------------ ------------------ -----------------
    1        0.000 ||      -0.365               0.000             0.000
    2        0.000 ||       0.728               0.000             0.000
    3        0.000 ||       0.000               0.774             0.000
    4        0.000 ||       0.000               0.947             0.000
    5        0.000 ||       0.000              -0.672             0.000
    6        0.000 ||       0.003               0.000             0.000
    7     1463.328 ||      -0.146               0.000             0.299
    8     2579.306 ||      -0.231               0.000             0.507
    9     3123.047 ||      -0.455               0.000            -0.411
 ----------------------------------------------------------------------------



  
  
 ----------------------------------------------------------------------------
 Normal Eigenvalue ||           Projected Infra Red Intensities
  Mode   [cm**-1]  || [atomic units] [(debye/angs)**2] [(KM/mol)] [arbitrary]
 ------ ---------- || -------------- ----------------- ---------- -----------
    1        0.000 ||    0.005769           0.133         5.624       3.516
    2        0.000 ||    0.022942           0.529        22.365      13.982
    3        0.000 ||    0.025965           0.599        25.312      15.824
    4        0.000 ||    0.038881           0.897        37.904      23.696
    5        0.000 ||    0.019584           0.452        19.091      11.935
    6        0.000 ||    0.000000           0.000         0.000       0.000
    7     1463.328 ||    0.004791           0.111         4.671       2.920
    8     2579.306 ||    0.013455           0.310        13.117       8.200
    9     3123.047 ||    0.016289           0.376        15.879       9.927
 ----------------------------------------------------------------------------



 vib:animation  F

 Task  times  cpu:        0.0s     wall:        0.0s


                                NWChem Input Module
                                -------------------


 Summary of allocated global arrays
-----------------------------------
  No active global arrays



                         GA Statistics for process    0
                         ------------------------------

       create   destroy   get      put      acc     scatter   gather  read&inc
calls: 2609     2609     1.81e+04 8765     8816      170        0        0     
number of processes/call 1.00e+00 1.00e+00 1.00e+00 1.00e+00 0.00e+00
bytes total:             1.87e+06 9.20e+05 8.15e+05 5.29e+04 0.00e+00 0.00e+00
bytes remote:            0.00e+00 0.00e+00 0.00e+00 0.00e+00 0.00e+00 0.00e+00
Max memory consumed for GA by this process: 32472 bytes

MA_summarize_allocated_blocks: starting scan ...
MA_summarize_allocated_blocks: scan completed: 0 heap blocks, 0 stack blocks
MA usage statistics:

	allocation statistics:
					      heap	     stack
					      ----	     -----
	current number of blocks	         0	         0
	maximum number of blocks	        43	        36
	current total bytes		         0	         0
	maximum total bytes		   1059524	  38388732
	maximum total K-bytes		      1060	     38389
	maximum total M-bytes		         2	        39



                                  ACKNOWLEDGEMENT
                                  ---------------

            Please use the following acknowledgement where appropriate 
            for results obtained with NWChem:

            High Performance Computational Chemistry Group, "NWChem, A
            Computational Chemistry Package for Parallel Computers, 
            Version 4.7" (2005), Pacific Northwest National Laboratory,
            Richland, Washington 99352-0999, USA.


                                     CITATION
                                     --------

            Please use the following citation when publishing results
            obtained with NWChem:

            T. P. Straatsma, E. Apra, T. L. Windus, E. J. Bylaska, W. de Jong,
            S. Hirata, M. Valiev, M. T. Hackler, L. Pollack, R. J. Harrison,
            M. Dupuis, D. M. A. Smith, J. Nieplocha, V. Tipparaju,
            M. Krishnan, A. A. Auer, E. Brown, G. Cisneros, G. I. Fann,
            H. Fruchtl, J. Garza, K. Hirao, R. Kendall, J. A. Nichols,
            K. Tsemekhman, K. Wolinski, J. Anchell, D. Bernholdt, P. Borowski,
            T. Clark, D. Clerc, H. Dachsel, M. Deegan, K. Dyall, D. Elwood,
            E. Glendening, M. Gutowski, A. Hess, J. Jaffe, B. Johnson, J. Ju,
            R. Kobayashi, R. Kutteh, Z. Lin, R. Littlefield, X. Long, B. Meng,
            T. Nakajima, S. Niu, M. Rosing, G. Sandrone, M. Stave, H. Taylor,
            G. Thomas, J. van Lenthe, A. Wong, and Z. Zhang,
            "NWChem, A Computational Chemistry Package for Parallel Computers, 
            Version 4.7" (2005),
                      Pacific Northwest National Laboratory,
                      Richland, Washington 99352-0999, USA.



 Total times  cpu:        1.8s     wall:        4.1s
