 argument  1 = hess_h2o.nw
 argument  2 = -master
 argument  3 = texas.emsl.pnl.gov
 argument  4 = 1272
 argument  5 = 1
 argument  6 = 2
 argument  7 = 0
 argument  8 = 0
                                         
                                         


             Northwest Computational Chemistry Package (NWChem) 3.2.1
             --------------------------------------------------------


                    Environmental Molecular Sciences Laboratory
                       Pacific Northwest National Laboratory
                                Richland, WA 99352

                                         
                                         


                         COPYRIGHT (C) 1994, 1995, 1996, 1997
                        Pacific Northwest National Laboratory,
                             Battelle Memorial Institute.

                            >>> All Rights Reserved <<<


                                    DISCLAIMER
                                    ----------

            This material was prepared as an account of work sponsored
            by an agency of the United States Government.  Neither the
            United States Government nor the United States Department
            of Energy, nor Battelle, nor any of their employees, MAKES
            ANY WARRANTY, EXPRESS OR IMPLIED, OR ASSUMES ANY LEGAL
            LIABILITY OR RESPONSIBILITY FOR THE ACCURACY, COMPLETENESS,
            OR USEFULNESS OF ANY INFORMATION, APPARATUS, PRODUCT,
            SOFTWARE, OR PROCESS DISCLOSED, OR REPRESENTS THAT ITS USE
            WOULD NOT INFRINGE PRIVATELY OWNED RIGHTS.


                                    LIMITED USE
                                    -----------

            This software (including any documentation) is being made
            available to you for your internal use only, solely for use
            in performance of work directly for the U.S. Federal
            Government or work under contracts with the U.S. Department
            of Energy or other U.S. Federal Government agencies.  This
            software is a version which has not yet been evaluated and
            cleared for commercialization.  Adherence to this notice
            may be necessary for the author, Battelle Memorial
            Institute, to successfully assert copyright in and
            commercialize this software. This software is not intended
            for duplication or distribution to third parties without
            the permission of the Manager of Software Products at
            Pacific Northwest National Laboratory, Richland,
            Washington, 99352.


                                  ACKNOWLEDGMENT
                                  --------------

            This software and its documentation were produced with
            Government support under Contract Number DE-AC06-76RLO-1830
            awarded by the United States Department of Energy.  The
            Government retains a paid-up non-exclusive, irrevocable
            worldwide license to reproduce, prepare derivative works,
            perform publicly and display publicly by or for the
            Government, including the right to distribute to other
            Government contractors.


              Job information
              ---------------

    hostname      = texas
    program       = /msrc/home/d3e129/nwchem-3.2.1/bin/SGITFP/nwchem
    date          = Wed Aug  5 12:55:08 1998

    compiled      = Wed Aug  5 11:04:43 PDT 1998
    source        = /msrc/home/d3e129/nwchem-3.2.1
    input         = hess_h2o.nw
    prefix        = h2o.
    data base     = ./h2o.db
    status        = startup
    nproc         =    2
    time left     =     -1s



            Memory information
            ------------------

    heap      =    2949121 doubles =     23.6 Mbytes
    stack     =    2949121 doubles =     23.6 Mbytes
    global    =    5898240 doubles =     47.2 Mbytes (distinct from heap & stack)
    total     =   11796482 doubles =     94.4 Mbytes
    verify    = yes
    hardfail  = no 


           Directory information
           ---------------------

  0 permanent = .
  0 scratch   = .



                                NWChem Input Module
                                -------------------


                                      Water
                                      -----


          ------
          auto-z
          ------
 zdone =    T

                      --------------------
                      internal coordinates
                      --------------------
  no.    type     -i-   -j-   -k-   -l-   -m-       value  
  ---------------------------------------------------------
    1  STRETCH     1     2                          1.17762
    2  STRETCH     1     3                          1.13854
    3  BEND        2     1     3                  101.83488


                             Geometry "geometry" -> ""
                             -------------------------

 Output coordinates in a.u. (scale by  1.000000000 to convert to a.u.)

  No.       Tag          Charge          X              Y              Z
 ---- ---------------- ---------- -------------- -------------- --------------
    1 O                    8.0000     0.00000000    -0.05000000     0.27143053
    2 H                    1.0000     0.00000000     1.88042809    -0.83572213
    3 H                    1.0000     0.00000000    -1.48042809    -1.33572213

      Atomic Mass 
      ----------- 

      O                 15.994910
      H                  1.007825


 Effective nuclear repulsion energy (a.u.)       7.6074783599

            Nuclear Dipole moment (a.u.) 
            ----------------------------
        X                 Y               Z
 ---------------- ---------------- ----------------
     0.0000000000     0.0000000000     0.0000000000



                           NWChem Geometry Optimization
                           ----------------------------



          ---------------------
          Geometry Optimization
          ---------------------
 optimization convergence threshold    (cvgopt) =   0.000800
 maximum number of energy evaluations  (nptopt) =   20
 max.num. of points in linear search   (linopt) =   10
 initial guess option for opt.hessian  (inhess) =    0
 hessian update selection option       (modupd) =    1
 optimization to saddle point          (modsad) =    0
 initial eigen-mode followed to saddle (moddir) =    1
 maximum step size to saddle           (sadstp) =   0.35

          -------------------
          Energy Minimization
          -------------------

        no frozen internal coordinates.

                      --------------------
                      internal coordinates
                      --------------------
  no.    type     -i-   -j-   -k-   -l-   -m-       value  
  ---------------------------------------------------------
    1  STRETCH     1     2                          1.17762
    2  STRETCH     1     3                          1.13854
    3  BEND        2     1     3                  101.83488

 hessian internally generated or read from external file will be used.
1 nserch  0

   point  1


                         Geometry "geometry" -> "geometry"
                         ---------------------------------

 Output coordinates in a.u. (scale by  1.000000000 to convert to a.u.)

  No.       Tag          Charge          X              Y              Z
 ---- ---------------- ---------- -------------- -------------- --------------
    1 O                    8.0000     0.00000000    -0.05000000     0.27143053
    2 H                    1.0000     0.00000000     1.88042809    -0.83572213
    3 H                    1.0000     0.00000000    -1.48042809    -1.33572213

      Atomic Mass 
      ----------- 

      O                 15.994910
      H                  1.007825


 Effective nuclear repulsion energy (a.u.)       7.6074783599

            Nuclear Dipole moment (a.u.) 
            ----------------------------
        X                 Y               Z
 ---------------- ---------------- ----------------
     0.0000000000     0.0000000000     0.0000000000


                      --------------------
                      internal coordinates
                      --------------------
  no.    type     -i-   -j-   -k-   -l-   -m-       value  
  ---------------------------------------------------------
    1  STRETCH     1     2                          1.17762
    2  STRETCH     1     3                          1.13854
    3  BEND        2     1     3                  101.83488


                                 NWChem SCF Module
                                 -----------------


                                       Water



  ao basis        = "ao basis"
  functions       =     7
  atoms           =     3
  closed shells   =     5
  open shells     =     0
  charge          =   0.00
  wavefunction    = RHF 
  input vectors   = atomic
  output vectors  = ./h2o.movecs
  use symmetry    = F
  symmetry adapt  = F


 Summary of "ao basis" -> "ao basis" (cartesian)
 ------------------------------------------------------------------------------
       Tag                 Description            Shells   Functions and Types
 ---------------- ------------------------------  ------  ---------------------
 H                           sto-3g                  1        1   1s
 O                           sto-3g                  3        5   2s1p



 Forming initial guess at       0.5s


      Superposition of Atomic Density Guess
      -------------------------------------

 Sum of atomic energies:         -74.71095592

      Non-variational initial energy
      ------------------------------

 Total energy =     -74.263312
 1-e energy   =    -118.883619
 2-e energy   =      37.012829
 HOMO         =      -0.223418
 LUMO         =       0.302513


 Starting SCF solution at       0.6s



 ----------------------------------------------
         Quadratically convergent ROHF

 Convergence threshold     :          1.000E-04
 Maximum no. of iterations :           20
 Final Fock-matrix accuracy:          1.000E-07
 ----------------------------------------------


 #quartets = 1.200D+02 #integrals = 2.600D+02 #direct =  0.0% #cached =100.0%


 Integral file          = ./h2o.aoints.0
 Record size in doubles =  32769        No. of integs per rec  =  21844
 Max. records in memory =      2        Max. records in file   = ******
 No. of bits per label  =      8        No. of bits per value  =     64


              iter       energy          gnorm     gmax       time
             ----- ------------------- --------- --------- --------
                 1      -74.8587825070  7.47D-01  5.83D-01      0.5
                 2      -74.9167054454  1.32D-01  9.64D-02      0.6
                 3      -74.9178122259  4.44D-03  3.82D-03      0.6
                 4      -74.9178152834  1.22D-05  9.11D-06      0.7


       Final RHF  results 
       ------------------ 

         Total SCF energy =    -74.917815283394
      One-electron energy =   -119.426635817234
      Two-electron energy =     36.901342173976
 Nuclear repulsion energy =      7.607478359863

        Time for solution =      0.2s


             Final eigenvalues
             -----------------

              1      
    1  -20.2743
    2   -1.1946
    3   -0.5206
    4   -0.4328
    5   -0.3897
    6    0.4348
    7    0.5324

                       ROHF Final Molecular Orbital Analysis
                       -------------------------------------

 Vector    2  Occ=2.000000D+00  E=-1.194559D+00
              MO Center= -1.1D-17, -1.5D-02,  9.4D-03, r^2= 5.5D-01
   Bfn.  Coefficient  Atom+Function         Bfn.  Coefficient  Atom+Function  
  ----- ------------  ---------------      ----- ------------  ---------------
     2      0.904927  1 O  s                  1     -0.241834  1 O  s          

 Vector    3  Occ=2.000000D+00  E=-5.206162D-01
              MO Center=  1.1D-17,  1.6D-02, -1.9D-01, r^2= 1.0D+00
   Bfn.  Coefficient  Atom+Function         Bfn.  Coefficient  Atom+Function  
  ----- ------------  ---------------      ----- ------------  ---------------
     4      0.598048  1 O  py                 7     -0.470583  3 H  s          
     6      0.438819  2 H  s          

 Vector    4  Occ=2.000000D+00  E=-4.328191D-01
              MO Center= -1.4D-17,  3.0D-02,  4.5D-02, r^2= 8.4D-01
   Bfn.  Coefficient  Atom+Function         Bfn.  Coefficient  Atom+Function  
  ----- ------------  ---------------      ----- ------------  ---------------
     5      0.716028  1 O  pz                 2      0.452901  1 O  s          
     6     -0.376858  2 H  s                  7     -0.319802  3 H  s          
     4     -0.151382  1 O  py         

 Vector    5  Occ=2.000000D+00  E=-3.896732D-01
              MO Center= -1.8D-18, -2.6D-02,  1.4D-01, r^2= 4.2D-01
   Bfn.  Coefficient  Atom+Function         Bfn.  Coefficient  Atom+Function  
  ----- ------------  ---------------      ----- ------------  ---------------
     3      1.000000  1 O  px         

 Vector    6  Occ=0.000000D+00  E= 4.348430D-01
              MO Center=  6.1D-18,  2.4D-01, -3.6D-01, r^2= 1.2D+00
   Bfn.  Coefficient  Atom+Function         Bfn.  Coefficient  Atom+Function  
  ----- ------------  ---------------      ----- ------------  ---------------
     6      0.770214  2 H  s                  5      0.705105  1 O  pz         
     2     -0.586232  1 O  s                  7      0.571890  3 H  s          
     4     -0.249578  1 O  py         

 Vector    7  Occ=0.000000D+00  E= 5.324442D-01
              MO Center=  8.2D-19, -1.3D-01, -2.9D-01, r^2= 1.1D+00
   Bfn.  Coefficient  Atom+Function         Bfn.  Coefficient  Atom+Function  
  ----- ------------  ---------------      ----- ------------  ---------------
     4      0.850964  1 O  py                 7      0.809336  3 H  s          
     6     -0.582092  2 H  s                  5      0.258969  1 O  pz         


  Mulliken analysis of the total density
  --------------------------------------

    Atom       Charge   Shell Charges
 -----------   ------   -------------------------------------------------------
    1 O    8     8.22   2.00  1.89  4.33
    2 H    1     0.90   0.90
    3 H    1     0.89   0.89

     Multipole analysis of the density
     ---------------------------------

     L   x y z        total         open         nuclear
     -   - - -        -----         ----         -------
     0   0 0 0      0.000000      0.000000     10.000000

     1   1 0 0      0.000000      0.000000      0.000000
     1   0 1 0      0.081131      0.000000      0.000000
     1   0 0 1     -0.569909      0.000000      0.000000

     2   2 0 0     -4.644544      0.000000      0.000000
     2   1 1 0      0.000000      0.000000      0.000000
     2   1 0 1      0.000000      0.000000      0.000000
     2   0 2 0     -3.262833      0.000000      5.747677
     2   0 1 1      0.103615      0.000000      0.297353
     2   0 0 2     -3.961766      0.000000      3.071981


 Parallel integral file used       2 records with       0 large values

                                 NWChem SCF Module
                                 -----------------


                                       Water



  ao basis        = "ao basis"
  functions       =     7
  atoms           =     3
  closed shells   =     5
  open shells     =     0
  charge          =   0.00
  wavefunction    = RHF 
  input vectors   = ./h2o.movecs
  output vectors  = ./h2o.movecs
  use symmetry    = F
  symmetry adapt  = F


 Summary of "ao basis" -> "ao basis" (cartesian)
 ------------------------------------------------------------------------------
       Tag                 Description            Shells   Functions and Types
 ---------------- ------------------------------  ------  ---------------------
 H                           sto-3g                  1        1   1s
 O                           sto-3g                  3        5   2s1p



  The SCF is already converged 

         Total SCF energy =    -74.917815283394

                              NWChem Gradients Module
                              -----------------------


                                       Water


  wavefunction    =   RHF     


 Read molecular orbitals from ./h2o.movecs



                         RHF ENERGY GRADIENTS

    atom               coordinates                        gradient
                 x          y          z           x          y          z
   1 O       0.000000  -0.050000   0.271431    0.000000  -0.037633   0.138763
   2 H       0.000000   1.880428  -0.835722    0.000000   0.123874  -0.058627
   3 H       0.000000  -1.480428  -1.335722    0.000000  -0.086241  -0.080136

                 ----------------------------------------
                 |  Time  |  1-e(secs)   |  2-e(secs)   |
                 ----------------------------------------
                 |  CPU   |       0.00   |       0.15   |
                 ----------------------------------------
                 |  WALL  |       0.04   |       0.29   |
                 ----------------------------------------
          largest component of the gradient =      0.1366226 ( cvgopt =      0.0008000 ) 
 previous largest component of the gradient =      0.0000000
1
 nserch  nupdat   npts       func             gnorm          alpha   cvged
     0       0      1     -74.91781528     0.18044904       0.00000   F
      previous energy       0.00000000
   energy convergence     -74.91781528
1 nserch  1

   point  2


                         Geometry "geometry" -> "geometry"
                         ---------------------------------

 Output coordinates in a.u. (scale by  1.000000000 to convert to a.u.)

  No.       Tag          Charge          X              Y              Z
 ---- ---------------- ---------- -------------- -------------- --------------
    1 O                    8.0000     0.00000000     0.02104555     0.08342014
    2 H                    1.0000     0.00000000     1.41747696    -0.79060243
    3 H                    1.0000     0.00000000    -1.08852251    -1.19283143

      Atomic Mass 
      ----------- 

      O                 15.994910
      H                  1.007825


 Effective nuclear repulsion energy (a.u.)       9.9806608294

            Nuclear Dipole moment (a.u.) 
            ----------------------------
        X                 Y               Z
 ---------------- ---------------- ----------------
     0.0000000000     0.4973188298    -1.3160727731


                      --------------------
                      internal coordinates
                      --------------------
  no.    type     -i-   -j-   -k-   -l-   -m-       value  
  ---------------------------------------------------------
    1  STRETCH     1     2                          0.87177
    2  STRETCH     1     3                          0.89491
    3  BEND        2     1     3                   98.96123


                                 NWChem SCF Module
                                 -----------------


                                       Water



  ao basis        = "ao basis"
  functions       =     7
  atoms           =     3
  closed shells   =     5
  open shells     =     0
  charge          =   0.00
  wavefunction    = RHF 
  input vectors   = ./h2o.movecs
  output vectors  = ./h2o.movecs
  use symmetry    = F
  symmetry adapt  = F


 Summary of "ao basis" -> "ao basis" (cartesian)
 ------------------------------------------------------------------------------
       Tag                 Description            Shells   Functions and Types
 ---------------- ------------------------------  ------  ---------------------
 H                           sto-3g                  1        1   1s
 O                           sto-3g                  3        5   2s1p



 Forming initial guess at       1.5s


 Read molecular orbitals from ./h2o.movecs


 Loading old vectors from job with title :

Water


 Starting SCF solution at       1.5s



 ----------------------------------------------
         Quadratically convergent ROHF

 Convergence threshold     :          1.000E-04
 Maximum no. of iterations :           20
 Final Fock-matrix accuracy:          1.000E-07
 ----------------------------------------------


 #quartets = 1.200D+02 #integrals = 2.600D+02 #direct =  0.0% #cached =100.0%


 Integral file          = ./h2o.aoints.0
 Record size in doubles =  32769        No. of integs per rec  =  21844
 Max. records in memory =      2        Max. records in file   = ******
 No. of bits per label  =      8        No. of bits per value  =     64


              iter       energy          gnorm     gmax       time
             ----- ------------------- --------- --------- --------
                 1      -74.9224416253  4.05D-01  2.71D-01      1.1
                 2      -74.9331689522  7.77D-02  5.57D-02      1.2
                 3      -74.9340826655  7.32D-04  4.07D-04      1.2
                 4      -74.9340827097  1.31D-06  9.21D-07      1.3


       Final RHF  results 
       ------------------ 

         Total SCF energy =    -74.934082709725
      One-electron energy =   -123.656838087395
      Two-electron energy =     38.742094548300
 Nuclear repulsion energy =      9.980660829370

        Time for solution =      0.2s


             Final eigenvalues
             -----------------

              1      
    1  -20.2419
    2   -1.3189
    3   -0.6480
    4   -0.4754
    5   -0.4020
    6    0.6887
    7    0.8210

                       ROHF Final Molecular Orbital Analysis
                       -------------------------------------

 Vector    2  Occ=2.000000D+00  E=-1.318894D+00
              MO Center= -2.0D-18,  5.3D-02, -1.7D-01, r^2= 5.2D-01
   Bfn.  Coefficient  Atom+Function         Bfn.  Coefficient  Atom+Function  
  ----- ------------  ---------------      ----- ------------  ---------------
     2      0.805180  1 O  s                  1     -0.229628  1 O  s          
     6      0.165478  2 H  s                  5     -0.162068  1 O  pz         
     7      0.156019  3 H  s          

 Vector    3  Occ=2.000000D+00  E=-6.480161D-01
              MO Center=  2.7D-19,  3.3D-02, -2.0D-01, r^2= 7.6D-01
   Bfn.  Coefficient  Atom+Function         Bfn.  Coefficient  Atom+Function  
  ----- ------------  ---------------      ----- ------------  ---------------
     4      0.613179  1 O  py                 7     -0.445513  3 H  s          
     6      0.442579  2 H  s          

 Vector    4  Occ=2.000000D+00  E=-4.754457D-01
              MO Center=  2.9D-17, -6.2D-03,  1.3D-01, r^2= 5.6D-01
   Bfn.  Coefficient  Atom+Function         Bfn.  Coefficient  Atom+Function  
  ----- ------------  ---------------      ----- ------------  ---------------
     5      0.768532  1 O  pz                 2      0.576012  1 O  s          
     7     -0.259338  3 H  s                  6     -0.246561  2 H  s          

 Vector    5  Occ=2.000000D+00  E=-4.020221D-01
              MO Center= -3.1D-17,  1.1D-02,  4.4D-02, r^2= 4.2D-01
   Bfn.  Coefficient  Atom+Function         Bfn.  Coefficient  Atom+Function  
  ----- ------------  ---------------      ----- ------------  ---------------
     3      1.000000  1 O  px         

 Vector    6  Occ=0.000000D+00  E= 6.886547D-01
              MO Center=  3.3D-18, -2.6D-02, -4.9D-01, r^2= 1.0D+00
   Bfn.  Coefficient  Atom+Function         Bfn.  Coefficient  Atom+Function  
  ----- ------------  ---------------      ----- ------------  ---------------
     2      1.003932  1 O  s                  7     -0.931585  3 H  s          
     5     -0.782842  1 O  pz                 6     -0.757357  2 H  s          

 Vector    7  Occ=0.000000D+00  E= 8.209930D-01
              MO Center=  3.8D-19,  1.7D-01, -3.0D-01, r^2= 9.4D-01
   Bfn.  Coefficient  Atom+Function         Bfn.  Coefficient  Atom+Function  
  ----- ------------  ---------------      ----- ------------  ---------------
     6      1.019736  2 H  s                  4     -1.016057  1 O  py         
     7     -0.814049  3 H  s          


  Mulliken analysis of the total density
  --------------------------------------

    Atom       Charge   Shell Charges
 -----------   ------   -------------------------------------------------------
    1 O    8     8.44   2.00  1.82  4.62
    2 H    1     0.78   0.78
    3 H    1     0.79   0.79

     Multipole analysis of the density
     ---------------------------------

     L   x y z        total         open         nuclear
     -   - - -        -----         ----         -------
     0   0 0 0      0.000000      0.000000     10.000000

     1   1 0 0      0.000000      0.000000      0.000000
     1   0 1 0      0.112491      0.000000      0.497319
     1   0 0 1     -0.724371      0.000000     -1.316073

     2   2 0 0     -4.482584      0.000000      0.000000
     2   1 1 0      0.000000      0.000000      0.000000
     2   1 0 1      0.000000      0.000000      0.000000
     2   0 2 0     -3.392034      0.000000      3.197666
     2   0 1 1      0.040420      0.000000      0.191808
     2   0 0 2     -3.737476      0.000000      2.103570


 Parallel integral file used       2 records with       0 large values

1 nserch  1

   point  3


                         Geometry "geometry" -> "geometry"
                         ---------------------------------

 Output coordinates in a.u. (scale by  1.000000000 to convert to a.u.)

  No.       Tag          Charge          X              Y              Z
 ---- ---------------- ---------- -------------- -------------- --------------
    1 O                    8.0000     0.00000000    -0.00650766     0.15633518
    2 H                    1.0000     0.00000000     1.59702078    -0.80810095
    3 H                    1.0000     0.00000000    -1.24051312    -1.24824795

      Atomic Mass 
      ----------- 

      O                 15.994910
      H                  1.007825


 Effective nuclear repulsion energy (a.u.)       8.9024101527

            Nuclear Dipole moment (a.u.) 
            ----------------------------
        X                 Y               Z
 ---------------- ---------------- ----------------
     0.0000000000     0.3044463774    -0.8056674393


                      --------------------
                      internal coordinates
                      --------------------
  no.    type     -i-   -j-   -k-   -l-   -m-       value  
  ---------------------------------------------------------
    1  STRETCH     1     2                          0.99020
    2  STRETCH     1     3                          0.98938
    3  BEND        2     1     3                  100.27648


                                 NWChem SCF Module
                                 -----------------


                                       Water



  ao basis        = "ao basis"
  functions       =     7
  atoms           =     3
  closed shells   =     5
  open shells     =     0
  charge          =   0.00
  wavefunction    = RHF 
  input vectors   = ./h2o.movecs
  output vectors  = ./h2o.movecs
  use symmetry    = F
  symmetry adapt  = F


 Summary of "ao basis" -> "ao basis" (cartesian)
 ------------------------------------------------------------------------------
       Tag                 Description            Shells   Functions and Types
 ---------------- ------------------------------  ------  ---------------------
 H                           sto-3g                  1        1   1s
 O                           sto-3g                  3        5   2s1p



 Forming initial guess at       1.9s


 Read molecular orbitals from ./h2o.movecs


 Loading old vectors from job with title :

Water


 Starting SCF solution at       2.0s



 ----------------------------------------------
         Quadratically convergent ROHF

 Convergence threshold     :          1.000E-04
 Maximum no. of iterations :           20
 Final Fock-matrix accuracy:          1.000E-07
 ----------------------------------------------


 #quartets = 1.200D+02 #integrals = 2.600D+02 #direct =  0.0% #cached =100.0%


 Integral file          = ./h2o.aoints.0
 Record size in doubles =  32769        No. of integs per rec  =  21844
 Max. records in memory =      2        Max. records in file   = ******
 No. of bits per label  =      8        No. of bits per value  =     64


              iter       energy          gnorm     gmax       time
             ----- ------------------- --------- --------- --------
                 1      -74.9629715158  2.05D-01  1.32D-01      1.5
                 2      -74.9656874834  3.64D-02  2.60D-02      1.5
                 3      -74.9658973668  6.56D-04  4.21D-04      1.5
                 4      -74.9658974024  4.51D-06  3.45D-06      1.6


       Final RHF  results 
       ------------------ 

         Total SCF energy =    -74.965897402376
      One-electron energy =   -121.828484664899
      Two-electron energy =     37.960177109802
 Nuclear repulsion energy =      8.902410152721

        Time for solution =      0.2s


             Final eigenvalues
             -----------------

              1      
    1  -20.2513
    2   -1.2571
    3   -0.5941
    4   -0.4591
    5   -0.3924
    6    0.5811
    7    0.6929

                       ROHF Final Molecular Orbital Analysis
                       -------------------------------------

 Vector    2  Occ=2.000000D+00  E=-1.257100D+00
              MO Center=  2.7D-18,  2.5D-02, -1.0D-01, r^2= 5.4D-01
   Bfn.  Coefficient  Atom+Function         Bfn.  Coefficient  Atom+Function  
  ----- ------------  ---------------      ----- ------------  ---------------
     2      0.844657  1 O  s                  1     -0.233803  1 O  s          
     7      0.155746  3 H  s                  6      0.155437  2 H  s          

 Vector    3  Occ=2.000000D+00  E=-5.940968D-01
              MO Center= -9.2D-21,  4.0D-02, -2.0D-01, r^2= 8.5D-01
   Bfn.  Coefficient  Atom+Function         Bfn.  Coefficient  Atom+Function  
  ----- ------------  ---------------      ----- ------------  ---------------
     4      0.604923  1 O  py                 7     -0.449184  3 H  s          
     6      0.449058  2 H  s          

 Vector    4  Occ=2.000000D+00  E=-4.591016D-01
              MO Center=  2.5D-17, -5.1D-03,  9.5D-02, r^2= 6.6D-01
   Bfn.  Coefficient  Atom+Function         Bfn.  Coefficient  Atom+Function  
  ----- ------------  ---------------      ----- ------------  ---------------
     5      0.747540  1 O  pz                 2      0.537328  1 O  s          
     6     -0.295328  2 H  s                  7     -0.294655  3 H  s          

 Vector    5  Occ=2.000000D+00  E=-3.924334D-01
              MO Center= -3.2D-17, -3.4D-03,  8.3D-02, r^2= 4.2D-01
   Bfn.  Coefficient  Atom+Function         Bfn.  Coefficient  Atom+Function  
  ----- ------------  ---------------      ----- ------------  ---------------
     3      1.000000  1 O  px         

 Vector    6  Occ=0.000000D+00  E= 5.810504D-01
              MO Center=  3.8D-18,  8.2D-02, -4.4D-01, r^2= 1.1D+00
   Bfn.  Coefficient  Atom+Function         Bfn.  Coefficient  Atom+Function  
  ----- ------------  ---------------      ----- ------------  ---------------
     2      0.820099  1 O  s                  6     -0.771997  2 H  s          
     7     -0.766465  3 H  s                  5     -0.752673  1 O  pz         

 Vector    7  Occ=0.000000D+00  E= 6.928997D-01
              MO Center= -1.4D-20,  5.1D-02, -2.9D-01, r^2= 1.0D+00
   Bfn.  Coefficient  Atom+Function         Bfn.  Coefficient  Atom+Function  
  ----- ------------  ---------------      ----- ------------  ---------------
     4      0.948466  1 O  py                 7      0.817250  3 H  s          
     6     -0.810850  2 H  s                  5      0.150532  1 O  pz         


  Mulliken analysis of the total density
  --------------------------------------

    Atom       Charge   Shell Charges
 -----------   ------   -------------------------------------------------------
    1 O    8     8.33   2.00  1.85  4.48
    2 H    1     0.83   0.83
    3 H    1     0.83   0.83

     Multipole analysis of the density
     ---------------------------------

     L   x y z        total         open         nuclear
     -   - - -        -----         ----         -------
     0   0 0 0      0.000000      0.000000     10.000000

     1   1 0 0      0.000000      0.000000      0.000000
     1   0 1 0      0.102990      0.000000      0.304446
     1   0 0 1     -0.663739      0.000000     -0.805667

     2   2 0 0     -4.554386      0.000000      0.000000
     2   1 1 0      0.000000      0.000000      0.000000
     2   1 0 1      0.000000      0.000000      0.000000
     2   0 2 0     -3.337721      0.000000      4.089687
     2   0 1 1      0.068133      0.000000      0.249775
     2   0 0 2     -3.845898      0.000000      2.406676


 Parallel integral file used       2 records with       0 large values

                                 NWChem SCF Module
                                 -----------------


                                       Water



  ao basis        = "ao basis"
  functions       =     7
  atoms           =     3
  closed shells   =     5
  open shells     =     0
  charge          =   0.00
  wavefunction    = RHF 
  input vectors   = ./h2o.movecs
  output vectors  = ./h2o.movecs
  use symmetry    = F
  symmetry adapt  = F


 Summary of "ao basis" -> "ao basis" (cartesian)
 ------------------------------------------------------------------------------
       Tag                 Description            Shells   Functions and Types
 ---------------- ------------------------------  ------  ---------------------
 H                           sto-3g                  1        1   1s
 O                           sto-3g                  3        5   2s1p



  The SCF is already converged 

         Total SCF energy =    -74.965897402376

                              NWChem Gradients Module
                              -----------------------


                                       Water


  wavefunction    =   RHF     


 Read molecular orbitals from ./h2o.movecs



                         RHF ENERGY GRADIENTS

    atom               coordinates                        gradient
                 x          y          z           x          y          z
   1 O       0.000000  -0.006508   0.156335    0.000000  -0.000757  -0.000438
   2 H       0.000000   1.597021  -0.808101    0.000000   0.001352   0.000025
   3 H       0.000000  -1.240513  -1.248248    0.000000  -0.000595   0.000413

                 ----------------------------------------
                 |  Time  |  1-e(secs)   |  2-e(secs)   |
                 ----------------------------------------
                 |  CPU   |       0.00   |       0.12   |
                 ----------------------------------------
                 |  WALL  |       0.04   |       0.32   |
                 ----------------------------------------
          largest component of the gradient =      0.0011452 ( cvgopt =      0.0008000 ) 
 previous largest component of the gradient =      0.1366226
1
 nserch  nupdat   npts       func             gnorm          alpha   cvged
     1       1      3     -74.96589740     0.00135075       0.61218   F
      previous energy     -74.91781528
   energy convergence      -0.04808212
1 nserch  2

   point  4


                         Geometry "geometry" -> "geometry"
                         ---------------------------------

 Output coordinates in a.u. (scale by  1.000000000 to convert to a.u.)

  No.       Tag          Charge          X              Y              Z
 ---- ---------------- ---------- -------------- -------------- --------------
    1 O                    8.0000     0.00000000    -0.00537768     0.15678333
    2 H                    1.0000     0.00000000     1.59455285    -0.80811932
    3 H                    1.0000     0.00000000    -1.23917516    -1.24867773

      Atomic Mass 
      ----------- 

      O                 15.994910
      H                  1.007825


 Effective nuclear repulsion energy (a.u.)       8.9081657594

            Nuclear Dipole moment (a.u.) 
            ----------------------------
        X                 Y               Z
 ---------------- ---------------- ----------------
     0.0000000000     0.3123562149    -0.8025304059


                      --------------------
                      internal coordinates
                      --------------------
  no.    type     -i-   -j-   -k-   -l-   -m-       value  
  ---------------------------------------------------------
    1  STRETCH     1     2                          0.98870
    2  STRETCH     1     3                          0.98966
    3  BEND        2     1     3                  100.18482


                                 NWChem SCF Module
                                 -----------------


                                       Water



  ao basis        = "ao basis"
  functions       =     7
  atoms           =     3
  closed shells   =     5
  open shells     =     0
  charge          =   0.00
  wavefunction    = RHF 
  input vectors   = ./h2o.movecs
  output vectors  = ./h2o.movecs
  use symmetry    = F
  symmetry adapt  = F


 Summary of "ao basis" -> "ao basis" (cartesian)
 ------------------------------------------------------------------------------
       Tag                 Description            Shells   Functions and Types
 ---------------- ------------------------------  ------  ---------------------
 H                           sto-3g                  1        1   1s
 O                           sto-3g                  3        5   2s1p



 Forming initial guess at       2.9s


 Read molecular orbitals from ./h2o.movecs


 Loading old vectors from job with title :

Water


 Starting SCF solution at       3.0s



 ----------------------------------------------
         Quadratically convergent ROHF

 Convergence threshold     :          1.000E-04
 Maximum no. of iterations :           20
 Final Fock-matrix accuracy:          1.000E-07
 ----------------------------------------------


 #quartets = 1.200D+02 #integrals = 2.600D+02 #direct =  0.0% #cached =100.0%


 Integral file          = ./h2o.aoints.0
 Record size in doubles =  32769        No. of integs per rec  =  21844
 Max. records in memory =      2        Max. records in file   = ******
 No. of bits per label  =      8        No. of bits per value  =     64


              iter       energy          gnorm     gmax       time
             ----- ------------------- --------- --------- --------
                 1      -74.9658993446  1.55D-03  9.88D-04      2.0
                 2      -74.9658994761  6.35D-06  4.30D-06      2.1


       Final RHF  results 
       ------------------ 

         Total SCF energy =    -74.965899476079
      One-electron energy =   -121.838112282921
      Two-electron energy =     37.964047047399
 Nuclear repulsion energy =      8.908165759443

        Time for solution =      0.1s


             Final eigenvalues
             -----------------

              1      
    1  -20.2514
    2   -1.2575
    3   -0.5942
    4   -0.4594
    5   -0.3925
    6    0.5818
    7    0.6934

                       ROHF Final Molecular Orbital Analysis
                       -------------------------------------

 Vector    2  Occ=2.000000D+00  E=-1.257491D+00
              MO Center=  2.7D-18,  2.6D-02, -1.0D-01, r^2= 5.4D-01
   Bfn.  Coefficient  Atom+Function         Bfn.  Coefficient  Atom+Function  
  ----- ------------  ---------------      ----- ------------  ---------------
     2      0.844402  1 O  s                  1     -0.233768  1 O  s          
     6      0.155813  2 H  s                  7      0.155452  3 H  s          

 Vector    3  Occ=2.000000D+00  E=-5.942436D-01
              MO Center=  1.1D-20,  4.0D-02, -1.9D-01, r^2= 8.5D-01
   Bfn.  Coefficient  Atom+Function         Bfn.  Coefficient  Atom+Function  
  ----- ------------  ---------------      ----- ------------  ---------------
     4      0.605287  1 O  py                 6      0.449209  2 H  s          
     7     -0.449062  3 H  s          

 Vector    4  Occ=2.000000D+00  E=-4.593909D-01
              MO Center=  2.5D-17, -5.2D-03,  9.6D-02, r^2= 6.6D-01
   Bfn.  Coefficient  Atom+Function         Bfn.  Coefficient  Atom+Function  
  ----- ------------  ---------------      ----- ------------  ---------------
     5      0.747549  1 O  pz                 2      0.537825  1 O  s          
     7     -0.295249  3 H  s                  6     -0.294460  2 H  s          

 Vector    5  Occ=2.000000D+00  E=-3.925233D-01
              MO Center= -3.2D-17, -2.8D-03,  8.3D-02, r^2= 4.2D-01
   Bfn.  Coefficient  Atom+Function         Bfn.  Coefficient  Atom+Function  
  ----- ------------  ---------------      ----- ------------  ---------------
     3      1.000000  1 O  px         

 Vector    6  Occ=0.000000D+00  E= 5.817717D-01
              MO Center=  3.7D-18,  7.3D-02, -4.4D-01, r^2= 1.1D+00
   Bfn.  Coefficient  Atom+Function         Bfn.  Coefficient  Atom+Function  
  ----- ------------  ---------------      ----- ------------  ---------------
     2      0.820875  1 O  s                  7     -0.772747  3 H  s          
     6     -0.766292  2 H  s                  5     -0.754389  1 O  pz         

 Vector    7  Occ=0.000000D+00  E= 6.933506D-01
              MO Center=  1.7D-20,  6.0D-02, -2.9D-01, r^2= 1.0D+00
   Bfn.  Coefficient  Atom+Function         Bfn.  Coefficient  Atom+Function  
  ----- ------------  ---------------      ----- ------------  ---------------
     4      0.949582  1 O  py                 6     -0.818391  2 H  s          
     7      0.810926  3 H  s          


  Mulliken analysis of the total density
  --------------------------------------

    Atom       Charge   Shell Charges
 -----------   ------   -------------------------------------------------------
    1 O    8     8.33   2.00  1.85  4.48
    2 H    1     0.83   0.83
    3 H    1     0.83   0.83

     Multipole analysis of the density
     ---------------------------------

     L   x y z        total         open         nuclear
     -   - - -        -----         ----         -------
     0   0 0 0      0.000000      0.000000     10.000000

     1   1 0 0      0.000000      0.000000      0.000000
     1   0 1 0      0.103239      0.000000      0.312356
     1   0 0 1     -0.664253      0.000000     -0.802530

     2   2 0 0     -4.554051      0.000000      0.000000
     2   1 1 0      0.000000      0.000000      0.000000
     2   1 0 1      0.000000      0.000000      0.000000
     2   0 2 0     -3.339911      0.000000      4.078385
     2   0 1 1      0.067572      0.000000      0.251996
     2   0 0 2     -3.845157      0.000000      2.408901


 Parallel integral file used       2 records with       0 large values

                                 NWChem SCF Module
                                 -----------------


                                       Water



  ao basis        = "ao basis"
  functions       =     7
  atoms           =     3
  closed shells   =     5
  open shells     =     0
  charge          =   0.00
  wavefunction    = RHF 
  input vectors   = ./h2o.movecs
  output vectors  = ./h2o.movecs
  use symmetry    = F
  symmetry adapt  = F


 Summary of "ao basis" -> "ao basis" (cartesian)
 ------------------------------------------------------------------------------
       Tag                 Description            Shells   Functions and Types
 ---------------- ------------------------------  ------  ---------------------
 H                           sto-3g                  1        1   1s
 O                           sto-3g                  3        5   2s1p



  The SCF is already converged 

         Total SCF energy =    -74.965899476079

                              NWChem Gradients Module
                              -----------------------


                                       Water


  wavefunction    =   RHF     


 Read molecular orbitals from ./h2o.movecs



                         RHF ENERGY GRADIENTS

    atom               coordinates                        gradient
                 x          y          z           x          y          z
   1 O       0.000000  -0.005378   0.156783    0.000000   0.001072  -0.000704
   2 H       0.000000   1.594553  -0.808119    0.000000  -0.000459   0.000766
   3 H       0.000000  -1.239175  -1.248678    0.000000  -0.000613  -0.000062

                 ----------------------------------------
                 |  Time  |  1-e(secs)   |  2-e(secs)   |
                 ----------------------------------------
                 |  CPU   |       0.00   |       0.12   |
                 ----------------------------------------
                 |  WALL  |       0.03   |       0.30   |
                 ----------------------------------------
          largest component of the gradient =      0.0007887 ( cvgopt =      0.0008000 ) 
 previous largest component of the gradient =      0.0011452
1
 nserch  nupdat   npts       func             gnorm          alpha   cvged
     2       2      4     -74.96589948     0.00099894       0.78242   T
      previous energy     -74.96589740
   energy convergence      -0.00000207

          ----------------------
          Optimization converged
          ----------------------


                         Geometry "geometry" -> "geometry"
                         ---------------------------------

 Output coordinates in a.u. (scale by  1.000000000 to convert to a.u.)

  No.       Tag          Charge          X              Y              Z
 ---- ---------------- ---------- -------------- -------------- --------------
    1 O                    8.0000     0.00000000    -0.00537768     0.15678333
    2 H                    1.0000     0.00000000     1.59455285    -0.80811932
    3 H                    1.0000     0.00000000    -1.23917516    -1.24867773

      Atomic Mass 
      ----------- 

      O                 15.994910
      H                  1.007825


 Effective nuclear repulsion energy (a.u.)       8.9081657594

            Nuclear Dipole moment (a.u.) 
            ----------------------------
        X                 Y               Z
 ---------------- ---------------- ----------------
     0.0000000000     0.3123562149    -0.8025304059

 ===============================================================================
                                internuclear distances
 -------------------------------------------------------------------------------
       center one      |      center two      | atomic units |       a.u.
 -------------------------------------------------------------------------------
    2 H                |   1 O                |     1.86837  |     1.86837
    3 H                |   1 O                |     1.87018  |     1.87018
 -------------------------------------------------------------------------------
                         number of included internuclear distances:          2
 ===============================================================================



 ===============================================================================
                                 internuclear angles
 -------------------------------------------------------------------------------
        center 1       |       center 2       |       center 3       |  degrees
 -------------------------------------------------------------------------------
    2 H                |   1 O                |   3 H                |   100.18
 -------------------------------------------------------------------------------
                            number of included internuclear angles:          1
 ===============================================================================




 Task  times  cpu:        2.1s     wall:        3.4s


                                NWChem Input Module
                                -------------------




                   NWChem Nuclear Hessian and Frequency Analysis
                   ---------------------------------------------



                         NWChem Finite-difference Hessian
                         --------------------------------


                                 NWChem SCF Module
                                 -----------------


                                       Water



  ao basis        = "ao basis"
  functions       =     7
  atoms           =     3
  closed shells   =     5
  open shells     =     0
  charge          =   0.00
  wavefunction    = RHF 
  input vectors   = ./h2o.movecs
  output vectors  = ./h2o.movecs
  use symmetry    = F
  symmetry adapt  = F


 Summary of "ao basis" -> "ao basis" (cartesian)
 ------------------------------------------------------------------------------
       Tag                 Description            Shells   Functions and Types
 ---------------- ------------------------------  ------  ---------------------
 H                           sto-3g                  1        1   1s
 O                           sto-3g                  3        5   2s1p



  The SCF is already converged 

         Total SCF energy =    -74.965899476079


 Saving state for scf with suffix hess
        ./h2o.movecs

  iatom =                     1 ixyz =                     1 plus 
                                 NWChem SCF Module
                                 -----------------


                                       Water



  ao basis        = "ao basis"
  functions       =     7
  atoms           =     3
  closed shells   =     5
  open shells     =     0
  charge          =   0.00
  wavefunction    = RHF 
  input vectors   = ./h2o.movecs
  output vectors  = ./h2o.movecs
  use symmetry    = F
  symmetry adapt  = F


 Summary of "ao basis" -> "ao basis" (cartesian)
 ------------------------------------------------------------------------------
       Tag                 Description            Shells   Functions and Types
 ---------------- ------------------------------  ------  ---------------------
 H                           sto-3g                  1        1   1s
 O                           sto-3g                  3        5   2s1p



 Forming initial guess at       4.0s


 Read molecular orbitals from ./h2o.movecs


 Loading old vectors from job with title :

Water


 Starting SCF solution at       4.0s



 ----------------------------------------------
         Quadratically convergent ROHF

 Convergence threshold     :          1.000E-04
 Maximum no. of iterations :           20
 Final Fock-matrix accuracy:          1.000E-07
 ----------------------------------------------


 #quartets = 1.200D+02 #integrals = 3.760D+02 #direct =  0.0% #cached =100.0%


 Integral file          = ./h2o.aoints.0
 Record size in doubles =  32769        No. of integs per rec  =  21844
 Max. records in memory =      2        Max. records in file   = ******
 No. of bits per label  =      8        No. of bits per value  =     64


              iter       energy          gnorm     gmax       time
             ----- ------------------- --------- --------- --------
                 1      -74.9658993738  6.38D-04  6.38D-04      2.7
                 2      -74.9658994764  3.50D-06  1.52D-06      2.7


       Final RHF  results 
       ------------------ 

         Total SCF energy =    -74.965899476443
      One-electron energy =   -121.838103679744
      Two-electron energy =     37.964039668671
 Nuclear repulsion energy =      8.908164534630

        Time for solution =      0.1s


             Final eigenvalues
             -----------------

              1      
    1  -20.2514
    2   -1.2575
    3   -0.5942
    4   -0.4594
    5   -0.3925
    6    0.5818
    7    0.6933

                       ROHF Final Molecular Orbital Analysis
                       -------------------------------------

 Vector    2  Occ=2.000000D+00  E=-1.257491D+00
              MO Center=  3.7D-04,  2.6D-02, -1.0D-01, r^2= 5.4D-01
   Bfn.  Coefficient  Atom+Function         Bfn.  Coefficient  Atom+Function  
  ----- ------------  ---------------      ----- ------------  ---------------
     2      0.844402  1 O  s                  1     -0.233768  1 O  s          
     6      0.155812  2 H  s                  7      0.155453  3 H  s          

 Vector    3  Occ=2.000000D+00  E=-5.942439D-01
              MO Center=  2.9D-04,  4.0D-02, -1.9D-01, r^2= 8.5D-01
   Bfn.  Coefficient  Atom+Function         Bfn.  Coefficient  Atom+Function  
  ----- ------------  ---------------      ----- ------------  ---------------
     4      0.605287  1 O  py                 6      0.449208  2 H  s          
     7     -0.449062  3 H  s          

 Vector    4  Occ=2.000000D+00  E=-4.593912D-01
              MO Center=  5.4D-04, -5.2D-03,  9.6D-02, r^2= 6.6D-01
   Bfn.  Coefficient  Atom+Function         Bfn.  Coefficient  Atom+Function  
  ----- ------------  ---------------      ----- ------------  ---------------
     5      0.747548  1 O  pz                 2      0.537826  1 O  s          
     7     -0.295247  3 H  s                  6     -0.294464  2 H  s          

 Vector    5  Occ=2.000000D+00  E=-3.925240D-01
              MO Center=  5.3D-04, -2.8D-03,  8.3D-02, r^2= 4.2D-01
   Bfn.  Coefficient  Atom+Function         Bfn.  Coefficient  Atom+Function  
  ----- ------------  ---------------      ----- ------------  ---------------
     3      1.000000  1 O  px         

 Vector    6  Occ=0.000000D+00  E= 5.817714D-01
              MO Center=  8.8D-05,  7.3D-02, -4.4D-01, r^2= 1.1D+00
   Bfn.  Coefficient  Atom+Function         Bfn.  Coefficient  Atom+Function  
  ----- ------------  ---------------      ----- ------------  ---------------
     2      0.820874  1 O  s                  7     -0.772750  3 H  s          
     6     -0.766288  2 H  s                  5     -0.754391  1 O  pz         

 Vector    7  Occ=0.000000D+00  E= 6.933500D-01
              MO Center=  2.1D-04,  6.0D-02, -2.9D-01, r^2= 1.0D+00
   Bfn.  Coefficient  Atom+Function         Bfn.  Coefficient  Atom+Function  
  ----- ------------  ---------------      ----- ------------  ---------------
     4      0.949583  1 O  py                 6     -0.818394  2 H  s          
     7      0.810923  3 H  s          


  Mulliken analysis of the total density
  --------------------------------------

    Atom       Charge   Shell Charges
 -----------   ------   -------------------------------------------------------
    1 O    8     8.33   2.00  1.85  4.48
    2 H    1     0.83   0.83
    3 H    1     0.83   0.83

     Multipole analysis of the density
     ---------------------------------

     L   x y z        total         open         nuclear
     -   - - -        -----         ----         -------
     0   0 0 0      0.000000      0.000000     10.000000

     1   1 0 0     -0.000561      0.000000      0.008000
     1   0 1 0      0.103231      0.000000      0.312356
     1   0 0 1     -0.664252      0.000000     -0.802530

     2   2 0 0     -4.554052      0.000000      0.000008
     2   1 1 0     -0.000010      0.000000     -0.000043
     2   1 0 1     -0.000003      0.000000      0.001254
     2   0 2 0     -3.339918      0.000000      4.078385
     2   0 1 1      0.067577      0.000000      0.251996
     2   0 0 2     -3.845158      0.000000      2.408901


 Parallel integral file used       2 records with       0 large values

                              NWChem Gradients Module
                              -----------------------


                                       Water


  wavefunction    =   RHF     

  gradient active actoms    1

 Read molecular orbitals from ./h2o.movecs



                         RHF ENERGY GRADIENTS

    atom               coordinates                        gradient
                 x          y          z           x          y          z
   1 O       0.001000  -0.005378   0.156783   -0.000001   0.001072  -0.000705
   2 H       0.000000   1.594553  -0.808119    0.000000   0.000000   0.000000
   3 H       0.000000  -1.239175  -1.248678    0.000000   0.000000   0.000000

                 ----------------------------------------
                 |  Time  |  1-e(secs)   |  2-e(secs)   |
                 ----------------------------------------
                 |  CPU   |       0.00   |       0.14   |
                 ----------------------------------------
                 |  WALL  |       0.04   |       0.30   |
                 ----------------------------------------
  iatom =                     1 ixyz =                     1 minus
                                 NWChem SCF Module
                                 -----------------


                                       Water



  ao basis        = "ao basis"
  functions       =     7
  atoms           =     3
  closed shells   =     5
  open shells     =     0
  charge          =   0.00
  wavefunction    = RHF 
  input vectors   = ./h2o.movecs
  output vectors  = ./h2o.movecs
  use symmetry    = F
  symmetry adapt  = F


 Summary of "ao basis" -> "ao basis" (cartesian)
 ------------------------------------------------------------------------------
       Tag                 Description            Shells   Functions and Types
 ---------------- ------------------------------  ------  ---------------------
 H                           sto-3g                  1        1   1s
 O                           sto-3g                  3        5   2s1p



 Forming initial guess at       4.8s


 Read molecular orbitals from ./h2o.movecs


 Loading old vectors from job with title :

Water


 Starting SCF solution at       4.8s



 ----------------------------------------------
         Quadratically convergent ROHF

 Convergence threshold     :          1.000E-04
 Maximum no. of iterations :           20
 Final Fock-matrix accuracy:          1.000E-07
 ----------------------------------------------


 #quartets = 1.200D+02 #integrals = 3.760D+02 #direct =  0.0% #cached =100.0%


 Integral file          = ./h2o.aoints.0
 Record size in doubles =  32769        No. of integs per rec  =  21844
 Max. records in memory =      2        Max. records in file   = ******
 No. of bits per label  =      8        No. of bits per value  =     64


              iter       energy          gnorm     gmax       time
             ----- ------------------- --------- --------- --------
                 1      -74.9658993738  6.38D-04  6.38D-04      3.2
                 2      -74.9658994764  3.50D-06  1.52D-06      3.2


       Final RHF  results 
       ------------------ 

         Total SCF energy =    -74.965899476443
      One-electron energy =   -121.838103679744
      Two-electron energy =     37.964039668671
 Nuclear repulsion energy =      8.908164534630

        Time for solution =      0.1s


             Final eigenvalues
             -----------------

              1      
    1  -20.2514
    2   -1.2575
    3   -0.5942
    4   -0.4594
    5   -0.3925
    6    0.5818
    7    0.6933

                       ROHF Final Molecular Orbital Analysis
                       -------------------------------------

 Vector    2  Occ=2.000000D+00  E=-1.257491D+00
              MO Center= -3.7D-04,  2.6D-02, -1.0D-01, r^2= 5.4D-01
   Bfn.  Coefficient  Atom+Function         Bfn.  Coefficient  Atom+Function  
  ----- ------------  ---------------      ----- ------------  ---------------
     2      0.844402  1 O  s                  1     -0.233768  1 O  s          
     6      0.155812  2 H  s                  7      0.155453  3 H  s          

 Vector    3  Occ=2.000000D+00  E=-5.942439D-01
              MO Center= -2.9D-04,  4.0D-02, -1.9D-01, r^2= 8.5D-01
   Bfn.  Coefficient  Atom+Function         Bfn.  Coefficient  Atom+Function  
  ----- ------------  ---------------      ----- ------------  ---------------
     4      0.605287  1 O  py                 6      0.449208  2 H  s          
     7     -0.449062  3 H  s          

 Vector    4  Occ=2.000000D+00  E=-4.593912D-01
              MO Center= -5.4D-04, -5.2D-03,  9.6D-02, r^2= 6.6D-01
   Bfn.  Coefficient  Atom+Function         Bfn.  Coefficient  Atom+Function  
  ----- ------------  ---------------      ----- ------------  ---------------
     5      0.747548  1 O  pz                 2      0.537826  1 O  s          
     7     -0.295247  3 H  s                  6     -0.294464  2 H  s          

 Vector    5  Occ=2.000000D+00  E=-3.925240D-01
              MO Center= -5.3D-04, -2.8D-03,  8.3D-02, r^2= 4.2D-01
   Bfn.  Coefficient  Atom+Function         Bfn.  Coefficient  Atom+Function  
  ----- ------------  ---------------      ----- ------------  ---------------
     3      1.000000  1 O  px         

 Vector    6  Occ=0.000000D+00  E= 5.817714D-01
              MO Center= -8.8D-05,  7.3D-02, -4.4D-01, r^2= 1.1D+00
   Bfn.  Coefficient  Atom+Function         Bfn.  Coefficient  Atom+Function  
  ----- ------------  ---------------      ----- ------------  ---------------
     2      0.820874  1 O  s                  7     -0.772750  3 H  s          
     6     -0.766288  2 H  s                  5     -0.754391  1 O  pz         

 Vector    7  Occ=0.000000D+00  E= 6.933500D-01
              MO Center= -2.1D-04,  6.0D-02, -2.9D-01, r^2= 1.0D+00
   Bfn.  Coefficient  Atom+Function         Bfn.  Coefficient  Atom+Function  
  ----- ------------  ---------------      ----- ------------  ---------------
     4      0.949583  1 O  py                 6     -0.818394  2 H  s          
     7      0.810923  3 H  s          


  Mulliken analysis of the total density
  --------------------------------------

    Atom       Charge   Shell Charges
 -----------   ------   -------------------------------------------------------
    1 O    8     8.33   2.00  1.85  4.48
    2 H    1     0.83   0.83
    3 H    1     0.83   0.83

     Multipole analysis of the density
     ---------------------------------

     L   x y z        total         open         nuclear
     -   - - -        -----         ----         -------
     0   0 0 0      0.000000      0.000000     10.000000

     1   1 0 0      0.000561      0.000000     -0.008000
     1   0 1 0      0.103231      0.000000      0.312356
     1   0 0 1     -0.664252      0.000000     -0.802530

     2   2 0 0     -4.554052      0.000000      0.000008
     2   1 1 0      0.000010      0.000000      0.000043
     2   1 0 1      0.000003      0.000000     -0.001254
     2   0 2 0     -3.339918      0.000000      4.078385
     2   0 1 1      0.067577      0.000000      0.251996
     2   0 0 2     -3.845158      0.000000      2.408901


 Parallel integral file used       2 records with       0 large values

                              NWChem Gradients Module
                              -----------------------


                                       Water


  wavefunction    =   RHF     

  gradient active actoms    1

 Read molecular orbitals from ./h2o.movecs



                         RHF ENERGY GRADIENTS

    atom               coordinates                        gradient
                 x          y          z           x          y          z
   1 O      -0.001000  -0.005378   0.156783    0.000001   0.001072  -0.000705
   2 H       0.000000   1.594553  -0.808119    0.000000   0.000000   0.000000
   3 H       0.000000  -1.239175  -1.248678    0.000000   0.000000   0.000000

                 ----------------------------------------
                 |  Time  |  1-e(secs)   |  2-e(secs)   |
                 ----------------------------------------
                 |  CPU   |       0.00   |       0.14   |
                 ----------------------------------------
                 |  WALL  |       0.01   |       0.30   |
                 ----------------------------------------
  iatom =                     1 ixyz =                     2 plus 
                                 NWChem SCF Module
                                 -----------------


                                       Water



  ao basis        = "ao basis"
  functions       =     7
  atoms           =     3
  closed shells   =     5
  open shells     =     0
  charge          =   0.00
  wavefunction    = RHF 
  input vectors   = ./h2o.movecs
  output vectors  = ./h2o.movecs
  use symmetry    = F
  symmetry adapt  = F


 Summary of "ao basis" -> "ao basis" (cartesian)
 ------------------------------------------------------------------------------
       Tag                 Description            Shells   Functions and Types
 ---------------- ------------------------------  ------  ---------------------
 H                           sto-3g                  1        1   1s
 O                           sto-3g                  3        5   2s1p



 Forming initial guess at       5.6s


 Read molecular orbitals from ./h2o.movecs


 Loading old vectors from job with title :

Water


 Starting SCF solution at       5.6s



 ----------------------------------------------
         Quadratically convergent ROHF

 Convergence threshold     :          1.000E-04
 Maximum no. of iterations :           20
 Final Fock-matrix accuracy:          1.000E-07
 ----------------------------------------------


 #quartets = 1.200D+02 #integrals = 2.600D+02 #direct =  0.0% #cached =100.0%


 Integral file          = ./h2o.aoints.0
 Record size in doubles =  32769        No. of integs per rec  =  21844
 Max. records in memory =      2        Max. records in file   = ******
 No. of bits per label  =      8        No. of bits per value  =     64


              iter       energy          gnorm     gmax       time
             ----- ------------------- --------- --------- --------
                 1      -74.9658979567  6.90D-04  4.60D-04      3.6
                 2      -74.9658980029  2.72D-06  1.92D-06      3.7


       Final RHF  results 
       ------------------ 

         Total SCF energy =    -74.965898002855
      One-electron energy =   -121.838960936418
      Two-electron energy =     37.964442768677
 Nuclear repulsion energy =      8.908620164885

        Time for solution =      0.1s


             Final eigenvalues
             -----------------

              1      
    1  -20.2513
    2   -1.2575
    3   -0.5943
    4   -0.4594
    5   -0.3925
    6    0.5818
    7    0.6934

                       ROHF Final Molecular Orbital Analysis
                       -------------------------------------

 Vector    2  Occ=2.000000D+00  E=-1.257509D+00
              MO Center=  2.7D-18,  2.7D-02, -1.0D-01, r^2= 5.4D-01
   Bfn.  Coefficient  Atom+Function         Bfn.  Coefficient  Atom+Function  
  ----- ------------  ---------------      ----- ------------  ---------------
     2      0.844384  1 O  s                  1     -0.233766  1 O  s          
     6      0.155968  2 H  s                  7      0.155307  3 H  s          

 Vector    3  Occ=2.000000D+00  E=-5.942822D-01
              MO Center=  2.0D-20,  4.0D-02, -1.9D-01, r^2= 8.5D-01
   Bfn.  Coefficient  Atom+Function         Bfn.  Coefficient  Atom+Function  
  ----- ------------  ---------------      ----- ------------  ---------------
     4      0.605382  1 O  py                 6      0.449262  2 H  s          
     7     -0.448994  3 H  s          

 Vector    4  Occ=2.000000D+00  E=-4.593803D-01
              MO Center=  2.5D-17, -5.0D-03,  9.6D-02, r^2= 6.6D-01
   Bfn.  Coefficient  Atom+Function         Bfn.  Coefficient  Atom+Function  
  ----- ------------  ---------------      ----- ------------  ---------------
     5      0.747673  1 O  pz                 2      0.537826  1 O  s          
     7     -0.295550  3 H  s                  6     -0.294107  2 H  s          

 Vector    5  Occ=2.000000D+00  E=-3.925213D-01
              MO Center= -3.2D-17, -2.3D-03,  8.3D-02, r^2= 4.2D-01
   Bfn.  Coefficient  Atom+Function         Bfn.  Coefficient  Atom+Function  
  ----- ------------  ---------------      ----- ------------  ---------------
     3      1.000000  1 O  px         

 Vector    6  Occ=0.000000D+00  E= 5.818053D-01
              MO Center=  3.7D-18,  7.0D-02, -4.4D-01, r^2= 1.1D+00
   Bfn.  Coefficient  Atom+Function         Bfn.  Coefficient  Atom+Function  
  ----- ------------  ---------------      ----- ------------  ---------------
     2      0.820948  1 O  s                  7     -0.775477  3 H  s          
     6     -0.763608  2 H  s                  5     -0.754903  1 O  pz         

 Vector    7  Occ=0.000000D+00  E= 6.934333D-01
              MO Center=  3.1D-20,  6.4D-02, -2.9D-01, r^2= 1.0D+00
   Bfn.  Coefficient  Atom+Function         Bfn.  Coefficient  Atom+Function  
  ----- ------------  ---------------      ----- ------------  ---------------
     4      0.950112  1 O  py                 6     -0.821543  2 H  s          
     7      0.807817  3 H  s          


  Mulliken analysis of the total density
  --------------------------------------

    Atom       Charge   Shell Charges
 -----------   ------   -------------------------------------------------------
    1 O    8     8.33   2.00  1.85  4.48
    2 H    1     0.83   0.83
    3 H    1     0.83   0.83

     Multipole analysis of the density
     ---------------------------------

     L   x y z        total         open         nuclear
     -   - - -        -----         ----         -------
     0   0 0 0      0.000000      0.000000     10.000000

     1   1 0 0      0.000000      0.000000      0.000000
     1   0 1 0      0.103207      0.000000      0.320356
     1   0 0 1     -0.664271      0.000000     -0.802530

     2   2 0 0     -4.554015      0.000000      0.000000
     2   1 1 0      0.000000      0.000000      0.000000
     2   1 0 1      0.000000      0.000000      0.000000
     2   0 2 0     -3.339639      0.000000      4.078307
     2   0 1 1      0.067197      0.000000      0.253251
     2   0 0 2     -3.845186      0.000000      2.408901


 Parallel integral file used       2 records with       0 large values

                              NWChem Gradients Module
                              -----------------------


                                       Water


  wavefunction    =   RHF     

  gradient active actoms    1

 Read molecular orbitals from ./h2o.movecs



                         RHF ENERGY GRADIENTS

    atom               coordinates                        gradient
                 x          y          z           x          y          z
   1 O       0.000000  -0.004378   0.156783    0.000000   0.001875  -0.000682
   2 H       0.000000   1.594553  -0.808119    0.000000   0.000000   0.000000
   3 H       0.000000  -1.239175  -1.248678    0.000000   0.000000   0.000000

                 ----------------------------------------
                 |  Time  |  1-e(secs)   |  2-e(secs)   |
                 ----------------------------------------
                 |  CPU   |       0.00   |       0.14   |
                 ----------------------------------------
                 |  WALL  |       0.03   |       0.28   |
                 ----------------------------------------
  iatom =                     1 ixyz =                     2 minus
                                 NWChem SCF Module
                                 -----------------


                                       Water



  ao basis        = "ao basis"
  functions       =     7
  atoms           =     3
  closed shells   =     5
  open shells     =     0
  charge          =   0.00
  wavefunction    = RHF 
  input vectors   = ./h2o.movecs
  output vectors  = ./h2o.movecs
  use symmetry    = F
  symmetry adapt  = F


 Summary of "ao basis" -> "ao basis" (cartesian)
 ------------------------------------------------------------------------------
       Tag                 Description            Shells   Functions and Types
 ---------------- ------------------------------  ------  ---------------------
 H                           sto-3g                  1        1   1s
 O                           sto-3g                  3        5   2s1p



 Forming initial guess at       6.4s


 Read molecular orbitals from ./h2o.movecs


 Loading old vectors from job with title :

Water


 Starting SCF solution at       6.5s



 ----------------------------------------------
         Quadratically convergent ROHF

 Convergence threshold     :          1.000E-04
 Maximum no. of iterations :           20
 Final Fock-matrix accuracy:          1.000E-07
 ----------------------------------------------


 #quartets = 1.200D+02 #integrals = 2.600D+02 #direct =  0.0% #cached =100.0%


 Integral file          = ./h2o.aoints.0
 Record size in doubles =  32769        No. of integs per rec  =  21844
 Max. records in memory =      2        Max. records in file   = ******
 No. of bits per label  =      8        No. of bits per value  =     64


              iter       energy          gnorm     gmax       time
             ----- ------------------- --------- --------- --------
                 1      -74.9659001001  6.90D-04  4.63D-04      4.2
                 2      -74.9659001464  2.85D-06  2.01D-06      4.2


       Final RHF  results 
       ------------------ 

         Total SCF energy =    -74.965900146430
      One-electron energy =   -121.837259069364
      Two-electron energy =     37.963645723312
 Nuclear repulsion energy =      8.907713199623

        Time for solution =      0.1s


             Final eigenvalues
             -----------------

              1      
    1  -20.2514
    2   -1.2575
    3   -0.5942
    4   -0.4594
    5   -0.3925
    6    0.5817
    7    0.6933

                       ROHF Final Molecular Orbital Analysis
                       -------------------------------------

 Vector    2  Occ=2.000000D+00  E=-1.257474D+00
              MO Center=  2.7D-18,  2.6D-02, -1.0D-01, r^2= 5.4D-01
   Bfn.  Coefficient  Atom+Function         Bfn.  Coefficient  Atom+Function  
  ----- ------------  ---------------      ----- ------------  ---------------
     2      0.844420  1 O  s                  1     -0.233770  1 O  s          
     6      0.155656  2 H  s                  7      0.155598  3 H  s          

 Vector    3  Occ=2.000000D+00  E=-5.942055D-01
              MO Center=  1.7D-21,  4.0D-02, -1.9D-01, r^2= 8.5D-01
   Bfn.  Coefficient  Atom+Function         Bfn.  Coefficient  Atom+Function  
  ----- ------------  ---------------      ----- ------------  ---------------
     4      0.605191  1 O  py                 6      0.449154  2 H  s          
     7     -0.449130  3 H  s          

 Vector    4  Occ=2.000000D+00  E=-4.594016D-01
              MO Center=  2.5D-17, -5.4D-03,  9.6D-02, r^2= 6.6D-01
   Bfn.  Coefficient  Atom+Function         Bfn.  Coefficient  Atom+Function  
  ----- ------------  ---------------      ----- ------------  ---------------
     5      0.747422  1 O  pz                 2      0.537825  1 O  s          
     7     -0.294945  3 H  s                  6     -0.294819  2 H  s          

 Vector    5  Occ=2.000000D+00  E=-3.925261D-01
              MO Center= -3.2D-17, -3.4D-03,  8.3D-02, r^2= 4.2D-01
   Bfn.  Coefficient  Atom+Function         Bfn.  Coefficient  Atom+Function  
  ----- ------------  ---------------      ----- ------------  ---------------
     3      1.000000  1 O  px         

 Vector    6  Occ=0.000000D+00  E= 5.817351D-01
              MO Center=  3.7D-18,  7.7D-02, -4.4D-01, r^2= 1.1D+00
   Bfn.  Coefficient  Atom+Function         Bfn.  Coefficient  Atom+Function  
  ----- ------------  ---------------      ----- ------------  ---------------
     2      0.820784  1 O  s                  7     -0.770008  3 H  s          
     6     -0.768959  2 H  s                  5     -0.753865  1 O  pz         

 Vector    7  Occ=0.000000D+00  E= 6.932705D-01
              MO Center=  2.7D-21,  5.5D-02, -2.9D-01, r^2= 1.0D+00
   Bfn.  Coefficient  Atom+Function         Bfn.  Coefficient  Atom+Function  
  ----- ------------  ---------------      ----- ------------  ---------------
     4      0.949038  1 O  py                 6     -0.815235  2 H  s          
     7      0.814024  3 H  s          


  Mulliken analysis of the total density
  --------------------------------------

    Atom       Charge   Shell Charges
 -----------   ------   -------------------------------------------------------
    1 O    8     8.33   2.00  1.85  4.48
    2 H    1     0.83   0.83
    3 H    1     0.83   0.83

     Multipole analysis of the density
     ---------------------------------

     L   x y z        total         open         nuclear
     -   - - -        -----         ----         -------
     0   0 0 0      0.000000      0.000000     10.000000

     1   1 0 0      0.000000      0.000000      0.000000
     1   0 1 0      0.103260      0.000000      0.304356
     1   0 0 1     -0.664235      0.000000     -0.802530

     2   2 0 0     -4.554088      0.000000      0.000000
     2   1 1 0      0.000000      0.000000      0.000000
     2   1 0 1      0.000000      0.000000      0.000000
     2   0 2 0     -3.340190      0.000000      4.078479
     2   0 1 1      0.067954      0.000000      0.250742
     2   0 0 2     -3.845127      0.000000      2.408901


 Parallel integral file used       2 records with       0 large values

                              NWChem Gradients Module
                              -----------------------


                                       Water


  wavefunction    =   RHF     

  gradient active actoms    1

 Read molecular orbitals from ./h2o.movecs



                         RHF ENERGY GRADIENTS

    atom               coordinates                        gradient
                 x          y          z           x          y          z
   1 O       0.000000  -0.006378   0.156783    0.000000   0.000269  -0.000730
   2 H       0.000000   1.594553  -0.808119    0.000000   0.000000   0.000000
   3 H       0.000000  -1.239175  -1.248678    0.000000   0.000000   0.000000

                 ----------------------------------------
                 |  Time  |  1-e(secs)   |  2-e(secs)   |
                 ----------------------------------------
                 |  CPU   |       0.00   |       0.18   |
                 ----------------------------------------
                 |  WALL  |       0.02   |       0.30   |
                 ----------------------------------------
  iatom =                     1 ixyz =                     3 plus 
                                 NWChem SCF Module
                                 -----------------


                                       Water



  ao basis        = "ao basis"
  functions       =     7
  atoms           =     3
  closed shells   =     5
  open shells     =     0
  charge          =   0.00
  wavefunction    = RHF 
  input vectors   = ./h2o.movecs
  output vectors  = ./h2o.movecs
  use symmetry    = F
  symmetry adapt  = F


 Summary of "ao basis" -> "ao basis" (cartesian)
 ------------------------------------------------------------------------------
       Tag                 Description            Shells   Functions and Types
 ---------------- ------------------------------  ------  ---------------------
 H                           sto-3g                  1        1   1s
 O                           sto-3g                  3        5   2s1p



 Forming initial guess at       7.3s


 Read molecular orbitals from ./h2o.movecs


 Loading old vectors from job with title :

Water


 Starting SCF solution at       7.3s



 ----------------------------------------------
         Quadratically convergent ROHF

 Convergence threshold     :          1.000E-04
 Maximum no. of iterations :           20
 Final Fock-matrix accuracy:          1.000E-07
 ----------------------------------------------


 #quartets = 1.200D+02 #integrals = 2.600D+02 #direct =  0.0% #cached =100.0%


 Integral file          = ./h2o.aoints.0
 Record size in doubles =  32769        No. of integs per rec  =  21844
[...]
     4      0.605339  1 O  py                 6      0.449259  2 H  s          
     7     -0.449050  3 H  s          

 Vector    4  Occ=2.000000D+00  E=-4.594135D-01
              MO Center=  2.5D-17, -5.4D-03,  9.5D-02, r^2= 6.6D-01
   Bfn.  Coefficient  Atom+Function         Bfn.  Coefficient  Atom+Function  
  ----- ------------  ---------------      ----- ------------  ---------------
     5      0.747453  1 O  pz                 2      0.537801  1 O  s          
     7     -0.295507  3 H  s                  6     -0.294393  2 H  s          

 Vector    5  Occ=2.000000D+00  E=-3.925277D-01
              MO Center= -3.2D-17, -2.8D-03,  8.3D-02, r^2= 4.2D-01
   Bfn.  Coefficient  Atom+Function         Bfn.  Coefficient  Atom+Function  
  ----- ------------  ---------------      ----- ------------  ---------------
     3      1.000000  1 O  px         

 Vector    6  Occ=0.000000D+00  E= 5.816116D-01
              MO Center=  3.7D-18,  7.1D-02, -4.4D-01, r^2= 1.1D+00
   Bfn.  Coefficient  Atom+Function         Bfn.  Coefficient  Atom+Function  
  ----- ------------  ---------------      ----- ------------  ---------------
     2      0.820495  1 O  s                  7     -0.773924  3 H  s          
     6     -0.764777  2 H  s                  5     -0.754707  1 O  pz         

 Vector    7  Occ=0.000000D+00  E= 6.930758D-01
              MO Center=  2.4D-20,  6.2D-02, -2.9D-01, r^2= 1.0D+00
   Bfn.  Coefficient  Atom+Function         Bfn.  Coefficient  Atom+Function  
  ----- ------------  ---------------      ----- ------------  ---------------
     4      0.949614  1 O  py                 6     -0.819797  2 H  s          
     7      0.809222  3 H  s          


  Mulliken analysis of the total density
  --------------------------------------

    Atom       Charge   Shell Charges
 -----------   ------   -------------------------------------------------------
    1 O    8     8.33   2.00  1.85  4.48
    2 H    1     0.83   0.83
    3 H    1     0.83   0.83

     Multipole analysis of the density
     ---------------------------------

     L   x y z        total         open         nuclear
     -   - - -        -----         ----         -------
     0   0 0 0      0.000000      0.000000     10.000000

     1   1 0 0      0.000000      0.000000      0.000000
     1   0 1 0      0.103441      0.000000      0.312356
     1   0 0 1     -0.664155      0.000000     -0.803530

     2   2 0 0     -4.554186      0.000000      0.000000
     2   1 1 0      0.000000      0.000000      0.000000
     2   1 0 1      0.000000      0.000000      0.000000
     2   0 2 0     -3.340385      0.000000      4.078385
     2   0 1 1      0.067722      0.000000      0.253236
     2   0 0 2     -3.844760      0.000000      2.411399


 Parallel integral file used       2 records with       0 large values

                              NWChem Gradients Module
                              -----------------------


                                       Water


  wavefunction    =   RHF     

  gradient active actoms    1   2   3

 Read molecular orbitals from ./h2o.movecs



                         RHF ENERGY GRADIENTS

    atom               coordinates                        gradient
                 x          y          z           x          y          z
   1 O       0.000000  -0.005378   0.156783    0.000000   0.001408  -0.000303
   2 H       0.000000   1.594553  -0.808119    0.000000  -0.000511   0.000750
   3 H       0.000000  -1.239175  -1.249678    0.000000  -0.000897  -0.000448

                 ----------------------------------------
                 |  Time  |  1-e(secs)   |  2-e(secs)   |
                 ----------------------------------------
                 |  CPU   |       0.00   |       0.14   |
                 ----------------------------------------
                 |  WALL  |       0.03   |       0.28   |
                 ----------------------------------------
  
  finite difference hessian delta =   1.0000000000000000E-03

              1        2        3        4        5        6        7        8
    1   -0.0007   0.0000   0.0000   0.0021   0.0000   0.0000   0.0014   0.0000
    2    0.0000   0.8029   0.0239   0.0000  -0.4862   0.3127   0.0000  -0.3166
    3    0.0000   0.0239   0.6376   0.0000   0.1918  -0.2359   0.0000  -0.2155
    4    0.0021   0.0000   0.0000  -0.0005   0.0000   0.0000  -0.0016   0.0000
    5    0.0000  -0.4862   0.1918   0.0000   0.5216  -0.2439   0.0000  -0.0353
    6    0.0000   0.3127  -0.2359   0.0000  -0.2439   0.2194   0.0000  -0.0686
    7    0.0014   0.0000   0.0000  -0.0016   0.0000   0.0000   0.0002   0.0000
    8    0.0000  -0.3166  -0.2155   0.0000  -0.0353  -0.0686   0.0000   0.3519
    9    0.0000  -0.3366  -0.4026   0.0000   0.0523   0.0166   0.0000   0.2843

              9      
    1    0.0000
    2   -0.3366
    3   -0.4026
    4    0.0000
    5    0.0523
    6    0.0166
    7    0.0000
    8    0.2843
    9    0.3860
  

 finite difference derivative dipole; delta =   1.0000000000000000E-03

  
  
 X vector of derivative dipole (au) [debye/angstrom]
 d_dipole_x/<atom=   1,x> =    -0.5605     [   -2.6924]
 d_dipole_x/<atom=   1,y> =     0.0000     [    0.0000]
 d_dipole_x/<atom=   1,z> =     0.0000     [    0.0000]
 d_dipole_x/<atom=   2,x> =     0.2811     [    1.3503]
 d_dipole_x/<atom=   2,y> =     0.0000     [    0.0000]
 d_dipole_x/<atom=   2,z> =     0.0000     [    0.0000]
 d_dipole_x/<atom=   3,x> =     0.2807     [    1.3482]
 d_dipole_x/<atom=   3,y> =     0.0000     [    0.0000]
 d_dipole_x/<atom=   3,z> =     0.0000     [    0.0000]
  
 Y vector of derivative dipole (au) [debye/angstrom]
 d_dipole_y/<atom=   1,x> =     0.0000     [    0.0000]
 d_dipole_y/<atom=   1,y> =    -0.0267     [   -0.1283]
 d_dipole_y/<atom=   1,z> =    -0.0164     [   -0.0790]
 d_dipole_y/<atom=   2,x> =     0.0000     [    0.0000]
 d_dipole_y/<atom=   2,y> =    -0.0446     [   -0.2145]
 d_dipole_y/<atom=   2,z> =     0.2228     [    1.0699]
 d_dipole_y/<atom=   3,x> =     0.0000     [    0.0000]
 d_dipole_y/<atom=   3,y> =     0.0703     [    0.3377]
 d_dipole_y/<atom=   3,z> =    -0.2069     [   -0.9937]
  
 Z vector of derivative dipole (au) [debye/angstrom]
 d_dipole_z/<atom=   1,x> =     0.0000     [    0.0000]
 d_dipole_z/<atom=   1,y> =    -0.0178     [   -0.0854]
 d_dipole_z/<atom=   1,z> =     0.0813     [    0.3907]
 d_dipole_z/<atom=   2,x> =     0.0000     [    0.0000]
 d_dipole_z/<atom=   2,y> =     0.1563     [    0.7509]
 d_dipole_z/<atom=   2,z> =     0.0176     [    0.0846]
 d_dipole_z/<atom=   3,x> =     0.0000     [    0.0000]
 d_dipole_z/<atom=   3,y> =    -0.1397     [   -0.6708]
 d_dipole_z/<atom=   3,z> =    -0.0979     [   -0.4700]
  
  
  triangle hessian written to ./h2o.hess
  derivative dipole written to ./h2o.fd_ddipole

 Deleting state for scf with suffix hess
        ./h2o.movecs



  Vibrational analysis via the FX method 

  See chapter 2 in "Molecular Vibrations" by Wilson, Decius and Cross

  Vib: Default input used 

  Nuclear Hessian passed symmetry test 



 ---------------------------- Atom information ----------------------------
     atom    #        X              Y              Z            mass
 --------------------------------------------------------------------------
    O        1  0.0000000D+00 -5.3776836D-03  1.5678333D-01  1.5994910D+01
    H        2  0.0000000D+00  1.5945528D+00 -8.0811932D-01  1.0078250D+00
    H        3  0.0000000D+00 -1.2391752D+00 -1.2486777D+00  1.0078250D+00
 --------------------------------------------------------------------------




          ----------------------------------------------------
          MASS-WEIGHTED NUCLEAR HESSIAN (Hartree/Bohr/Bohr/Kg)
          ----------------------------------------------------


              1           2           3           4           5           6           7           8           9
   ----- ----- ----- ----- -----
    1  -4.39510D-02
    2  -8.67562D-12 5.01951D+01
    3   1.11057D-10 1.49610D+00 3.98634D+01
    4   5.25618D-01 5.53040D-11 5.53040D-10-4.84763D-01
    5  -6.14929D-15-1.21105D+02 4.77700D+01-2.20307D-10 5.17509D+02
    6   6.03723D-15 7.78787D+01-5.87553D+01 5.50791D-10-2.41962D+02 2.17663D+02
    7   3.58610D-01 5.53040D-11 3.31824D-10-1.60230D+00 4.40641D-10 2.20321D-10 1.73668D-01
    8   1.42711D-16-7.88548D+01-5.36857D+01-2.16212D-15-3.50317D+01-6.80628D+01-2.20320D-10 3.49174D+02
    9   1.75862D-15-8.38427D+01-1.00266D+02 1.06132D-16 5.18588D+01 1.64524D+01-2.20324D-10 2.82046D+02 3.82987D+02



          -------------------------------------------------
          NORMAL MODE EIGENVECTORS IN CARTESIAN COORDINATES
          -------------------------------------------------
                 (Freqencies expressed in cm-1)

                    1           2           3           4           5           6
 
 Frequency       -229.73     -113.71      -36.06       19.27       64.99      197.91
 
           1    -0.07722     0.00000     0.00000     0.00000     0.23762    -0.00966
           2     0.00000    -0.07215    -0.08203     0.21495     0.00000     0.00000
           3     0.00000    -0.02643     0.22112     0.07744     0.00000     0.00000
           4     0.73727     0.00000     0.00000     0.00000     0.21381    -0.63479
           5     0.00000     0.29835    -0.06600     0.25661     0.00000     0.00000
           6     0.00000     0.58777     0.24779     0.14647     0.00000     0.00000
           7     0.59500     0.00000     0.00000     0.00000     0.22452     0.76668
           8     0.00000     0.46492    -0.05867     0.27548     0.00000     0.00000
           9     0.00000    -0.49789     0.20056     0.02432     0.00000     0.00000

                    7           8           9
 
 Frequency       2169.03     4142.02     4393.89
 
           1     0.00000     0.00000     0.00000
           2    -0.01024     0.00631    -0.06510
           3     0.06530    -0.05085    -0.00884
           4     0.00000     0.00000     0.00000
           5    -0.34542    -0.59860     0.59614
           6    -0.58349     0.30811    -0.35849
           7     0.00000     0.00000     0.00000
           8     0.50742     0.49848     0.43680
           9    -0.45347     0.49883     0.49906



 ----------------------------------------------------------------------------
 Normal Eigenvalue ||         Derivative Dipole Moments (debye/angs)
  Mode   [cm**-1]  ||      [d/dqX]             [d/dqY]           [d/dqZ]
 ------ ---------- || ------------------ ------------------ -----------------
    1     -229.728 ||       2.006               0.000             0.000
    2     -113.709 ||       0.000               1.228             0.192
    3      -36.058 ||       0.000               0.053             0.010
    4       19.267 ||       0.000               0.137             0.021
    5       64.986 ||      -0.048               0.000             0.000
    6      197.914 ||       0.202               0.000             0.000
    7     2169.025 ||       0.000               0.068            -0.410
    8     4142.021 ||       0.000               0.134            -1.013
    9     4393.895 ||       0.000              -0.851            -0.108
 ----------------------------------------------------------------------------



  
  
 ----------------------------------------------------------------------------
 Normal Eigenvalue ||                 Infra Red Intensities
  Mode   [cm**-1]  || [atomic units] [(debye/angs)**2] [(KM/mol)] [arbitrary]
 ------ ---------- || -------------- ----------------- ---------- -----------
    1     -229.728 ||    0.174349           4.022       169.964      47.735
    2     -113.709 ||    0.066958           1.545        65.274      18.332
    3      -36.058 ||    0.000127           0.003         0.124       0.035
    4       19.267 ||    0.000831           0.019         0.810       0.227
    5       64.986 ||    0.000101           0.002         0.099       0.028
    6      197.914 ||    0.001777           0.041         1.732       0.487
    7     2169.025 ||    0.007472           0.172         7.284       2.046
    8     4142.021 ||    0.045229           1.043        44.092      12.383
    9     4393.895 ||    0.031878           0.735        31.077       8.728
 ----------------------------------------------------------------------------





        Vibrational analysis via the FX method 
  --- with translations and rotations projected out ---
  --- via the Eckart algorithm                      ---
 Projected Nuclear Hessian trans-rot subspace norm:9.6493D-32
                         (should be close to zero!) 


From the projected analysis 
The Zero-Point Energy (Kcal/mol) =          15.30621138



          -------------------------------------------------
          NORMAL MODE EIGENVECTORS IN CARTESIAN COORDINATES
          -------------------------------------------------
             (Projected Freqencies expressed in cm-1)

                    1           2           3           4           5           6
 
 P.Frequency        0.00        0.00        0.00        0.00        0.00        0.00
 
           1     0.00000     0.00000     0.25004     0.00000     0.00000     0.00000
           2    -0.04439     0.00000     0.00000     0.00000     0.23576    -0.02424
           3    -0.11987     0.00000     0.00000     0.00000     0.00002     0.20302
           4     0.00000     0.00000     0.00000     0.99611     0.00000     0.00000
           5     0.28232     0.00000     0.00000     0.00000     0.23482     0.15418
           6     0.42187     0.00000     0.00000     0.00000    -0.00154     0.49885
           7     0.00000     0.99611     0.00000     0.00000     0.00000     0.00000
           8     0.43150     0.00000     0.00000     0.00000     0.23439     0.23564
           9    -0.53763     0.00000     0.00000     0.00000     0.00122    -0.02511

                    7           8           9
 
 P.Frequency     2168.11     4141.86     4393.67
 
           1     0.00000     0.00000     0.00000
           2    -0.01007     0.00632    -0.06509
           3     0.06537    -0.05083    -0.00883
           4     0.00000     0.00000     0.00000
           5    -0.34628    -0.59881     0.59593
           6    -0.58476     0.30792    -0.35869
           7     0.00000     0.00000     0.00000
           8     0.50602     0.49844     0.43713
           9    -0.45267     0.49877     0.49887



 ----------------------------------------------------------------------------
 Normal Eigenvalue ||    Projected Derivative Dipole Moments (debye/angs)
  Mode   [cm**-1]  ||      [d/dqX]             [d/dqY]           [d/dqZ]
 ------ ---------- || ------------------ ------------------ -----------------
    1        0.000 ||       0.000              -1.086            -0.168
    2        0.000 ||       1.343               0.000             0.000
    3        0.000 ||      -0.673               0.000             0.000
    4        0.000 ||       1.345               0.000             0.000
    5        0.000 ||       0.000              -0.004            -0.002
    6        0.000 ||       0.000               0.592             0.093
    7     2168.108 ||       0.000               0.065            -0.410
    8     4141.864 ||       0.000               0.134            -1.013
    9     4393.673 ||       0.000              -0.851            -0.108
 ----------------------------------------------------------------------------



  
  
 ----------------------------------------------------------------------------
 Normal Eigenvalue ||           Projected Infra Red Intensities
  Mode   [cm**-1]  || [atomic units] [(debye/angs)**2] [(KM/mol)] [arbitrary]
 ------ ---------- || -------------- ----------------- ---------- -----------
    1        0.000 ||    0.052339           1.208        51.023      14.330
    2        0.000 ||    0.078170           1.803        76.204      21.402
    3        0.000 ||    0.019644           0.453        19.150       5.378
    4        0.000 ||    0.078414           1.809        76.442      21.469
    5        0.000 ||    0.000001           0.000         0.001       0.000
    6        0.000 ||    0.015581           0.359        15.190       4.266
    7     2168.108 ||    0.007464           0.172         7.276       2.044
    8     4141.864 ||    0.045237           1.044        44.099      12.385
    9     4393.673 ||    0.031872           0.735        31.071       8.726
 ----------------------------------------------------------------------------




 Task  times  cpu:        9.5s     wall:       15.3s


                                NWChem Input Module
                                -------------------



 Summary of allocated global arrays 
 ----------------------------------

   No active global arrays
  

                         GA Statistics for process    0
                         ------------------------------

       create   destroy   get      put      acc     scatter   gather  read&inc
calls: 2098     2098     9327     4146     4330       21        0        0     
bytes total:             1.18e+06 4.03e+05 4.54e+05 8.40e+02 0.00e+00 0.00e+00
bytes remote:            4.08e+04 3.29e+04 1.28e+04 3.36e+02 0.00e+00 0.00e+00
Max memory consumed for GA by this process: 2724 bytes









MA_summarize_allocated_blocks: starting scan ...
MA_summarize_allocated_blocks: scan completed: 0 heap blocks, 0 stack blocks
MA usage statistics:

	allocation statistics:
					      heap	     stack
					      ----	     -----
	current number of blocks	         0	         0
	maximum number of blocks	        18	        32
	current total bytes		         0	         0
	maximum total bytes		    529304	  17987624
	maximum total K-bytes		       530	     17988
	maximum total M-bytes		         1	        18



                                  ACKNOWLEDGEMENT
                                  ---------------

            Please use the following acknowledgement where appropriate 
            for results obtained with NWChem:

            High Performance Computational Chemistry Group, "NWChem, A
            Computational Chemistry Package for Parallel Computers, 
            Version 3.1" (1997), Pacific Northwest National Laboratory,
            Richland, Washington 99352-0999, USA.


                                     CITATION
                                     --------

            Please use the following citation when publishing results
            obtained with NWChem:

            Anchell, J.; Apra, E.; Bernholdt, D.; Borowski, P.; Clark, T.; 
            Clerc, D.; Dachsel, H.; Deegan, M.; Dupuis, M.;Dyall, K.; 
            Fann, G.; Fruchtl, H.; Gutowski, M.; Harrison, R.; Hess, A.;
            Jaffe, J.; Kendall, R.; Kobayashi, R.; Kutteh, R.; Lin, Z.; 
            Littlefield, R.; Long, X.; Meng, B.; Nichols, J.; Nieplocha, J.; 
            Rendall, A.; Stave, M.; Straatsma, T.;Taylor, H.; Thomas, G.; 
            Wolinski, K.; Wong, A.; "NWChem, A Computational Chemistry 
            Package for Parallel Computers, Version 3.1" (1997),
                      Pacific Northwest National Laboratory,
                      Richland, Washington 99352-0999, USA.


                                    REFERENCES
                                    ----------

            Where appropriate, please cite the following reference(s) 
            when publishing results obtained with NWChem:


     1. D. E. Bernholdt, E. Apra, H. A. Fruchtl, M.F. Guest, R. J. Harrison, 
        R. A. Kendall, R. A. Kutteh, X. Long, J. B. Nicholas, J. A. Nichols, 
        H. L. Taylor, A. T. Wong, G. I. Fann, R. J. Littlefield and J. Nieplocha,
        "Parallel Computational Chemistry Made Easier: The Development of NWChem,"
        Int. J. Quantum Chem. Symposium  29, 475-483 (1995).



 Total times  cpu:       12.2s     wall:       19.5s
 Creating: host=texas, user=d3e129,
           file=/msrc/home/d3e129/nwchem-3.2.1/bin/SGITFP/nwchem, port=1272
