 argument  1 = dft_li2freq.nw
 


============================== echo of input deck ==============================
echo

start li2freq

charge 0

geometry
li 0 0 0
li 0 0 2.76296
end

basis "ao basis"
* library "6-311+G*"
end
dft
xc mpw91
end

task dft optimize
task dft freq







================================================================================


                                         
                                         
 
 
             Northwest Computational Chemistry Package (NWChem) 5.1.1
             --------------------------------------------------------
 
 
                    Environmental Molecular Sciences Laboratory
                       Pacific Northwest National Laboratory
                                Richland, WA 99352
 
                                         
                                         
 
 
                  COPYRIGHT (C) 1994, 1995, 1996, 1997, 1998, 1999
                2000, 2001, 2002, 2003, 2004, 2005, 2006, 2007, 2008
                        Pacific Northwest National Laboratory,
                             Battelle Memorial Institute.
 
                            >>> All Rights Reserved <<<
 
 
                                    DISCLAIMER
                                    ----------

            This material was prepared as an account of work sponsored
            by an agency of the United States Government.  Neither the
            United States Government nor the United States Department
            of Energy, nor Battelle, nor any of their employees, MAKES
            ANY WARRANTY, EXPRESS OR IMPLIED, OR ASSUMES ANY LEGAL
            LIABILITY OR RESPONSIBILITY FOR THE ACCURACY, COMPLETENESS,
            OR USEFULNESS OF ANY INFORMATION, APPARATUS, PRODUCT,
            SOFTWARE, OR PROCESS DISCLOSED, OR REPRESENTS THAT ITS USE
            WOULD NOT INFRINGE PRIVATELY OWNED RIGHTS.


                                    LIMITED USE
                                    -----------

            This software (including any documentation) is being made
            available to you for your internal use only, solely for use
            in performance of work directly for the U.S. Federal
            Government or work under contracts with the U.S. Department
            of Energy or other U.S. Federal Government agencies.  This
            software is a version which has not yet been evaluated and
            cleared for commercialization.  Adherence to this notice
            may be necessary for the author, Battelle Memorial
            Institute, to successfully assert copyright in and
            commercialize this software. This software is not intended
            for duplication or distribution to third parties without
            the permission of the Manager of Software Products at
            Pacific Northwest National Laboratory, Richland,
            Washington, 99352.


                                  ACKNOWLEDGMENT
                                  --------------

            This software and its documentation were produced with
            Government support under Contract Number DE-AC05-76RL01830
            awarded by the United States Department of Energy.  The
            Government retains a paid-up non-exclusive, irrevocable
            worldwide license to reproduce, prepare derivative works,
            perform publicly and display publicly by or for the
            Government, including the right to distribute to other
            Government contractors.


           Job information
           ---------------

    hostname      = curie
    program       = ../../../bin/LINUX64/nwchem
    date          = Thu Dec 11 10:17:28 2008

    compiled      = Thu_Dec_11_10:16:23_2008
    source        = /home/niri/nwchem/nwchem-5.1.1
    nwchem branch = 5.1.1
    input         = dft_li2freq.nw
    prefix        = li2freq.
    data base     = ./li2freq.db
    status        = startup
    nproc         =    4
    time left     =     -1s



           Memory information
           ------------------

    heap      =   13107201 doubles =    100.0 Mbytes
    stack     =   13107201 doubles =    100.0 Mbytes
    global    =   26214400 doubles =    200.0 Mbytes (distinct from heap & stack)
    total     =   52428802 doubles =    400.0 Mbytes
    verify    = yes
    hardfail  = no 


           Directory information
           ---------------------
 
  0 permanent = .
  0 scratch   = .
 
 
 
 
                                NWChem Input Module
                                -------------------
 
 

 Scaling coordinates for geometry "geometry" by  1.889725989
 (inverse scale =  0.529177249)

 ORDER OF PRIMARY AXIS IS BEING SET TO 4
 D4H symmetry detected

          ------
          auto-z
          ------
 
 
                             Geometry "geometry" -> ""
                             -------------------------
 
 Output coordinates in angstroms (scale by  1.889725989 to convert to a.u.)
 
  No.       Tag          Charge          X              Y              Z
 ---- ---------------- ---------- -------------- -------------- --------------
    1 li                   3.0000     0.00000000     0.00000000    -1.38148000
    2 li                   3.0000     0.00000000     0.00000000     1.38148000
 
      Atomic Mass 
      ----------- 
 
      li                 7.016000
 

 Effective nuclear repulsion energy (a.u.)       1.7237293486

            Nuclear Dipole moment (a.u.) 
            ----------------------------
        X                 Y               Z
 ---------------- ---------------- ----------------
     0.0000000000     0.0000000000     0.0000000000
 
      Symmetry information
      --------------------
 
 Group name             D4h       
 Group number             28
 Group order              16
 No. of unique centers     1
 
      Symmetry unique atoms
 
     1
 


                                Z-matrix (autoz)
                                -------- 

 Units are Angstrom for bonds and degrees for angles
 
      Type          Name      I     J     K     L     M      Value
      ----------- --------  ----- ----- ----- ----- ----- ----------
    1 Stretch                  1     2                       2.76296
 
 
            XYZ format geometry
            -------------------
     2
 geometry
 li                    0.00000000     0.00000000    -1.38148000
 li                    0.00000000     0.00000000     1.38148000
 
 ==============================================================================
                                internuclear distances
 ------------------------------------------------------------------------------
       center one      |      center two      | atomic units |  angstroms
 ------------------------------------------------------------------------------
    2 li               |   1 li               |     5.22124  |     2.76296
 ------------------------------------------------------------------------------
                         number of included internuclear distances:          1
 ==============================================================================



  library name resolved from: environment
  library file name is: </home/niri/nwchem/nwchem-5.1.1/src/basis/libraries/>
  


 Summary of "ao basis" -> "" (cartesian)
 ------------------------------------------------------------------------------
       Tag                 Description            Shells   Functions and Types
 ---------------- ------------------------------  ------  ---------------------
 *                          6-311+G*                  on all atoms 


 
 
                           NWChem Geometry Optimization
                           ----------------------------
 
 
 maximum gradient threshold         (gmax) =   0.000450
 rms gradient threshold             (grms) =   0.000300
 maximum cartesian step threshold   (xmax) =   0.001800
 rms cartesian step threshold       (xrms) =   0.001200
 fixed trust radius                (trust) =   0.300000
 maximum step size to saddle      (sadstp) =   0.100000
 energy precision                  (eprec) =   5.0D-06
 maximum number of steps          (nptopt) =   20
 initial hessian option           (inhess) =    0
 line search option               (linopt) =    1
 hessian update option            (modupd) =    1
 saddle point option              (modsad) =    0
 initial eigen-mode to follow     (moddir) =    0
 initial variable to follow       (vardir) =    0
 follow first negative mode     (firstneg) =    T
 apply conjugacy                    (opcg) =    F
 source of zmatrix                         =   autoz   


          -------------------
          Energy Minimization
          -------------------

 
 Names of Z-matrix variables 
    1         
 
 Variables with the same non-blank name are constrained to be equal
 
 
 Using diagonal initial Hessian 
 Scaling for Hessian diagonals: bonds = 1.00  angles = 0.25  torsions = 0.10

          --------
          Step   0
          --------
 
 
                         Geometry "geometry" -> "geometry"
                         ---------------------------------
 
 Output coordinates in angstroms (scale by  1.889725989 to convert to a.u.)
 
  No.       Tag          Charge          X              Y              Z
 ---- ---------------- ---------- -------------- -------------- --------------
    1 li                   3.0000     0.00000000     0.00000000    -1.38148000
    2 li                   3.0000     0.00000000     0.00000000     1.38148000
 
      Atomic Mass 
      ----------- 
 
      li                 7.016000
 

 Effective nuclear repulsion energy (a.u.)       1.7237293486

            Nuclear Dipole moment (a.u.) 
            ----------------------------
        X                 Y               Z
 ---------------- ---------------- ----------------
     0.0000000000     0.0000000000     0.0000000000
 
      Symmetry information
      --------------------
 
 Group name             D4h       
 Group number             28
 Group order              16
 No. of unique centers     1
 
      Symmetry unique atoms
 
     1
 
                                 NWChem DFT Module
                                 -----------------
 
 
                      Basis "ao basis" -> "ao basis" (cartesian)
                      -----
  li (Lithium)
  ------------
            Exponent  Coefficients 
       -------------- ---------------------------------------------------------
  1 S  9.00460000E+02  0.002287
  1 S  1.34433000E+02  0.017635
  1 S  3.04365000E+01  0.087343
  1 S  8.62639000E+00  0.280977
  1 S  2.48332000E+00  0.658741
  1 S  3.03179000E-01  0.118712
 
  2 S  4.86890000E+00  0.093329
  2 S  8.56924000E-01  0.943045
  2 S  2.43227000E-01 -0.002798
 
  3 P  4.86890000E+00  0.032766
  3 P  8.56924000E-01  0.159792
  3 P  2.43227000E-01  0.885667
 
  4 S  6.35070000E-02  1.000000
 
  5 P  6.35070000E-02  1.000000
 
  6 S  2.43683000E-02  1.000000
 
  7 P  2.43683000E-02  1.000000
 
  8 D  2.00000000E-01  1.000000
 
  9 S  7.40000000E-03  1.000000
 
 10 P  7.40000000E-03  1.000000
 


 Summary of "ao basis" -> "ao basis" (cartesian)
 ------------------------------------------------------------------------------
       Tag                 Description            Shells   Functions and Types
 ---------------- ------------------------------  ------  ---------------------
 li                         6-311+G*                10       23   5s4p1d


  Caching 1-el integrals 
 
            General Information
            -------------------
          SCF calculation type: DFT
          Wavefunction type:  closed shell.
          No. of atoms     :     2
          No. of electrons :     6
           Alpha electrons :     3
            Beta electrons :     3
          Charge           :     0
          Spin multiplicity:     1
          Use of symmetry is: on ; symmetry adaption is: on 
          Maximum number of iterations:  30
          AO basis - number of functions:    46
                     number of shells:    20
          Convergence on energy requested: 1.00D-06
          Convergence on density requested: 1.00D-05
          Convergence on gradient requested: 5.00D-04
 
              XC Information
              --------------
                        mPW91  Exchange Functional  1.000          
  WARNING: Sum of local correlation is   0.000000000000000E+000
  Sum of components do not equal unity. 
 
             Grid Information
             ----------------
          Grid used for XC integration:  medium    
          Radial quadrature: Mura-Knowles        
          Angular quadrature: Lebedev. 
          Tag              B.-S. Rad. Rad. Pts. Rad. Cut. Ang. Pts.
          ---              ---------- --------- --------- ---------
          li                  1.45       49          23.0       434
          Grid pruning is: on 
          Number of quadrature shells:    49
          Spatial weights used:  Erf1
 
          Convergence Information
          -----------------------
          Convergence aids based upon iterative change in 
          total energy or number of iterations. 
          Levelshifting, if invoked, occurs when the 
          HOMO/LUMO gap drops below (HL_TOL): 1.00D-02
          DIIS, if invoked, will attempt to extrapolate 
          using up to (NFOCK): 10 stored Fock matrices.

                    Damping( 0%)  Levelshifting(0.5)       DIIS
                  --------------- ------------------- ---------------
          dE  on:    start            ASAP                start   
          dE off:    2 iters         30 iters            30 iters 

 
      Screening Tolerance Information
      -------------------------------
          Density screening/tol_rho: 1.00D-10
          AO Gaussian exp screening on grid/accAOfunc:  14
          CD Gaussian exp screening on grid/accCDfunc:  20
          XC Gaussian exp screening on grid/accXCfunc:  20
          Schwarz screening/accCoul: 1.00D-08

 
      Superposition of Atomic Density Guess
      -------------------------------------
 
 Sum of atomic energies:         -14.86401107
 
      Non-variational initial energy
      ------------------------------

 Total energy =     -14.802333
 1-e energy   =     -22.837773
 2-e energy   =       6.311711
 HOMO         =      -0.161183
 LUMO         =      -0.022466
 
 
      Symmetry analysis of molecular orbitals - initial
      -------------------------------------------------
 
  Numbering of irreducible representations: 
 
     1 a1g         2 a1u         3 a2g         4 a2u         5 b1g     
     6 b1u         7 b2g         8 b2u         9 eg         10 eu      
 
  Orbital symmetries:
 
     1 a1g         2 a2u         3 a1g         4 a2u         5 eu      
     6 eu          7 a1g         8 a2u         9 eg         10 eg      
    11 a1g        12 eu         13 eu      
 
   Time after variat. SCF:      0.1
   Time prior to 1st pass:      0.1

 #quartets = 1.511D+04 #integrals = 1.160D+05 #direct =  0.0% #cached =100.0%


 Integral file          = ./li2freq.aoints.0
 Record size in doubles =  65536        No. of integs per rec  =  43688
 Max. records in memory =      2        Max. records in file   =  32675
 No. of bits per label  =      8        No. of bits per value  =     64


File balance: exchanges=     0  moved=     0  time=   0.0


 Grid_pts file          = ./li2freq.gridpts.0
 Record size in doubles =  12289        No. of grid_pts per rec  =   3070
 Max. records in memory =      3        Max. recs in file   =    174259


           Memory utilization after 1st SCF pass: 
           Heap Space remaining (MW):       12.94            12937209
          Stack Space remaining (MW):       13.11            13106853

   convergence    iter        energy       DeltaE   RMS-Dens  Diis-err    time
 ---------------- ----- ----------------- --------- --------- ---------  ------
 d= 0,ls=0.0,diis     1    -14.8532902431 -1.66D+01  1.95D-02  2.28D-02     0.2
 d= 0,ls=0.0,diis     2    -14.8557617794 -2.47D-03  1.56D-03  2.88D-04     0.2
 d= 0,ls=0.0,diis     3    -14.8557452444  1.65D-05  9.59D-04  2.54D-04     0.2
 d= 0,ls=0.0,diis     4    -14.8559672725 -2.22D-04  6.46D-05  1.97D-06     0.2
 d= 0,ls=0.0,diis     5    -14.8559680424 -7.70D-07  5.78D-06  3.37D-09     0.3


         Total DFT energy =      -14.855968042437
      One electron energy =      -22.991278386003
           Coulomb energy =        9.945223898771
    Exchange-Corr. energy =       -3.533642903801
 Nuclear repulsion energy =        1.723729348596

 Numeric. integr. density =        6.000000164947

     Total iterative time =      0.2s


 
                       DFT Final Molecular Orbital Analysis
                       ------------------------------------
 
 Vector    1  Occ=2.000000D+00  E=-1.847557D+00  Symmetry=a1g
              MO Center=  0.0D+00,  0.0D+00,  2.0D-16, r^2= 2.0D+00
   Bfn.  Coefficient  Atom+Function         Bfn.  Coefficient  Atom+Function  
  ----- ------------  ---------------      ----- ------------  ---------------
     1     -0.436602  1 Li s                 24     -0.436602  2 Li s          
    25     -0.296556  2 Li s                  2     -0.296556  1 Li s          
 
 Vector    2  Occ=2.000000D+00  E=-1.847345D+00  Symmetry=a2u
              MO Center=  0.0D+00,  0.0D+00, -3.0D-16, r^2= 2.0D+00
   Bfn.  Coefficient  Atom+Function         Bfn.  Coefficient  Atom+Function  
  ----- ------------  ---------------      ----- ------------  ---------------
     1     -0.437637  1 Li s                 24      0.437637  2 Li s          
     2     -0.292405  1 Li s                 25      0.292405  2 Li s          
    20     -0.213352  1 Li s                 43      0.213352  2 Li s          
 
 Vector    3  Occ=2.000000D+00  E=-9.862976D-02  Symmetry=a1g
              MO Center=  6.4D-19,  5.5D-19,  9.1D-16, r^2= 5.7D+00
   Bfn.  Coefficient  Atom+Function         Bfn.  Coefficient  Atom+Function  
  ----- ------------  ---------------      ----- ------------  ---------------
     6      0.326913  1 Li s                 29      0.326913  2 Li s          
    10      0.209653  1 Li s                 33      0.209653  2 Li s          
 
 Vector    4  Occ=0.000000D+00  E=-5.232896D-02  Symmetry=a2u
              MO Center=  9.5D-34,  1.3D-33, -2.5D-15, r^2= 1.3D+01
   Bfn.  Coefficient  Atom+Function         Bfn.  Coefficient  Atom+Function  
  ----- ------------  ---------------      ----- ------------  ---------------
    20     -1.080007  1 Li s                 43      1.080007  2 Li s          
     6     -0.298826  1 Li s                 29      0.298826  2 Li s          
    36      0.216211  2 Li pz                13      0.216211  1 Li pz         
    23     -0.195956  1 Li pz                46     -0.195956  2 Li pz         
    10     -0.161569  1 Li s                 33      0.161569  2 Li s          
 
 Vector    5  Occ=0.000000D+00  E=-3.152799D-02  Symmetry=eu
              MO Center= -1.7D-16, -1.4D-17,  8.0D-16, r^2= 1.3D+01
   Bfn.  Coefficient  Atom+Function         Bfn.  Coefficient  Atom+Function  
  ----- ------------  ---------------      ----- ------------  ---------------
     7     -0.242282  1 Li px                30     -0.242282  2 Li px         
    34     -0.225025  2 Li px                11     -0.225025  1 Li px         
 
 Vector    6  Occ=0.000000D+00  E=-3.152799D-02  Symmetry=eu
              MO Center= -1.6D-16,  4.9D-15,  4.6D-16, r^2= 1.3D+01
   Bfn.  Coefficient  Atom+Function         Bfn.  Coefficient  Atom+Function  
  ----- ------------  ---------------      ----- ------------  ---------------
     8     -0.242282  1 Li py                31     -0.242282  2 Li py         
    35     -0.225025  2 Li py                12     -0.225025  1 Li py         
 
 Vector    7  Occ=0.000000D+00  E=-2.293856D-02  Symmetry=a1g
              MO Center= -6.9D-18,  6.9D-19,  1.2D-15, r^2= 2.0D+01
   Bfn.  Coefficient  Atom+Function         Bfn.  Coefficient  Atom+Function  
  ----- ------------  ---------------      ----- ------------  ---------------
    36      0.305273  2 Li pz                13     -0.305273  1 Li pz         
    43      0.273375  2 Li s                 20      0.273375  1 Li s          
     9     -0.247932  1 Li pz                32      0.247932  2 Li pz         
    23     -0.183567  1 Li pz                46      0.183567  2 Li pz         
 
 Vector    8  Occ=0.000000D+00  E= 2.732557D-03  Symmetry=a1g
              MO Center=  8.4D-16, -4.6D-15, -1.8D-13, r^2= 3.9D+01
   Bfn.  Coefficient  Atom+Function         Bfn.  Coefficient  Atom+Function  
  ----- ------------  ---------------      ----- ------------  ---------------
    10     -0.803148  1 Li s                 33     -0.803148  2 Li s          
    43      0.778159  2 Li s                 20      0.778159  1 Li s          
    46     -0.395787  2 Li pz                23      0.395787  1 Li pz         
    36     -0.330605  2 Li pz                13      0.330605  1 Li pz         
 
 Vector    9  Occ=0.000000D+00  E= 3.482675D-03  Symmetry=eg
              MO Center= -1.6D-17, -9.0D-18, -9.3D-15, r^2= 4.2D+01
   Bfn.  Coefficient  Atom+Function         Bfn.  Coefficient  Atom+Function  
  ----- ------------  ---------------      ----- ------------  ---------------
    21      1.336740  1 Li px                44     -1.336740  2 Li px         
    22      0.704742  1 Li py                45     -0.704742  2 Li py         
    34     -0.415231  2 Li px                11      0.415231  1 Li px         
    35     -0.218914  2 Li py                12      0.218914  1 Li py         
 
 Vector   10  Occ=0.000000D+00  E= 3.482675D-03  Symmetry=eg
              MO Center= -1.1D-18,  1.5D-18, -8.9D-16, r^2= 4.2D+01
   Bfn.  Coefficient  Atom+Function         Bfn.  Coefficient  Atom+Function  
  ----- ------------  ---------------      ----- ------------  ---------------
    22     -1.336740  1 Li py                45      1.336740  2 Li py         
    44     -0.704742  2 Li px                21      0.704742  1 Li px         
    35      0.415231  2 Li py                12     -0.415231  1 Li py         
    11      0.218914  1 Li px                34     -0.218914  2 Li px         
 
 Vector   11  Occ=0.000000D+00  E= 5.320782D-03  Symmetry=a2u
              MO Center=  4.4D-18,  1.8D-18,  4.3D-13, r^2= 6.7D+01
   Bfn.  Coefficient  Atom+Function         Bfn.  Coefficient  Atom+Function  
  ----- ------------  ---------------      ----- ------------  ---------------
    20    -10.926305  1 Li s                 43     10.926305  2 Li s          
    23     -3.162495  1 Li pz                46     -3.162495  2 Li pz         
    33      0.688414  2 Li s                 10     -0.688414  1 Li s          
    29      0.166045  2 Li s                  6     -0.166045  1 Li s          
 
 Vector   12  Occ=0.000000D+00  E= 9.078698D-03  Symmetry=eu
              MO Center= -7.0D-18, -2.0D-17,  1.7D-14, r^2= 5.4D+01
   Bfn.  Coefficient  Atom+Function         Bfn.  Coefficient  Atom+Function  
  ----- ------------  ---------------      ----- ------------  ---------------
    45     -0.573298  2 Li py                22     -0.573298  1 Li py         
    12      0.263572  1 Li py                35      0.263572  2 Li py         
    44     -0.223134  2 Li px                21     -0.223134  1 Li px         
 
 Vector   13  Occ=0.000000D+00  E= 9.078698D-03  Symmetry=eu
              MO Center= -1.4D-17,  4.8D-18, -5.3D-15, r^2= 5.4D+01
   Bfn.  Coefficient  Atom+Function         Bfn.  Coefficient  Atom+Function  
  ----- ------------  ---------------      ----- ------------  ---------------
    21      0.573298  1 Li px                44      0.573298  2 Li px         
    11     -0.263572  1 Li px                34     -0.263572  2 Li px         
    22     -0.223134  1 Li py                45     -0.223134  2 Li py         
 
 Vector   14  Occ=0.000000D+00  E= 1.357391D-02  Symmetry=a1g
              MO Center= -2.1D-17,  1.7D-17,  2.7D-15, r^2= 7.0D+01
   Bfn.  Coefficient  Atom+Function         Bfn.  Coefficient  Atom+Function  
  ----- ------------  ---------------      ----- ------------  ---------------
    46      1.737476  2 Li pz                23     -1.737476  1 Li pz         
    20      0.311869  1 Li s                 43      0.311869  2 Li s          
     9      0.163281  1 Li pz                32     -0.163281  2 Li pz         
 
 Vector   15  Occ=0.000000D+00  E= 2.536914D-02  Symmetry=a2u
              MO Center=  1.9D-18,  7.5D-19,  6.3D-13, r^2= 8.0D+01
   Bfn.  Coefficient  Atom+Function         Bfn.  Coefficient  Atom+Function  
  ----- ------------  ---------------      ----- ------------  ---------------
    20    -63.760100  1 Li s                 43     63.760100  2 Li s          
    23    -14.541604  1 Li pz                46    -14.541604  2 Li pz         
    13     -0.833465  1 Li pz                36     -0.833465  2 Li pz         
    33      0.359248  2 Li s                 10     -0.359248  1 Li s          
 
 Vector   16  Occ=0.000000D+00  E= 3.061121D-02  Symmetry=eg
              MO Center=  3.7D-31,  5.2D-31, -4.4D-15, r^2= 5.0D+01
   Bfn.  Coefficient  Atom+Function         Bfn.  Coefficient  Atom+Function  
  ----- ------------  ---------------      ----- ------------  ---------------
    22     -2.072098  1 Li py                45      2.072098  2 Li py         
    12      1.030240  1 Li py                35     -1.030240  2 Li py         
    44      0.710486  2 Li px                21     -0.710486  1 Li px         
    11      0.353251  1 Li px                34     -0.353251  2 Li px         
     8      0.181819  1 Li py                31     -0.181819  2 Li py         
 
 Vector   17  Occ=0.000000D+00  E= 3.061121D-02  Symmetry=eg
              MO Center=  2.4D-32, -4.0D-32,  4.5D-15, r^2= 5.0D+01
   Bfn.  Coefficient  Atom+Function         Bfn.  Coefficient  Atom+Function  
  ----- ------------  ---------------      ----- ------------  ---------------
    44      2.072098  2 Li px                21     -2.072098  1 Li px         
    34     -1.030240  2 Li px                11      1.030240  1 Li px         
    45     -0.710486  2 Li py                22      0.710486  1 Li py         
    35      0.353251  2 Li py                12     -0.353251  1 Li py         
    30     -0.181819  2 Li px                 7      0.181819  1 Li px         
 
 Vector   18  Occ=0.000000D+00  E= 5.522723D-02  Symmetry=a2u
              MO Center=  9.7D-18,  3.9D-18,  1.9D-14, r^2= 4.1D+01
   Bfn.  Coefficient  Atom+Function         Bfn.  Coefficient  Atom+Function  
  ----- ------------  ---------------      ----- ------------  ---------------
    10     -9.037763  1 Li s                 33      9.037763  2 Li s          
    20      7.780089  1 Li s                 43     -7.780089  2 Li s          
    13     -4.842686  1 Li pz                36     -4.842686  2 Li pz         
    23      2.333253  1 Li pz                46      2.333253  2 Li pz         
     9      0.221077  1 Li pz                32      0.221077  2 Li pz         
 
 Vector   19  Occ=0.000000D+00  E= 7.556831D-02  Symmetry=a1g
              MO Center= -1.6D-18, -1.2D-17, -1.1D-14, r^2= 3.4D+01
   Bfn.  Coefficient  Atom+Function         Bfn.  Coefficient  Atom+Function  
  ----- ------------  ---------------      ----- ------------  ---------------
    13      1.567393  1 Li pz                36     -1.567393  2 Li pz         
    23     -1.240157  1 Li pz                46      1.240157  2 Li pz         
     9     -0.641326  1 Li pz                32      0.641326  2 Li pz         
     6     -0.474526  1 Li s                 29     -0.474526  2 Li s          
    10      0.246669  1 Li s                 33      0.246669  2 Li s          
 
 Vector   20  Occ=0.000000D+00  E= 8.504091D-02  Symmetry=eu
              MO Center= -3.2D-17, -4.7D-17,  1.4D-16, r^2= 2.8D+01
   Bfn.  Coefficient  Atom+Function         Bfn.  Coefficient  Atom+Function  
  ----- ------------  ---------------      ----- ------------  ---------------
    12     -0.935111  1 Li py                35     -0.935111  2 Li py         
     8      0.705230  1 Li py                31      0.705230  2 Li py         
    34      0.663741  2 Li px                11      0.663741  1 Li px         
    30     -0.500572  2 Li px                 7     -0.500572  1 Li px         
    22      0.368438  1 Li py                45      0.368438  2 Li py         
 
 Vector   21  Occ=0.000000D+00  E= 8.504091D-02  Symmetry=eu
              MO Center= -3.0D-16, -1.5D-16,  1.8D-15, r^2= 2.8D+01
   Bfn.  Coefficient  Atom+Function         Bfn.  Coefficient  Atom+Function  
  ----- ------------  ---------------      ----- ------------  ---------------
    34      0.935111  2 Li px                11      0.935111  1 Li px         
    30     -0.705230  2 Li px                 7     -0.705230  1 Li px         
    12      0.663741  1 Li py                35      0.663741  2 Li py         
     8     -0.500572  1 Li py                31     -0.500572  2 Li py         
    44     -0.368438  2 Li px                21     -0.368438  1 Li px         
 
 Vector   22  Occ=0.000000D+00  E= 8.839383D-02  Symmetry=a1g
              MO Center=  1.2D-17, -5.9D-17, -1.7D-13, r^2= 2.5D+01
   Bfn.  Coefficient  Atom+Function         Bfn.  Coefficient  Atom+Function  
  ----- ------------  ---------------      ----- ------------  ---------------
    10      2.138821  1 Li s                 33      2.138821  2 Li s          
     6     -1.877244  1 Li s                 29     -1.877244  2 Li s          
    20     -0.697005  1 Li s                 43     -0.697005  2 Li s          
     9      0.371621  1 Li pz                32     -0.371621  2 Li pz         
    36      0.314346  2 Li pz                13     -0.314346  1 Li pz         
 
 Vector   23  Occ=0.000000D+00  E= 1.085242D-01  Symmetry=eg
              MO Center= -2.2D-16,  3.9D-16, -4.8D-15, r^2= 2.4D+01
   Bfn.  Coefficient  Atom+Function         Bfn.  Coefficient  Atom+Function  
  ----- ------------  ---------------      ----- ------------  ---------------
    11     -1.852753  1 Li px                34      1.852753  2 Li px         
    21      1.198357  1 Li px                44     -1.198357  2 Li px         
     7      1.062131  1 Li px                30     -1.062131  2 Li px         
    35     -0.812865  2 Li py                12      0.812865  1 Li py         
    45      0.525760  2 Li py                22     -0.525760  1 Li py         
 
 Vector   24  Occ=0.000000D+00  E= 1.085242D-01  Symmetry=eg
              MO Center=  3.9D-17,  2.4D-17,  3.2D-15, r^2= 2.4D+01
   Bfn.  Coefficient  Atom+Function         Bfn.  Coefficient  Atom+Function  
  ----- ------------  ---------------      ----- ------------  ---------------
    35     -1.852753  2 Li py                12      1.852753  1 Li py         
    45      1.198357  2 Li py                22     -1.198357  1 Li py         
    31      1.062131  2 Li py                 8     -1.062131  1 Li py         
    11      0.812865  1 Li px                34     -0.812865  2 Li px         
    21     -0.525760  1 Li px                44      0.525760  2 Li px         
 
 Vector   25  Occ=0.000000D+00  E= 1.109996D-01  Symmetry=a2u
              MO Center=  4.3D-17,  2.9D-16, -2.0D-13, r^2= 2.8D+01
   Bfn.  Coefficient  Atom+Function         Bfn.  Coefficient  Atom+Function  
  ----- ------------  ---------------      ----- ------------  ---------------
    43     31.597160  2 Li s                 20    -31.597160  1 Li s          
    33     -7.996910  2 Li s                 10      7.996910  1 Li s          
    23     -6.925805  1 Li pz                46     -6.925805  2 Li pz         
    13      1.735956  1 Li pz                36      1.735956  2 Li pz         
     6     -1.357327  1 Li s                 29      1.357327  2 Li s          
 
 Vector   26  Occ=0.000000D+00  E= 1.878316D-01  Symmetry=a2u
              MO Center=  4.1D-16, -4.3D-16, -7.3D-15, r^2= 1.4D+01
   Bfn.  Coefficient  Atom+Function         Bfn.  Coefficient  Atom+Function  
  ----- ------------  ---------------      ----- ------------  ---------------
    33      7.637326  2 Li s                 10     -7.637326  1 Li s          
    43     -7.636111  2 Li s                 20      7.636111  1 Li s          
    13     -3.603716  1 Li pz                36     -3.603716  2 Li pz         
     6      2.632726  1 Li s                 29     -2.632726  2 Li s          
    46      1.929245  2 Li pz                23      1.929245  1 Li pz         
 
 Vector   27  Occ=0.000000D+00  E= 3.803871D-01  Symmetry=a1g
              MO Center= -8.7D-18,  7.2D-18,  7.9D-15, r^2= 9.3D+00
   Bfn.  Coefficient  Atom+Function         Bfn.  Coefficient  Atom+Function  
  ----- ------------  ---------------      ----- ------------  ---------------
     9      0.972813  1 Li pz                32     -0.972813  2 Li pz         
    13     -0.906902  1 Li pz                36      0.906902  2 Li pz         
    28      0.683011  2 Li pz                 5     -0.683011  1 Li pz         
    46     -0.434847  2 Li pz                23      0.434847  1 Li pz         
    19     -0.393346  1 Li dzz               42     -0.393346  2 Li dzz        
 
 Vector   28  Occ=0.000000D+00  E= 3.873913D-01  Symmetry=eu
              MO Center=  3.0D-16, -3.6D-16,  1.4D-15, r^2= 4.7D+00
   Bfn.  Coefficient  Atom+Function         Bfn.  Coefficient  Atom+Function  
  ----- ------------  ---------------      ----- ------------  ---------------
    18      1.087432  1 Li dyz               41     -1.087432  2 Li dyz        
    31     -0.198934  2 Li py                 8     -0.198934  1 Li py         
 
 Vector   29  Occ=0.000000D+00  E= 3.873913D-01  Symmetry=eu
              MO Center= -4.5D-16, -2.5D-16, -2.1D-15, r^2= 4.7D+00
   Bfn.  Coefficient  Atom+Function         Bfn.  Coefficient  Atom+Function  
  ----- ------------  ---------------      ----- ------------  ---------------
    16     -1.087432  1 Li dxz               39      1.087432  2 Li dxz        
     7      0.198934  1 Li px                30      0.198934  2 Li px         
 
 Vector   30  Occ=0.000000D+00  E= 4.130313D-01  Symmetry=a2u
              MO Center= -1.6D-18, -3.5D-19,  1.1D-14, r^2= 1.0D+01
   Bfn.  Coefficient  Atom+Function         Bfn.  Coefficient  Atom+Function  
  ----- ------------  ---------------      ----- ------------  ---------------
    20      7.481189  1 Li s                 43     -7.481189  2 Li s          
     9     -2.071021  1 Li pz                32     -2.071021  2 Li pz         
    23      1.509051  1 Li pz                46      1.509051  2 Li pz         
    13      1.090234  1 Li pz                36      1.090234  2 Li pz         
    28      0.824361  2 Li pz                 5      0.824361  1 Li pz         
 
 Vector   31  Occ=0.000000D+00  E= 4.202602D-01  Symmetry=b2g
              MO Center= -3.2D-16,  2.6D-16,  7.9D-30, r^2= 4.2D+00
   Bfn.  Coefficient  Atom+Function         Bfn.  Coefficient  Atom+Function  
  ----- ------------  ---------------      ----- ------------  ---------------
    15      1.186519  1 Li dxy               38      1.186519  2 Li dxy        
 
 Vector   32  Occ=0.000000D+00  E= 4.202602D-01  Symmetry=b1g
              MO Center=  3.3D-16,  3.5D-16,  2.8D-16, r^2= 4.2D+00
   Bfn.  Coefficient  Atom+Function         Bfn.  Coefficient  Atom+Function  
  ----- ------------  ---------------      ----- ------------  ---------------
    40      0.593259  2 Li dyy               17      0.593259  1 Li dyy        
    37     -0.593259  2 Li dxx               14     -0.593259  1 Li dxx        
 
 Vector   33  Occ=0.000000D+00  E= 4.351792D-01  Symmetry=eu
              MO Center=  1.0D-16,  9.2D-17,  5.5D-14, r^2= 7.6D+00
   Bfn.  Coefficient  Atom+Function         Bfn.  Coefficient  Atom+Function  
  ----- ------------  ---------------      ----- ------------  ---------------
     7      0.736535  1 Li px                30      0.736535  2 Li px         
    31      0.682998  2 Li py                 8      0.682998  1 Li py         
     3     -0.664293  1 Li px                26     -0.664293  2 Li px         
    27     -0.616007  2 Li py                 4     -0.616007  1 Li py         
    11     -0.442477  1 Li px                34     -0.442477  2 Li px         
 
 Vector   34  Occ=0.000000D+00  E= 4.351792D-01  Symmetry=eu
              MO Center=  2.2D-18, -2.4D-18, -1.6D-16, r^2= 7.6D+00
   Bfn.  Coefficient  Atom+Function         Bfn.  Coefficient  Atom+Function  
  ----- ------------  ---------------      ----- ------------  ---------------
     8     -0.736535  1 Li py                31     -0.736535  2 Li py         
     7      0.682998  1 Li px                30      0.682998  2 Li px         
    27      0.664293  2 Li py                 4      0.664293  1 Li py         
    26     -0.616007  2 Li px                 3     -0.616007  1 Li px         
    12      0.442477  1 Li py                35      0.442477  2 Li py         
 
 Vector   35  Occ=0.000000D+00  E= 4.372672D-01  Symmetry=eg
              MO Center=  7.2D-17,  5.7D-18,  2.1D-14, r^2= 8.3D+00
   Bfn.  Coefficient  Atom+Function         Bfn.  Coefficient  Atom+Function  
  ----- ------------  ---------------      ----- ------------  ---------------
    30     -1.292622  2 Li px                 7      1.292622  1 Li px         
    34      1.084582  2 Li px                11     -1.084582  1 Li px         
    26      0.888514  2 Li px                 3     -0.888514  1 Li px         
    44     -0.521077  2 Li px                21      0.521077  1 Li px         
    31     -0.220982  2 Li py                 8      0.220982  1 Li py         
 
 Vector   36  Occ=0.000000D+00  E= 4.372672D-01  Symmetry=eg
              MO Center=  4.3D-17,  4.5D-17, -7.7D-14, r^2= 8.3D+00
   Bfn.  Coefficient  Atom+Function         Bfn.  Coefficient  Atom+Function  
  ----- ------------  ---------------      ----- ------------  ---------------
     8     -1.292622  1 Li py                31      1.292622  2 Li py         
    12      1.084582  1 Li py                35     -1.084582  2 Li py         
     4      0.888514  1 Li py                27     -0.888514  2 Li py         
    22     -0.521077  1 Li py                45      0.521077  2 Li py         
    30     -0.220982  2 Li px                 7      0.220982  1 Li px         
 
 Vector   37  Occ=0.000000D+00  E= 4.867629D-01  Symmetry=b1u
              MO Center= -7.4D-16, -1.1D-15,  1.6D-29, r^2= 4.5D+00
   Bfn.  Coefficient  Atom+Function         Bfn.  Coefficient  Atom+Function  
  ----- ------------  ---------------      ----- ------------  ---------------
    15      1.266921  1 Li dxy               38     -1.266921  2 Li dxy        
 
 Vector   38  Occ=0.000000D+00  E= 4.867630D-01  Symmetry=b2u
              MO Center=  3.6D-16,  2.8D-16,  1.1D-16, r^2= 4.5D+00
   Bfn.  Coefficient  Atom+Function         Bfn.  Coefficient  Atom+Function  
  ----- ------------  ---------------      ----- ------------  ---------------
    17      0.633460  1 Li dyy               40     -0.633460  2 Li dyy        
    37      0.633460  2 Li dxx               14     -0.633460  1 Li dxx        
 
 Vector   39  Occ=0.000000D+00  E= 5.675000D-01  Symmetry=a1g
              MO Center=  1.3D-17, -2.0D-17, -3.8D-15, r^2= 6.9D+00
   Bfn.  Coefficient  Atom+Function         Bfn.  Coefficient  Atom+Function  
  ----- ------------  ---------------      ----- ------------  ---------------
    29      1.288910  2 Li s                  6      1.288910  1 Li s          
    33     -0.805839  2 Li s                 10     -0.805839  1 Li s          
    19     -0.798540  1 Li dzz               42     -0.798540  2 Li dzz        
    32      0.682459  2 Li pz                 9     -0.682459  1 Li pz         
     5      0.661935  1 Li pz                28     -0.661935  2 Li pz         
 

 center of mass
 --------------
 x =   0.00000000 y =   0.00000000 z =   0.00000000

 moments of inertia (a.u.)
 ------------------
          95.632707489389           0.000000000000           0.000000000000
           0.000000000000          95.632707489389           0.000000000000
           0.000000000000           0.000000000000           0.000000000000
 
     Multipole analysis of the density
     ---------------------------------
 
     L   x y z        total         alpha         beta         nuclear
     -   - - -        -----         -----         ----         -------
     0   0 0 0      0.000000     -3.000000     -3.000000      6.000000
 
     1   1 0 0      0.000000      0.000000      0.000000      0.000000
     1   0 1 0      0.000000      0.000000      0.000000      0.000000
     1   0 0 1      0.000000      0.000000      0.000000      0.000000
 
     2   2 0 0    -12.453445     -6.226722     -6.226722      0.000000
     2   1 1 0      0.000000      0.000000      0.000000      0.000000
     2   1 0 1      0.000000      0.000000      0.000000      0.000000
     2   0 2 0    -12.453445     -6.226722     -6.226722      0.000000
     2   0 1 1      0.000000      0.000000      0.000000      0.000000
     2   0 0 2     -3.744227    -22.318103    -22.318103     40.891979
 

 Parallel integral file used       4 records with       0 large values

 
 
                            NWChem DFT Gradient Module
                            --------------------------
 
 

  charge          =   0.00
  wavefunction    = closed shell

  Using symmetry


                         DFT ENERGY GRADIENTS

    atom               coordinates                        gradient
                 x          y          z           x          y          z
   1 li      0.000000   0.000000  -2.610619    0.000000   0.000000   0.000910
   2 li      0.000000   0.000000   2.610619    0.000000   0.000000  -0.000910
 
                 ----------------------------------------
                 |  Time  |  1-e(secs)   |  2-e(secs)   |
                 ----------------------------------------
                 |  CPU   |       0.00   |       0.10   |
                 ----------------------------------------
                 |  WALL  |       0.00   |       0.11   |
                 ----------------------------------------

@ Step       Energy      Delta E   Gmax     Grms     Xrms     Xmax   Walltime
@ ---- ---------------- -------- -------- -------- -------- -------- --------
@    0     -14.85596804  0.0D+00  0.00091  0.00091  0.00000  0.00000      0.9
                                                       ok       ok  



                                Z-matrix (autoz)
                                -------- 

 Units are Angstrom for bonds and degrees for angles
 
      Type          Name      I     J     K     L     M      Value     Gradient
      ----------- --------  ----- ----- ----- ----- ----- ---------- ----------
    1 Stretch                  1     2                       2.76296   -0.00091
 
                                 NWChem DFT Module
                                 -----------------
 
 
  Caching 1-el integrals 
 
            General Information
            -------------------
          SCF calculation type: DFT
          Wavefunction type:  closed shell.
          No. of atoms     :     2
          No. of electrons :     6
           Alpha electrons :     3
            Beta electrons :     3
          Charge           :     0
          Spin multiplicity:     1
          Use of symmetry is: on ; symmetry adaption is: on 
          Maximum number of iterations:  30
          AO basis - number of functions:    46
                     number of shells:    20
          Convergence on energy requested: 1.00D-06
          Convergence on density requested: 1.00D-05
          Convergence on gradient requested: 5.00D-04
 
              XC Information
              --------------
                        mPW91  Exchange Functional  1.000          
  WARNING: Sum of local correlation is   0.000000000000000E+000
  Sum of components do not equal unity. 
 
             Grid Information
             ----------------
          Grid used for XC integration:  medium    
          Radial quadrature: Mura-Knowles        
          Angular quadrature: Lebedev. 
          Tag              B.-S. Rad. Rad. Pts. Rad. Cut. Ang. Pts.
          ---              ---------- --------- --------- ---------
          li                  1.45       49          23.0       434
          Grid pruning is: on 
          Number of quadrature shells:    49
          Spatial weights used:  Erf1
 
          Convergence Information
          -----------------------
          Convergence aids based upon iterative change in 
          total energy or number of iterations. 
          Levelshifting, if invoked, occurs when the 
          HOMO/LUMO gap drops below (HL_TOL): 1.00D-02
          DIIS, if invoked, will attempt to extrapolate 
          using up to (NFOCK): 10 stored Fock matrices.

                    Damping( 0%)  Levelshifting(0.5)       DIIS
                  --------------- ------------------- ---------------
          dE  on:    start            ASAP                start   
          dE off:    2 iters         30 iters            30 iters 

 
      Screening Tolerance Information
      -------------------------------
          Density screening/tol_rho: 1.00D-10
          AO Gaussian exp screening on grid/accAOfunc:  14
          CD Gaussian exp screening on grid/accCDfunc:  20
          XC Gaussian exp screening on grid/accXCfunc:  20
          Schwarz screening/accCoul: 1.00D-08


 Loading old vectors from job with title :



 
      Symmetry analysis of molecular orbitals - initial
      -------------------------------------------------
 
  Numbering of irreducible representations: 
 
     1 a1g         2 a1u         3 a2g         4 a2u         5 b1g     
     6 b1u         7 b2g         8 b2u         9 eg         10 eu      
 
  Orbital symmetries:
 
     1 a1g         2 a2u         3 a1g         4 a2u         5 eu      
     6 eu          7 a1g         8 a1g         9 eg         10 eg      
    11 a2u        12 eu         13 eu      
 
   Time after variat. SCF:      0.5
   Time prior to 1st pass:      0.5

 #quartets = 1.511D+04 #integrals = 1.160D+05 #direct =  0.0% #cached =100.0%


 Integral file          = ./li2freq.aoints.0
 Record size in doubles =  65536        No. of integs per rec  =  43688
 Max. records in memory =      2        Max. records in file   =  32675
 No. of bits per label  =      8        No. of bits per value  =     64


File balance: exchanges=     0  moved=     0  time=   0.0


 Grid_pts file          = ./li2freq.gridpts.0
 Record size in doubles =  12289        No. of grid_pts per rec  =   3070
 Max. records in memory =      3        Max. recs in file   =    174259


           Memory utilization after 1st SCF pass: 
           Heap Space remaining (MW):       12.94            12937209
          Stack Space remaining (MW):       13.11            13106853

   convergence    iter        energy       DeltaE   RMS-Dens  Diis-err    time
 ---------------- ----- ----------------- --------- --------- ---------  ------
 d= 0,ls=0.0,diis     1    -14.8559720176 -1.66D+01  5.08D-05  1.91D-07     0.6
 d= 0,ls=0.0,diis     2    -14.8559720398 -2.22D-08  1.17D-05  1.59D-08     0.6
 d= 0,ls=0.0,diis     3    -14.8559720446 -4.81D-09  5.62D-06  9.19D-09     0.6


         Total DFT energy =      -14.855972044650
      One electron energy =      -22.988503950819
           Coulomb energy =        9.943905441314
    Exchange-Corr. energy =       -3.533600964668
 Nuclear repulsion energy =        1.722227429523

 Numeric. integr. density =        6.000000156909

     Total iterative time =      0.2s


 
                       DFT Final Molecular Orbital Analysis
                       ------------------------------------
 
 Vector    1  Occ=2.000000D+00  E=-1.847597D+00  Symmetry=a1g
              MO Center=  0.0D+00,  0.0D+00,  1.7D-16, r^2= 2.0D+00
   Bfn.  Coefficient  Atom+Function         Bfn.  Coefficient  Atom+Function  
  ----- ------------  ---------------      ----- ------------  ---------------
    24     -0.436604  2 Li s                  1     -0.436604  1 Li s          
     2     -0.296560  1 Li s                 25     -0.296560  2 Li s          
 
 Vector    2  Occ=2.000000D+00  E=-1.847388D+00  Symmetry=a2u
              MO Center=  0.0D+00,  0.0D+00, -3.7D-16, r^2= 2.0D+00
   Bfn.  Coefficient  Atom+Function         Bfn.  Coefficient  Atom+Function  
  ----- ------------  ---------------      ----- ------------  ---------------
     1     -0.437637  1 Li s                 24      0.437637  2 Li s          
     2     -0.292407  1 Li s                 25      0.292407  2 Li s          
    43      0.212848  2 Li s                 20     -0.212848  1 Li s          
 
 Vector    3  Occ=2.000000D+00  E=-9.861496D-02  Symmetry=a1g
              MO Center=  1.3D-17,  9.1D-18, -1.2D-15, r^2= 5.7D+00
   Bfn.  Coefficient  Atom+Function         Bfn.  Coefficient  Atom+Function  
  ----- ------------  ---------------      ----- ------------  ---------------
     6      0.326995  1 Li s                 29      0.326995  2 Li s          
    10      0.209707  1 Li s                 33      0.209707  2 Li s          
 
 Vector    4  Occ=0.000000D+00  E=-5.236235D-02  Symmetry=a2u
              MO Center= -6.0D-33, -4.1D-33,  1.0D-15, r^2= 1.3D+01
   Bfn.  Coefficient  Atom+Function         Bfn.  Coefficient  Atom+Function  
  ----- ------------  ---------------      ----- ------------  ---------------
    20      1.076808  1 Li s                 43     -1.076808  2 Li s          
    29     -0.298963  2 Li s                  6      0.298963  1 Li s          
    36     -0.215848  2 Li pz                13     -0.215848  1 Li pz         
    46      0.195482  2 Li pz                23      0.195482  1 Li pz         
    33     -0.162260  2 Li s                 10      0.162260  1 Li s          
 
 Vector    5  Occ=0.000000D+00  E=-3.151380D-02  Symmetry=eu
              MO Center= -3.2D-16,  5.1D-16,  6.4D-16, r^2= 1.3D+01
   Bfn.  Coefficient  Atom+Function         Bfn.  Coefficient  Atom+Function  
  ----- ------------  ---------------      ----- ------------  ---------------
     8     -0.235591  1 Li py                31     -0.235591  2 Li py         
    35     -0.218908  2 Li py                12     -0.218908  1 Li py         
 
 Vector    6  Occ=0.000000D+00  E=-3.151380D-02  Symmetry=eu
              MO Center= -1.0D-17,  3.4D-17, -1.1D-15, r^2= 1.3D+01
   Bfn.  Coefficient  Atom+Function         Bfn.  Coefficient  Atom+Function  
  ----- ------------  ---------------      ----- ------------  ---------------
     7     -0.235591  1 Li px                30     -0.235591  2 Li px         
    34     -0.218908  2 Li px                11     -0.218908  1 Li px         
 
 Vector    7  Occ=0.000000D+00  E=-2.295545D-02  Symmetry=a1g
              MO Center= -4.1D-17, -1.4D-16,  1.8D-14, r^2= 2.0D+01
   Bfn.  Coefficient  Atom+Function         Bfn.  Coefficient  Atom+Function  
  ----- ------------  ---------------      ----- ------------  ---------------
    36      0.305214  2 Li pz                13     -0.305214  1 Li pz         
    20      0.273100  1 Li s                 43      0.273100  2 Li s          
     9     -0.248011  1 Li pz                32      0.248011  2 Li pz         
    46      0.183500  2 Li pz                23     -0.183500  1 Li pz         
 
 Vector    8  Occ=0.000000D+00  E= 2.718386D-03  Symmetry=a1g
              MO Center=  6.2D-18, -3.0D-16, -1.1D-13, r^2= 3.9D+01
   Bfn.  Coefficient  Atom+Function         Bfn.  Coefficient  Atom+Function  
  ----- ------------  ---------------      ----- ------------  ---------------
    10      0.802991  1 Li s                 33      0.802991  2 Li s          
    43     -0.778415  2 Li s                 20     -0.778415  1 Li s          
    46      0.394724  2 Li pz                23     -0.394724  1 Li pz         
    36      0.330050  2 Li pz                13     -0.330050  1 Li pz         
 
 Vector    9  Occ=0.000000D+00  E= 3.463259D-03  Symmetry=eg
              MO Center=  5.3D-32,  3.4D-32,  4.4D-16, r^2= 4.2D+01
   Bfn.  Coefficient  Atom+Function         Bfn.  Coefficient  Atom+Function  
  ----- ------------  ---------------      ----- ------------  ---------------
    21      1.284822  1 Li px                44     -1.284822  2 Li px         
    22      0.791416  1 Li py                45     -0.791416  2 Li py         
    34     -0.399564  2 Li px                11      0.399564  1 Li px         
    12      0.246121  1 Li py                35     -0.246121  2 Li py         
 
 Vector   10  Occ=0.000000D+00  E= 3.463259D-03  Symmetry=eg
              MO Center= -1.3D-31,  2.1D-31,  8.9D-16, r^2= 4.2D+01
   Bfn.  Coefficient  Atom+Function         Bfn.  Coefficient  Atom+Function  
  ----- ------------  ---------------      ----- ------------  ---------------
    45     -1.284822  2 Li py                22      1.284822  1 Li py         
    44      0.791416  2 Li px                21     -0.791416  1 Li px         
    12      0.399564  1 Li py                35     -0.399564  2 Li py         
    34      0.246121  2 Li px                11     -0.246121  1 Li px         
 
 Vector   11  Occ=0.000000D+00  E= 5.310599D-03  Symmetry=a2u
              MO Center=  7.2D-18, -3.1D-18,  4.2D-13, r^2= 6.7D+01
   Bfn.  Coefficient  Atom+Function         Bfn.  Coefficient  Atom+Function  
  ----- ------------  ---------------      ----- ------------  ---------------
    20     10.882298  1 Li s                 43    -10.882298  2 Li s          
    46      3.154734  2 Li pz                23      3.154734  1 Li pz         
    33     -0.688310  2 Li s                 10      0.688310  1 Li s          
    29     -0.166021  2 Li s                  6      0.166021  1 Li s          
 
 Vector   12  Occ=0.000000D+00  E= 9.078350D-03  Symmetry=eu
              MO Center=  1.2D-17,  5.4D-18, -2.2D-15, r^2= 5.4D+01
   Bfn.  Coefficient  Atom+Function         Bfn.  Coefficient  Atom+Function  
  ----- ------------  ---------------      ----- ------------  ---------------
    22     -0.545896  1 Li py                45     -0.545896  2 Li py         
    21     -0.283853  1 Li px                44     -0.283853  2 Li px         
    12      0.251218  1 Li py                35      0.251218  2 Li py         
 
 Vector   13  Occ=0.000000D+00  E= 9.078350D-03  Symmetry=eu
              MO Center=  5.7D-18, -9.0D-18,  1.3D-15, r^2= 5.4D+01
   Bfn.  Coefficient  Atom+Function         Bfn.  Coefficient  Atom+Function  
  ----- ------------  ---------------      ----- ------------  ---------------
    44     -0.545896  2 Li px                21     -0.545896  1 Li px         
    45      0.283853  2 Li py                22      0.283853  1 Li py         
    34      0.251218  2 Li px                11      0.251218  1 Li px         
 
 Vector   14  Occ=0.000000D+00  E= 1.356779D-02  Symmetry=a1g
              MO Center=  3.0D-18, -1.6D-17, -1.7D-13, r^2= 7.0D+01
   Bfn.  Coefficient  Atom+Function         Bfn.  Coefficient  Atom+Function  
  ----- ------------  ---------------      ----- ------------  ---------------
    23      1.736350  1 Li pz                46     -1.736350  2 Li pz         
    43     -0.311519  2 Li s                 20     -0.311519  1 Li s          
     9     -0.163236  1 Li pz                32      0.163236  2 Li pz         
 
 Vector   15  Occ=0.000000D+00  E= 2.536203D-02  Symmetry=a2u
              MO Center= -2.7D-17,  1.4D-17,  3.6D-13, r^2= 8.0D+01
   Bfn.  Coefficient  Atom+Function         Bfn.  Coefficient  Atom+Function  
  ----- ------------  ---------------      ----- ------------  ---------------
    20     63.595003  1 Li s                 43    -63.595003  2 Li s          
    46     14.516936  2 Li pz                23     14.516936  1 Li pz         
    13      0.832748  1 Li pz                36      0.832748  2 Li pz         
    33     -0.356563  2 Li s                 10      0.356563  1 Li s          
 
 Vector   16  Occ=0.000000D+00  E= 3.058300D-02  Symmetry=eg
              MO Center=  5.4D-20,  1.6D-20,  6.1D-16, r^2= 5.0D+01
   Bfn.  Coefficient  Atom+Function         Bfn.  Coefficient  Atom+Function  
  ----- ------------  ---------------      ----- ------------  ---------------
    21      2.098246  1 Li px                44     -2.098246  2 Li px         
    34      1.042430  2 Li px                11     -1.042430  1 Li px         
    45     -0.624348  2 Li py                22      0.624348  1 Li py         
    35      0.310182  2 Li py                12     -0.310182  1 Li py         
     7     -0.184325  1 Li px                30      0.184325  2 Li px         
 
 Vector   17  Occ=0.000000D+00  E= 3.058300D-02  Symmetry=eg
              MO Center= -1.6D-20,  5.3D-20, -2.7D-15, r^2= 5.0D+01
   Bfn.  Coefficient  Atom+Function         Bfn.  Coefficient  Atom+Function  
  ----- ------------  ---------------      ----- ------------  ---------------
    22     -2.098246  1 Li py                45      2.098246  2 Li py         
    35     -1.042430  2 Li py                12      1.042430  1 Li py         
    21      0.624348  1 Li px                44     -0.624348  2 Li px         
    11     -0.310182  1 Li px                34      0.310182  2 Li px         
     8      0.184325  1 Li py                31     -0.184325  2 Li py         
 
 Vector   18  Occ=0.000000D+00  E= 5.520916D-02  Symmetry=a2u
              MO Center= -4.4D-30,  7.0D-30,  1.9D-14, r^2= 4.1D+01
   Bfn.  Coefficient  Atom+Function         Bfn.  Coefficient  Atom+Function  
  ----- ------------  ---------------      ----- ------------  ---------------
    33      9.011056  2 Li s                 10     -9.011056  1 Li s          
    43     -7.778122  2 Li s                 20      7.778122  1 Li s          
    13     -4.834619  1 Li pz                36     -4.834619  2 Li pz         
    46      2.334396  2 Li pz                23      2.334396  1 Li pz         
    32      0.220409  2 Li pz                 9      0.220409  1 Li pz         
 
 Vector   19  Occ=0.000000D+00  E= 7.557646D-02  Symmetry=a1g
              MO Center= -2.3D-16, -1.2D-16, -3.5D-13, r^2= 3.4D+01
   Bfn.  Coefficient  Atom+Function         Bfn.  Coefficient  Atom+Function  
  ----- ------------  ---------------      ----- ------------  ---------------
    36     -1.566987  2 Li pz                13      1.566987  1 Li pz         
    23     -1.239136  1 Li pz                46      1.239136  2 Li pz         
     9     -0.641893  1 Li pz                32      0.641893  2 Li pz         
    29     -0.473530  2 Li s                  6     -0.473530  1 Li s          
    33      0.245566  2 Li s                 10      0.245566  1 Li s          
 
 Vector   20  Occ=0.000000D+00  E= 8.506182D-02  Symmetry=eu
              MO Center= -1.5D-16, -8.0D-17, -5.4D-16, r^2= 2.8D+01
   Bfn.  Coefficient  Atom+Function         Bfn.  Coefficient  Atom+Function  
  ----- ------------  ---------------      ----- ------------  ---------------
    12      1.146741  1 Li py                35      1.146741  2 Li py         
     8     -0.865067  1 Li py                31     -0.865067  2 Li py         
    45     -0.451708  2 Li py                22     -0.451708  1 Li py         
 
 Vector   21  Occ=0.000000D+00  E= 8.506182D-02  Symmetry=eu
              MO Center=  2.4D-16,  3.9D-18,  2.7D-16, r^2= 2.8D+01
   Bfn.  Coefficient  Atom+Function         Bfn.  Coefficient  Atom+Function  
  ----- ------------  ---------------      ----- ------------  ---------------
    11     -1.146741  1 Li px                34     -1.146741  2 Li px         
    30      0.865067  2 Li px                 7      0.865067  1 Li px         
    44      0.451708  2 Li px                21      0.451708  1 Li px         
 
 Vector   22  Occ=0.000000D+00  E= 8.838284D-02  Symmetry=a1g
              MO Center=  7.9D-17,  1.2D-16,  3.2D-13, r^2= 2.5D+01
   Bfn.  Coefficient  Atom+Function         Bfn.  Coefficient  Atom+Function  
  ----- ------------  ---------------      ----- ------------  ---------------
    33     -2.139159  2 Li s                 10     -2.139159  1 Li s          
    29      1.877648  2 Li s                  6      1.877648  1 Li s          
    43      0.697035  2 Li s                 20      0.697035  1 Li s          
    32      0.370670  2 Li pz                 9     -0.370670  1 Li pz         
    13      0.313275  1 Li pz                36     -0.313275  2 Li pz         
 
 Vector   23  Occ=0.000000D+00  E= 1.084858D-01  Symmetry=eg
              MO Center=  2.8D-20,  2.1D-20,  2.7D-15, r^2= 2.5D+01
   Bfn.  Coefficient  Atom+Function         Bfn.  Coefficient  Atom+Function  
  ----- ------------  ---------------      ----- ------------  ---------------
    11      1.603644  1 Li px                34     -1.603644  2 Li px         
    35     -1.232118  2 Li py                12      1.232118  1 Li py         
    21     -1.037243  1 Li px                44      1.037243  2 Li px         
    30      0.919205  2 Li px                 7     -0.919205  1 Li px         
    45      0.796939  2 Li py                22     -0.796939  1 Li py         
 
 Vector   24  Occ=0.000000D+00  E= 1.084858D-01  Symmetry=eg
              MO Center= -4.1D-17,  3.2D-17,  5.3D-16, r^2= 2.5D+01
   Bfn.  Coefficient  Atom+Function         Bfn.  Coefficient  Atom+Function  
  ----- ------------  ---------------      ----- ------------  ---------------
    35     -1.603644  2 Li py                12      1.603644  1 Li py         
    11     -1.232118  1 Li px                34      1.232118  2 Li px         
    45      1.037243  2 Li py                22     -1.037243  1 Li py         
    31      0.919205  2 Li py                 8     -0.919205  1 Li py         
    21      0.796939  1 Li px                44     -0.796939  2 Li px         
 
 Vector   25  Occ=0.000000D+00  E= 1.109806D-01  Symmetry=a2u
              MO Center= -5.8D-19,  7.5D-19,  1.3D-13, r^2= 2.8D+01
   Bfn.  Coefficient  Atom+Function         Bfn.  Coefficient  Atom+Function  
  ----- ------------  ---------------      ----- ------------  ---------------
    20    -31.512589  1 Li s                 43     31.512589  2 Li s          
    10      7.977743  1 Li s                 33     -7.977743  2 Li s          
    23     -6.912693  1 Li pz                46     -6.912693  2 Li pz         
    13      1.730120  1 Li pz                36      1.730120  2 Li pz         
     6     -1.358862  1 Li s                 29      1.358862  2 Li s          
 
 Vector   26  Occ=0.000000D+00  E= 1.876592D-01  Symmetry=a2u
              MO Center=  8.4D-16,  5.8D-16, -3.0D-14, r^2= 1.4D+01
   Bfn.  Coefficient  Atom+Function         Bfn.  Coefficient  Atom+Function  
  ----- ------------  ---------------      ----- ------------  ---------------
    43     -7.641742  2 Li s                 20      7.641742  1 Li s          
    33      7.624281  2 Li s                 10     -7.624281  1 Li s          
    13     -3.599808  1 Li pz                36     -3.599808  2 Li pz         
     6      2.627350  1 Li s                 29     -2.627350  2 Li s          
    23      1.931928  1 Li pz                46      1.931928  2 Li pz         
 
 Vector   27  Occ=0.000000D+00  E= 3.805023D-01  Symmetry=a1g
              MO Center=  2.7D-17,  8.0D-17, -7.3D-15, r^2= 9.3D+00
   Bfn.  Coefficient  Atom+Function         Bfn.  Coefficient  Atom+Function  
  ----- ------------  ---------------      ----- ------------  ---------------
    32     -0.972120  2 Li pz                 9      0.972120  1 Li pz         
    36      0.906228  2 Li pz                13     -0.906228  1 Li pz         
    28      0.682672  2 Li pz                 5     -0.682672  1 Li pz         
    23      0.434513  1 Li pz                46     -0.434513  2 Li pz         
    42     -0.394356  2 Li dzz               19     -0.394356  1 Li dzz        
 
 Vector   28  Occ=0.000000D+00  E= 3.873299D-01  Symmetry=eu
              MO Center=  2.0D-16, -4.2D-17, -1.5D-15, r^2= 4.7D+00
   Bfn.  Coefficient  Atom+Function         Bfn.  Coefficient  Atom+Function  
  ----- ------------  ---------------      ----- ------------  ---------------
    16      1.080763  1 Li dxz               39     -1.080763  2 Li dxz        
     7     -0.194781  1 Li px                30     -0.194781  2 Li px         
    18      0.180695  1 Li dyz               41     -0.180695  2 Li dyz        
 
 Vector   29  Occ=0.000000D+00  E= 3.873299D-01  Symmetry=eu
              MO Center=  1.4D-16, -3.1D-17, -8.5D-16, r^2= 4.7D+00
   Bfn.  Coefficient  Atom+Function         Bfn.  Coefficient  Atom+Function  
  ----- ------------  ---------------      ----- ------------  ---------------
    18     -1.080763  1 Li dyz               41      1.080763  2 Li dyz        
     8      0.194781  1 Li py                31      0.194781  2 Li py         
    16      0.180695  1 Li dxz               39     -0.180695  2 Li dxz        
 
 Vector   30  Occ=0.000000D+00  E= 4.129885D-01  Symmetry=a2u
              MO Center=  3.2D-16,  8.4D-17,  1.8D-15, r^2= 1.0D+01
   Bfn.  Coefficient  Atom+Function         Bfn.  Coefficient  Atom+Function  
  ----- ------------  ---------------      ----- ------------  ---------------
    43      7.449047  2 Li s                 20     -7.449047  1 Li s          
    32      2.069039  2 Li pz                 9      2.069039  1 Li pz         
    46     -1.503138  2 Li pz                23     -1.503138  1 Li pz         
    36     -1.092133  2 Li pz                13     -1.092133  1 Li pz         
    28     -0.825100  2 Li pz                 5     -0.825100  1 Li pz         
 
 Vector   31  Occ=0.000000D+00  E= 4.203544D-01  Symmetry=b2g
              MO Center=  2.0D-16, -3.7D-17,  3.3D-16, r^2= 4.2D+00
   Bfn.  Coefficient  Atom+Function         Bfn.  Coefficient  Atom+Function  
  ----- ------------  ---------------      ----- ------------  ---------------
    38     -1.186692  2 Li dxy               15     -1.186692  1 Li dxy        
 
 Vector   32  Occ=0.000000D+00  E= 4.203544D-01  Symmetry=b1g
              MO Center= -1.4D-16,  1.4D-17,  2.2D-16, r^2= 4.2D+00
   Bfn.  Coefficient  Atom+Function         Bfn.  Coefficient  Atom+Function  
  ----- ------------  ---------------      ----- ------------  ---------------
    40      0.593346  2 Li dyy               14     -0.593346  1 Li dxx        
    37     -0.593346  2 Li dxx               17      0.593346  1 Li dyy        
 
 Vector   33  Occ=0.000000D+00  E= 4.351690D-01  Symmetry=eu
              MO Center= -3.9D-17,  6.1D-17,  3.1D-13, r^2= 7.6D+00
   Bfn.  Coefficient  Atom+Function         Bfn.  Coefficient  Atom+Function  
  ----- ------------  ---------------      ----- ------------  ---------------
    31     -0.848507  2 Li py                 8     -0.848507  1 Li py         
    27      0.764767  2 Li py                 4      0.764767  1 Li py         
     7      0.538739  1 Li px                30      0.538739  2 Li px         
    35      0.509769  2 Li py                12      0.509769  1 Li py         
     3     -0.485571  1 Li px                26     -0.485571  2 Li px         
 
 Vector   34  Occ=0.000000D+00  E= 4.351690D-01  Symmetry=eu
              MO Center= -2.4D-17, -1.5D-17, -2.4D-16, r^2= 7.6D+00
   Bfn.  Coefficient  Atom+Function         Bfn.  Coefficient  Atom+Function  
  ----- ------------  ---------------      ----- ------------  ---------------
     7      0.848507  1 Li px                30      0.848507  2 Li px         
    26     -0.764767  2 Li px                 3     -0.764767  1 Li px         
     8      0.538739  1 Li py                31      0.538739  2 Li py         
    11     -0.509769  1 Li px                34     -0.509769  2 Li px         
     4     -0.485571  1 Li py                27     -0.485571  2 Li py         
 
 Vector   35  Occ=0.000000D+00  E= 4.372382D-01  Symmetry=eg
              MO Center= -3.3D-17, -3.0D-17, -2.5D-13, r^2= 8.3D+00
   Bfn.  Coefficient  Atom+Function         Bfn.  Coefficient  Atom+Function  
  ----- ------------  ---------------      ----- ------------  ---------------
     8      1.239831  1 Li py                31     -1.239831  2 Li py         
    12     -1.040243  1 Li py                35      1.040243  2 Li py         
     4     -0.852559  1 Li py                27      0.852559  2 Li py         
    22      0.499717  1 Li py                45     -0.499717  2 Li py         
    30     -0.425373  2 Li px                 7      0.425373  1 Li px         
 
 Vector   36  Occ=0.000000D+00  E= 4.372382D-01  Symmetry=eg
              MO Center= -9.6D-17, -9.3D-17, -6.2D-14, r^2= 8.3D+00
   Bfn.  Coefficient  Atom+Function         Bfn.  Coefficient  Atom+Function  
  ----- ------------  ---------------      ----- ------------  ---------------
     7      1.239831  1 Li px                30     -1.239831  2 Li px         
    11     -1.040243  1 Li px                34      1.040243  2 Li px         
     3     -0.852559  1 Li px                26      0.852559  2 Li px         
    21      0.499717  1 Li px                44     -0.499717  2 Li px         
     8     -0.425373  1 Li py                31      0.425373  2 Li py         
 
 Vector   37  Occ=0.000000D+00  E= 4.866424D-01  Symmetry=b1u
              MO Center=  1.4D-16, -1.5D-16,  3.5D-30, r^2= 4.5D+00
   Bfn.  Coefficient  Atom+Function         Bfn.  Coefficient  Atom+Function  
  ----- ------------  ---------------      ----- ------------  ---------------
    15     -1.266710  1 Li dxy               38      1.266710  2 Li dxy        
 
 Vector   38  Occ=0.000000D+00  E= 4.866424D-01  Symmetry=b2u
              MO Center=  1.3D-16,  5.2D-17, -1.7D-16, r^2= 4.5D+00
   Bfn.  Coefficient  Atom+Function         Bfn.  Coefficient  Atom+Function  
  ----- ------------  ---------------      ----- ------------  ---------------
    17      0.633355  1 Li dyy               37      0.633355  2 Li dxx        
    14     -0.633355  1 Li dxx               40     -0.633355  2 Li dyy        
 
 Vector   39  Occ=0.000000D+00  E= 5.671861D-01  Symmetry=a1g
              MO Center= -7.1D-18,  2.6D-17,  3.1D-15, r^2= 6.9D+00
   Bfn.  Coefficient  Atom+Function         Bfn.  Coefficient  Atom+Function  
  ----- ------------  ---------------      ----- ------------  ---------------
    29     -1.285569  2 Li s                  6     -1.285569  1 Li s          
    33      0.804212  2 Li s                 10      0.804212  1 Li s          
    42      0.797040  2 Li dzz               19      0.797040  1 Li dzz        
     9      0.682569  1 Li pz                32     -0.682569  2 Li pz         
     5     -0.662430  1 Li pz                28      0.662430  2 Li pz         
 

 center of mass
 --------------
 x =   0.00000000 y =   0.00000000 z =   0.00000000

 moments of inertia (a.u.)
 ------------------
          95.799578849649           0.000000000000           0.000000000000
           0.000000000000          95.799578849649           0.000000000000
           0.000000000000           0.000000000000           0.000000000000
 
     Multipole analysis of the density
     ---------------------------------
 
     L   x y z        total         alpha         beta         nuclear
     -   - - -        -----         -----         ----         -------
     0   0 0 0      0.000000     -3.000000     -3.000000      6.000000
 
     1   1 0 0      0.000000      0.000000      0.000000      0.000000
     1   0 1 0      0.000000      0.000000      0.000000      0.000000
     1   0 0 1      0.000000      0.000000      0.000000      0.000000
 
     2   2 0 0    -12.455242     -6.227621     -6.227621      0.000000
     2   1 1 0      0.000000      0.000000      0.000000      0.000000
     2   1 0 1      0.000000      0.000000      0.000000      0.000000
     2   0 2 0    -12.455242     -6.227621     -6.227621      0.000000
     2   0 1 1      0.000000      0.000000      0.000000      0.000000
     2   0 0 2     -3.742310    -22.352821    -22.352821     40.963332
 

 Parallel integral file used       4 records with       0 large values

 Line search: 
     step= 1.00 grad=-4.1D-06 hess= 1.4D-07 energy=    -14.855972 mode=accept  
 new step= 1.00                   predicted energy=    -14.855972

          --------
          Step   1
          --------
 
 
                         Geometry "geometry" -> "geometry"
                         ---------------------------------
 
 Output coordinates in angstroms (scale by  1.889725989 to convert to a.u.)
 
  No.       Tag          Charge          X              Y              Z
 ---- ---------------- ---------- -------------- -------------- --------------
    1 li                   3.0000     0.00000000     0.00000000    -1.38268476
    2 li                   3.0000     0.00000000     0.00000000     1.38268476
 
      Atomic Mass 
      ----------- 
 
      li                 7.016000
 

 Effective nuclear repulsion energy (a.u.)       1.7222274295

            Nuclear Dipole moment (a.u.) 
            ----------------------------
        X                 Y               Z
 ---------------- ---------------- ----------------
     0.0000000000     0.0000000000     0.0000000000
 
      Symmetry information
      --------------------
 
 Group name             D4h       
 Group number             28
 Group order              16
 No. of unique centers     1
 
      Symmetry unique atoms
 
     1
 
                                 NWChem DFT Module
                                 -----------------
 
 

  The DFT is already converged 

         Total DFT energy =    -14.855972044650

 
 
                            NWChem DFT Gradient Module
                            --------------------------
 
 

  charge          =   0.00
  wavefunction    = closed shell

  Using symmetry


                         DFT ENERGY GRADIENTS

    atom               coordinates                        gradient
                 x          y          z           x          y          z
   1 li      0.000000   0.000000  -2.612895    0.000000   0.000000   0.000849
   2 li      0.000000   0.000000   2.612895    0.000000   0.000000  -0.000849
 
                 ----------------------------------------
                 |  Time  |  1-e(secs)   |  2-e(secs)   |
                 ----------------------------------------
                 |  CPU   |       0.00   |       0.10   |
                 ----------------------------------------
                 |  WALL  |       0.00   |       0.11   |
                 ----------------------------------------

  Step       Energy      Delta E   Gmax     Grms     Xrms     Xmax   Walltime
  ---- ---------------- -------- -------- -------- -------- -------- --------
@    1     -14.85597204 -4.0D-06  0.00085  0.00085  0.00131  0.00228      1.7
                                                                    



                                Z-matrix (autoz)
                                -------- 

 Units are Angstrom for bonds and degrees for angles
 
      Type          Name      I     J     K     L     M      Value     Gradient
      ----------- --------  ----- ----- ----- ----- ----- ---------- ----------
    1 Stretch                  1     2                       2.76537   -0.00085
 
                                 NWChem DFT Module
                                 -----------------
 
 
  Caching 1-el integrals 
 
            General Information
            -------------------
          SCF calculation type: DFT
          Wavefunction type:  closed shell.
          No. of atoms     :     2
          No. of electrons :     6
           Alpha electrons :     3
            Beta electrons :     3
          Charge           :     0
          Spin multiplicity:     1
          Use of symmetry is: on ; symmetry adaption is: on 
          Maximum number of iterations:  30
          AO basis - number of functions:    46
                     number of shells:    20
          Convergence on energy requested: 1.00D-06
          Convergence on density requested: 1.00D-05
          Convergence on gradient requested: 5.00D-04
 
              XC Information
              --------------
                        mPW91  Exchange Functional  1.000          
  WARNING: Sum of local correlation is   0.000000000000000E+000
  Sum of components do not equal unity. 
 
             Grid Information
             ----------------
          Grid used for XC integration:  medium    
          Radial quadrature: Mura-Knowles        
          Angular quadrature: Lebedev. 
          Tag              B.-S. Rad. Rad. Pts. Rad. Cut. Ang. Pts.
          ---              ---------- --------- --------- ---------
          li                  1.45       49          23.0       434
          Grid pruning is: on 
          Number of quadrature shells:    49
          Spatial weights used:  Erf1
 
          Convergence Information
          -----------------------
          Convergence aids based upon iterative change in 
          total energy or number of iterations. 
          Levelshifting, if invoked, occurs when the 
          HOMO/LUMO gap drops below (HL_TOL): 1.00D-02
          DIIS, if invoked, will attempt to extrapolate 
          using up to (NFOCK): 10 stored Fock matrices.

                    Damping( 0%)  Levelshifting(0.5)       DIIS
                  --------------- ------------------- ---------------
          dE  on:    start            ASAP                start   
          dE off:    2 iters         30 iters            30 iters 

 
      Screening Tolerance Information
      -------------------------------
          Density screening/tol_rho: 1.00D-10
          AO Gaussian exp screening on grid/accAOfunc:  14
          CD Gaussian exp screening on grid/accCDfunc:  20
          XC Gaussian exp screening on grid/accXCfunc:  20
          Schwarz screening/accCoul: 1.00D-08


 Loading old vectors from job with title :



 
      Symmetry analysis of molecular orbitals - initial
      -------------------------------------------------
 
  Numbering of irreducible representations: 
 
     1 a1g         2 a1u         3 a2g         4 a2u         5 b1g     
     6 b1u         7 b2g         8 b2u         9 eg         10 eu      
 
  Orbital symmetries:
 
     1 a1g         2 a2u         3 a1g         4 a2u         5 eu      
     6 eu          7 a1g         8 a1g         9 eg         10 eg      
    11 a2u        12 eu         13 eu      
 
   Time after variat. SCF:      0.8
   Time prior to 1st pass:      0.8

 #quartets = 1.511D+04 #integrals = 1.160D+05 #direct =  0.0% #cached =100.0%


 Integral file          = ./li2freq.aoints.0
 Record size in doubles =  65536        No. of integs per rec  =  43688
 Max. records in memory =      2        Max. records in file   =  32675
 No. of bits per label  =      8        No. of bits per value  =     64


File balance: exchanges=     0  moved=     0  time=   0.0


 Grid_pts file          = ./li2freq.gridpts.0
 Record size in doubles =  12289        No. of grid_pts per rec  =   3070
 Max. records in memory =      3        Max. recs in file   =    174259


           Memory utilization after 1st SCF pass: 
           Heap Space remaining (MW):       12.94            12937209
          Stack Space remaining (MW):       13.11            13106853

   convergence    iter        energy       DeltaE   RMS-Dens  Diis-err    time
 ---------------- ----- ----------------- --------- --------- ---------  ------
 d= 0,ls=0.0,diis     1    -14.8559928325 -1.66D+01  6.78D-04  3.62D-05     1.0
 d= 0,ls=0.0,diis     2    -14.8559970296 -4.20D-06  1.61D-04  3.01D-06     1.0
 d= 0,ls=0.0,diis     3    -14.8559979569 -9.27D-07  7.74D-05  1.74D-06     1.0
[...]
    18      0.805867  1 Li dyz               41     -0.805867  2 Li dyz        
    16     -0.744712  1 Li dxz               39      0.744712  2 Li dxz        
 
 Vector   30  Occ=0.000000D+00  E= 4.124106D-01
              MO Center= -4.4D-14, -4.0D-15,  2.0D-13, r^2= 1.0D+01
   Bfn.  Coefficient  Atom+Function         Bfn.  Coefficient  Atom+Function  
  ----- ------------  ---------------      ----- ------------  ---------------
    20     -6.998255  1 Li s                 43      6.998255  2 Li s          
    32      2.040794  2 Li pz                 9      2.040794  1 Li pz         
    23     -1.419322  1 Li pz                46     -1.419322  2 Li pz         
    36     -1.118614  2 Li pz                13     -1.118614  1 Li pz         
    28     -0.835149  2 Li pz                 5     -0.835149  1 Li pz         
 
 Vector   31  Occ=0.000000D+00  E= 4.216837D-01
              MO Center=  2.8D-15,  6.3D-16, -5.7D-14, r^2= 4.3D+00
   Bfn.  Coefficient  Atom+Function         Bfn.  Coefficient  Atom+Function  
  ----- ------------  ---------------      ----- ------------  ---------------
    17     -0.594554  1 Li dyy               14      0.594554  1 Li dxx        
    37      0.594554  2 Li dxx               40     -0.594554  2 Li dyy        
 
 Vector   32  Occ=0.000000D+00  E= 4.216837D-01
              MO Center= -4.4D-16, -1.5D-16, -2.6D-14, r^2= 4.3D+00
   Bfn.  Coefficient  Atom+Function         Bfn.  Coefficient  Atom+Function  
  ----- ------------  ---------------      ----- ------------  ---------------
    15     -1.189109  1 Li dxy               38     -1.189109  2 Li dxy        
 
 Vector   33  Occ=0.000000D+00  E= 4.350596D-01
              MO Center= -3.6D-13, -5.3D-14,  3.5D-11, r^2= 7.7D+00
   Bfn.  Coefficient  Atom+Function         Bfn.  Coefficient  Atom+Function  
  ----- ------------  ---------------      ----- ------------  ---------------
    30      1.001384  2 Li px                 7      1.001384  1 Li px         
    26     -0.894273  2 Li px                 3     -0.894273  1 Li px         
    34     -0.601969  2 Li px                11     -0.601969  1 Li px         
    44      0.162422  2 Li px                21      0.162422  1 Li px         
     8      0.151625  1 Li py                31      0.151625  2 Li py         
 
 Vector   34  Occ=0.000000D+00  E= 4.350596D-01
              MO Center= -5.5D-15,  4.3D-14,  4.6D-12, r^2= 7.7D+00
   Bfn.  Coefficient  Atom+Function         Bfn.  Coefficient  Atom+Function  
  ----- ------------  ---------------      ----- ------------  ---------------
    31      1.001384  2 Li py                 8      1.001384  1 Li py         
    27     -0.894273  2 Li py                 4     -0.894273  1 Li py         
    35     -0.601969  2 Li py                12     -0.601969  1 Li py         
    45      0.162422  2 Li py                22      0.162422  1 Li py         
    30     -0.151625  2 Li px                 7     -0.151625  1 Li px         
 
 Vector   35  Occ=0.000000D+00  E= 4.368206D-01
              MO Center= -9.4D-15, -6.7D-15, -1.9D-11, r^2= 8.4D+00
   Bfn.  Coefficient  Atom+Function         Bfn.  Coefficient  Atom+Function  
  ----- ------------  ---------------      ----- ------------  ---------------
     7      1.069668  1 Li px                30     -1.069668  2 Li px         
    11     -0.896915  1 Li px                34      0.896915  2 Li px         
    31     -0.742917  2 Li py                 8      0.742917  1 Li py         
     3     -0.739535  1 Li px                26      0.739535  2 Li px         
    35      0.622935  2 Li py                12     -0.622935  1 Li py         
 
 Vector   36  Occ=0.000000D+00  E= 4.368206D-01
              MO Center= -4.7D-14,  6.8D-14, -2.0D-11, r^2= 8.4D+00
   Bfn.  Coefficient  Atom+Function         Bfn.  Coefficient  Atom+Function  
  ----- ------------  ---------------      ----- ------------  ---------------
     8     -1.069668  1 Li py                31      1.069668  2 Li py         
    12      0.896915  1 Li py                35     -0.896915  2 Li py         
     7      0.742917  1 Li px                30     -0.742917  2 Li px         
     4      0.739535  1 Li py                27     -0.739535  2 Li py         
    11     -0.622935  1 Li px                34      0.622935  2 Li px         
 
 Vector   37  Occ=0.000000D+00  E= 4.849354D-01
              MO Center=  4.9D-16,  3.1D-16,  5.7D-14, r^2= 4.5D+00
   Bfn.  Coefficient  Atom+Function         Bfn.  Coefficient  Atom+Function  
  ----- ------------  ---------------      ----- ------------  ---------------
    37      0.631895  2 Li dxx               40     -0.631895  2 Li dyy        
    17      0.631895  1 Li dyy               14     -0.631895  1 Li dxx        
 
 Vector   38  Occ=0.000000D+00  E= 4.849354D-01
              MO Center= -3.7D-16, -3.1D-16,  2.6D-14, r^2= 4.5D+00
   Bfn.  Coefficient  Atom+Function         Bfn.  Coefficient  Atom+Function  
  ----- ------------  ---------------      ----- ------------  ---------------
    38     -1.263790  2 Li dxy               15      1.263790  1 Li dxy        
 
 Vector   39  Occ=0.000000D+00  E= 5.625876D-01
              MO Center=  2.1D-13,  8.6D-15,  8.1D-15, r^2= 6.8D+00
   Bfn.  Coefficient  Atom+Function         Bfn.  Coefficient  Atom+Function  
  ----- ------------  ---------------      ----- ------------  ---------------
     6      1.239662  1 Li s                 29      1.239662  2 Li s          
    33     -0.781700  2 Li s                 10     -0.781700  1 Li s          
    19     -0.775978  1 Li dzz               42     -0.775978  2 Li dzz        
    32      0.684441  2 Li pz                 9     -0.684441  1 Li pz         
    28     -0.669614  2 Li pz                 5      0.669614  1 Li pz         
 

 center of mass
 --------------
 x =   0.00000000 y =   0.00000000 z =   0.00000000

 moments of inertia (a.u.)
 ------------------
          98.209267737326           0.000000000000           0.000000000000
           0.000000000000          98.209267737326           0.000000000000
           0.000000000000           0.000000000000           0.000000000000
 
     Multipole analysis of the density
     ---------------------------------
 
     L   x y z        total         alpha         beta         nuclear
     -   - - -        -----         -----         ----         -------
     0   0 0 0      0.000000     -3.000000     -3.000000      6.000000
 
     1   1 0 0      0.000000      0.000000      0.000000      0.000000
     1   0 1 0      0.000000      0.000000      0.000000      0.000000
     1   0 0 1      0.000000      0.000000      0.000000      0.000000
 
     2   2 0 0    -12.480228     -6.240114     -6.240114      0.000000
     2   1 1 0      0.000000      0.000000      0.000000      0.000000
     2   1 0 1      0.000000      0.000000      0.000000      0.000000
     2   0 2 0    -12.480228     -6.240114     -6.240114      0.000000
     2   0 1 1      0.000000      0.000000      0.000000      0.000000
     2   0 0 2     -3.713558    -22.853629    -22.853629     41.993701
 

 HESSIAN: the one electron contributions are done in       0.0s


 HESSIAN: 2-el 1st deriv. term done in                     0.2s


 HESSIAN: 2-el 2nd deriv. term done in                     0.7s

  stpr_wrt_fd_from_sq: overwrite of existing file:./li2freq.hess
 stpr_wrt_fd_dipole: overwrite of existing file./li2freq.fd_ddipole

 HESSIAN: the two electron contributions are done in       2.8s

                                NWChem CPHF Module
                                ------------------
 
 
  scftype          =     RHF 
  nclosed          =        3
  nopen            =        0
  variables        =      129
  # of vectors     =        6
  tolerance        = 0.10D-03
  level shift      = 0.00D+00
  max iterations   =       50
  max subspace     =       60



Iterative solution of linear equations
  No. of variables      129
  No. of equations        6
  Maximum subspace       60
        Iterations       50
       Convergence  1.0D-04
        Start time      7.5


   iter   nsub   residual    time
   ----  ------  --------  ---------
     1      6    2.34D-02       8.4
     2     12    3.35D-03       9.3
     3     18    7.16D-04      10.1
     4     24    1.21D-04      11.0
     5     30    1.40D-05      11.8
 HESSIAN: the CPHF contributions are done
  stpr_wrt_fd_from_sq: overwrite of existing file:./li2freq.hess
 stpr_wrt_fd_dipole: overwrite of existing file./li2freq.fd_ddipole
 HESSIAN: the Hessian is done
 
 
  Vibrational analysis via the FX method 
 
  See chapter 2 in "Molecular Vibrations" by Wilson, Decius and Cross
 
  Vib: Default input used 
 
  Nuclear Hessian passed symmetry test 
 


 ---------------------------- Atom information ----------------------------
     atom    #        X              Y              Z            mass
 --------------------------------------------------------------------------
    Li       1  0.0000000D+00  0.0000000D+00 -2.6455529D+00  7.0160000D+00
    Li       2  0.0000000D+00  0.0000000D+00  2.6455529D+00  7.0160000D+00
 --------------------------------------------------------------------------




          ----------------------------------------------------
          MASS-WEIGHTED NUCLEAR HESSIAN (Hartree/Bohr/Bohr/Kamu)
          ----------------------------------------------------


              1           2           3           4           5           6
   ----- ----- ----- ----- -----
    1   2.77902D-03
    2   7.72442D-12 2.77902D-03
    3   2.65230D-12-2.85709D-12 1.78758D+00
    4   4.98021D-05-3.58004D-15-4.96420D-13 2.77902D-03
    5  -3.17638D-15 4.98021D-05 1.64956D-12-2.65008D-12 2.77902D-03
    6   1.81363D-12-1.02325D-12-1.78364D+00 1.27530D-12-1.76858D-12 1.78758D+00



          -------------------------------------------------
          NORMAL MODE EIGENVECTORS IN CARTESIAN COORDINATES
          -------------------------------------------------
                 (Frequencies expressed in cm-1)

                    1           2           3           4           5           6
 
 Frequency          8.49        8.49        8.65        8.65       10.21      307.19
 
           1     0.22458    -0.14433     0.22538     0.14307     0.00000     0.00000
           2    -0.14433    -0.22458    -0.14307     0.22538     0.00000     0.00000
           3     0.00000     0.00000     0.00000     0.00000     0.26696     0.26696
           4    -0.22458     0.14433     0.22538     0.14307     0.00000     0.00000
           5     0.14433     0.22458    -0.14307     0.22538     0.00000     0.00000
           6     0.00000     0.00000     0.00000     0.00000     0.26696    -0.26696



 ----------------------------------------------------------------------------
 Normal Eigenvalue ||         Derivative Dipole Moments (debye/angs)
  Mode   [cm**-1]  ||      [d/dqX]             [d/dqY]           [d/dqZ]
 ------ ---------- || ------------------ ------------------ -----------------
    1        8.492 ||       0.000               0.000             0.000
    2        8.492 ||       0.000               0.000             0.000
    3        8.646 ||       0.000               0.000             0.000
    4        8.646 ||       0.000               0.000             0.000
    5       10.213 ||       0.000               0.000             0.000
    6      307.194 ||       0.000               0.000             0.000
 ----------------------------------------------------------------------------



  
  
 ----------------------------------------------------------------------------
 Normal Eigenvalue ||                 Infra Red Intensities
  Mode   [cm**-1]  || [atomic units] [(debye/angs)**2] [(KM/mol)] [arbitrary]
 ------ ---------- || -------------- ----------------- ---------- -----------
    1        8.492 ||    0.000000           0.000         0.000       0.000
    2        8.492 ||    0.000000           0.000         0.000       0.000
    3        8.646 ||    0.000000           0.000         0.000      28.912
    4        8.646 ||    0.000000           0.000         0.000      28.912
    5       10.213 ||    0.000000           0.000         0.000       2.176
    6      307.194 ||    0.000000           0.000         0.000       0.000
 ----------------------------------------------------------------------------



 
 
        Vibrational analysis via the FX method 
  --- with translations and rotations projected out ---
  --- via the Eckart algorithm                      ---
 Dependent rotation vector no.                     3
  found in ECKART; assuming linear geometry
 Projected Nuclear Hessian trans-rot subspace norm:3.0093D-36
                         (should be close to zero!) 


From the projected analysis 
The Zero-Point Energy (Kcal/mol) =           0.43928744

 center of mass
 --------------
 x =   0.00000000 y =   0.00000000 z =   0.00000000

 moments of inertia (a.u.)
 ------------------
          98.209267737326           0.000000000000           0.000000000000
           0.000000000000          98.209267737326           0.000000000000
           0.000000000000           0.000000000000           0.000000000000

 Rotational Constants
 --------------------
 A=   0.000000 cm-1  (  0.000000 K)
 B=   0.612979 cm-1  (  0.881920 K)
 C=   0.612979 cm-1  (  0.881920 K)


 Temperature                      =   298.15K


 Linear Molecule                   

 Zero-Point correction to Energy  =    0.439 kcal/mol  (  0.000700 au)
 Thermal correction to Energy     =    2.177 kcal/mol  (  0.003470 au)
 Thermal correction to Enthalpy   =    2.770 kcal/mol  (  0.004414 au)

 Total Entropy                    =   47.402 cal/mol-K
   - Translational                =   33.849 cal/mol-K (mol. weight =  14.0320)
   - Rotational                   =   12.176 cal/mol-K (symmetry #  =        2)
   - Vibrational                  =    1.377 cal/mol-K

 Cv (constant volume heat capacity) =    6.625 cal/mol-K
   - Translational                  =    2.979 cal/mol-K
   - Rotational                     =    1.986 cal/mol-K
   - Vibrational                    =    1.659 cal/mol-K



          -------------------------------------------------
          NORMAL MODE EIGENVECTORS IN CARTESIAN COORDINATES
          -------------------------------------------------
             (Projected Frequencies expressed in cm-1)

                    1           2           3           4           5           6
 
 P.Frequency        0.00        0.00        0.00        0.00        0.00      307.19
 
           1     0.00000     0.37753     0.00000     0.00000     0.00000     0.00000
           2     0.00000     0.00000     0.37753     0.00000     0.00000     0.00000
           3     0.00000     0.00000     0.00000     0.00000     0.26696     0.26696
           4     0.26696     0.00000     0.00000     0.26696     0.00000     0.00000
           5     0.26696     0.00000     0.00000    -0.26696     0.00000     0.00000
           6     0.00000     0.00000     0.00000     0.00000     0.26696    -0.26696



 ----------------------------------------------------------------------------
 Normal Eigenvalue ||    Projected Derivative Dipole Moments (debye/angs)
  Mode   [cm**-1]  ||      [d/dqX]             [d/dqY]           [d/dqZ]
 ------ ---------- || ------------------ ------------------ -----------------
    1        0.000 ||       0.000               0.000             0.000
    2        0.000 ||       0.000               0.000             0.000
    3        0.000 ||       0.000               0.000             0.000
    4        0.000 ||       0.000               0.000             0.000
    5        0.000 ||       0.000               0.000             0.000
    6      307.194 ||       0.000               0.000             0.000
 ----------------------------------------------------------------------------



  
  
 ----------------------------------------------------------------------------
 Normal Eigenvalue ||           Projected Infra Red Intensities
  Mode   [cm**-1]  || [atomic units] [(debye/angs)**2] [(KM/mol)] [arbitrary]
 ------ ---------- || -------------- ----------------- ---------- -----------
    1        0.000 ||    0.000000           0.000         0.000      14.456
    2        0.000 ||    0.000000           0.000         0.000      14.456
    3        0.000 ||    0.000000           0.000         0.000      14.456
    4        0.000 ||    0.000000           0.000         0.000      14.456
    5        0.000 ||    0.000000           0.000         0.000       2.176
    6      307.194 ||    0.000000           0.000         0.000       0.000
 ----------------------------------------------------------------------------



 vib:animation  F

 Task  times  cpu:        8.1s     wall:        8.6s
 
 
                                NWChem Input Module
                                -------------------
 
 
 Summary of allocated global arrays
-----------------------------------
  No active global arrays



                         GA Statistics for process    0
                         ------------------------------

       create   destroy   get      put      acc     scatter   gather  read&inc
calls:  904      904     5.75e+04 9534     1.50e+04  187        0        0     
number of processes/call 1.24e+00 1.46e+00 1.21e+00 1.16e+00 0.00e+00
bytes total:             1.32e+08 5.94e+06 5.49e+07 6.72e+05 0.00e+00 0.00e+00
bytes remote:            8.99e+07 2.87e+06 4.04e+07 -6.78e+03 0.00e+00 0.00e+00
Max memory consumed for GA by this process: 193264 bytes
 
MA_summarize_allocated_blocks: starting scan ...
MA_summarize_allocated_blocks: scan completed: 0 heap blocks, 0 stack blocks
MA usage statistics:

	allocation statistics:
					      heap	     stack
					      ----	     -----
	current number of blocks	         0	         0
	maximum number of blocks	        25	        53
	current total bytes		         0	         0
	maximum total bytes		   1359936	  78294720
	maximum total K-bytes		      1360	     78295
	maximum total M-bytes		         2	        79



                                  ACKNOWLEDGEMENT
                                  ---------------

            Please use the following acknowledgement where appropriate 
            for results obtained with NWChem:

            High Performance Computational Chemistry Group, "NWChem, A
            Computational Chemistry Package for Parallel Computers, 
            Version 5.1.1" (2008), Pacific Northwest National Laboratory,
            Richland, Washington 99352-0999, USA.


                                     CITATION
                                     --------

          Please use the following citation when publishing results
          obtained with NWChem:

          E. J. Bylaska, W. A. de Jong, N. Govind, K. Kowalski, T. P. Straatsma,
          M. Valiev, D. Wang, E. Apra, T. L. Windus, J. Hammond, P. Nichols,
          S. Hirata, M. T. Hackler, Y. Zhao, P.-D. Fan, R. J. Harrison,
          M. Dupuis, D. M. A. Smith, J. Nieplocha, V. Tipparaju, M. Krishnan,
          Q. Wu, T. Van Voorhis, A. A. Auer, M. Nooijen,L. D. Crosby,
          E. Brown, G. Cisneros, G. I. Fann, H. Fruchtl, J. Garza, K. Hirao,
          R. Kendall, J. A. Nichols, K. Tsemekhman, K. Wolinski, J. Anchell,
          D. Bernholdt, P. Borowski, T. Clark, D. Clerc, H. Dachsel, M. Deegan,
          K. Dyall, D. Elwood, E. Glendening, M. Gutowski, A. Hess, J. Jaffe,
          B. Johnson, J. Ju, R. Kobayashi, R. Kutteh, Z. Lin, R. Littlefield,
          X. Long, B. Meng, T. Nakajima, S. Niu, L. Pollack, M. Rosing,
          G. Sandrone, M. Stave, H. Taylor, G. Thomas, J. van Lenthe, A. Wong,
          and Z. Zhang,
          "NWChem, A Computational Chemistry Package for Parallel Computers, 
          Version 5.1.1" (2008),
                      Pacific Northwest National Laboratory,
                      Richland, Washington 99352-0999, USA.



 Total times  cpu:        9.7s     wall:       11.9s
