 argument  1 = tce_ccsd_t_h2o
  Unable to open tce_ccsd_t_h2o --- appending .nw



============================== echo of input deck ==============================
#
# Test for CCSD[T] & CCDS(T) codes in the TCE module
# Reference data obtained by an independent code are
#
# CCSD(T) -0.21632467284
# CCSD[T] -0.21640986353
#
# in units of hartree.
#
# The (T) & [T] codes and the reference data have been
# provided by Alex A. Auer (University of Waterloo)
#
start tce_ccsd_t_h2o

echo

geometry units bohr
O     0.00000000     0.00000000     0.22138519
H     0.00000000    -1.43013023    -0.88554075
H     0.00000000     1.43013023    -0.88554075
end

basis spherical
H library cc-pVDZ
O library cc-pVDZ
end

scf
thresh 1.0e-10
tol2e 1.0e-10
singlet
rhf
end

tce
ccsd(t)
io ga
end

task tce energy
================================================================================


                                         
                                         


              Northwest Computational Chemistry Package (NWChem) 4.5
              ------------------------------------------------------


                    Environmental Molecular Sciences Laboratory
                       Pacific Northwest National Laboratory
                                Richland, WA 99352

                                         
                                         


                     COPYRIGHT (C) 1994, 1995, 1996, 1997, 1998,
                            1999, 2000, 2001, 2002, 2003
                        Pacific Northwest National Laboratory,
                             Battelle Memorial Institute.

                            >>> All Rights Reserved <<<


                                    DISCLAIMER
                                    ----------

            This material was prepared as an account of work sponsored
            by an agency of the United States Government.  Neither the
            United States Government nor the United States Department
            of Energy, nor Battelle, nor any of their employees, MAKES
            ANY WARRANTY, EXPRESS OR IMPLIED, OR ASSUMES ANY LEGAL
            LIABILITY OR RESPONSIBILITY FOR THE ACCURACY, COMPLETENESS,
            OR USEFULNESS OF ANY INFORMATION, APPARATUS, PRODUCT,
            SOFTWARE, OR PROCESS DISCLOSED, OR REPRESENTS THAT ITS USE
            WOULD NOT INFRINGE PRIVATELY OWNED RIGHTS.


                                    LIMITED USE
                                    -----------

            This software (including any documentation) is being made
            available to you for your internal use only, solely for use
            in performance of work directly for the U.S. Federal
            Government or work under contracts with the U.S. Department
            of Energy or other U.S. Federal Government agencies.  This
            software is a version which has not yet been evaluated and
            cleared for commercialization.  Adherence to this notice
            may be necessary for the author, Battelle Memorial
            Institute, to successfully assert copyright in and
            commercialize this software. This software is not intended
            for duplication or distribution to third parties without
            the permission of the Manager of Software Products at
            Pacific Northwest National Laboratory, Richland,
            Washington, 99352.


                                  ACKNOWLEDGMENT
                                  --------------

            This software and its documentation were produced with
            Government support under Contract Number DE-AC06-76RLO-1830
            awarded by the United States Department of Energy.  The
            Government retains a paid-up non-exclusive, irrevocable
            worldwide license to reproduce, prepare derivative works,
            perform publicly and display publicly by or for the
            Government, including the right to distribute to other
            Government contractors.


           Job information
           ---------------

    hostname      = kitkat
    program       = /msrc/home/sohirata/nwchem/bin/LINUX/nwchem
    date          = Thu Mar 25 12:34:53 2004

    compiled      = Tue Mar 23 13:02:06 PST 2004
    source        = /msrc/home/sohirata/nwchem
    nwchem branch = Development
    input         = tce_ccsd_t_h2o.nw
    prefix        = tce_ccsd_t_h2o.
    data base     = ./tce_ccsd_t_h2o.db
    status        = startup
    nproc         =    1
    time left     =     -1s



           Memory information
           ------------------

    heap      =   39321594 doubles =    300.0 Mbytes
    stack     =   13107187 doubles =    100.0 Mbytes
    global    =   52428804 doubles =    400.0 Mbytes (within heap+stack)
    total     =   52428781 doubles =    400.0 Mbytes
    verify    = yes
    hardfail  = no 


           Directory information
           ---------------------

  0 permanent = .
  0 scratch   = .




                                NWChem Input Module
                                -------------------


 C2V symmetry detected

          ------
          auto-z
          ------


                             Geometry "geometry" -> ""
                             -------------------------

 Output coordinates in a.u. (scale by  1.000000000 to convert to a.u.)

  No.       Tag          Charge          X              Y              Z
 ---- ---------------- ---------- -------------- -------------- --------------
    1 O                    8.0000     0.00000000     0.00000000     0.22138519
    2 H                    1.0000     1.43013023     0.00000000    -0.88554075
    3 H                    1.0000    -1.43013023     0.00000000    -0.88554075

      Atomic Mass 
      ----------- 

      O                 15.994910
      H                  1.007825


 Effective nuclear repulsion energy (a.u.)       9.1968845623

            Nuclear Dipole moment (a.u.) 
            ----------------------------
        X                 Y               Z
 ---------------- ---------------- ----------------
     0.0000000000     0.0000000000     0.0000000000

      Symmetry information
      --------------------

 Group name             C2v       
 Group number             16
 Group order               4
 No. of unique centers     2

      Symmetry unique atoms

     1    2



                                Z-matrix (autoz)
                                -------- 

 Units are Angstrom for bonds and degrees for angles

      Type          Name      I     J     K     L     M      Value
      ----------- --------  ----- ----- ----- ----- ----- ----------
    1 Stretch                  1     2                       0.95700
    2 Stretch                  1     3                       0.95700
    3 Bend                     2     1     3               104.52000

 ==============================================================================
                                internuclear distances
 ------------------------------------------------------------------------------
       center one      |      center two      | atomic units |       a.u.
 ------------------------------------------------------------------------------
    2 H                |   1 O                |     1.80847  |     1.80847
    3 H                |   1 O                |     1.80847  |     1.80847
 ------------------------------------------------------------------------------
                         number of included internuclear distances:          2
 ==============================================================================



 ==============================================================================
                                 internuclear angles
 ------------------------------------------------------------------------------
        center 1       |       center 2       |       center 3       |  degrees
 ------------------------------------------------------------------------------
    2 H                |   1 O                |   3 H                |   104.52
 ------------------------------------------------------------------------------
                            number of included internuclear angles:          1
 ==============================================================================



  library name resolved from: .nwchemrc
  library file name is: </msrc/proj/nwchem/share/library>
  
                      Basis "ao basis" -> "" (spherical)
                      -----
  H (Hydrogen)
  ------------
            Exponent  Coefficients 
       -------------- ---------------------------------------------------------
  1 S  1.30100000E+01  0.019685
  1 S  1.96200000E+00  0.137977
  1 S  4.44600000E-01  0.478148

  2 S  1.22000000E-01  1.000000

  3 P  7.27000000E-01  1.000000

  O (Oxygen)
  ----------
            Exponent  Coefficients 
       -------------- ---------------------------------------------------------
  1 S  1.17200000E+04  0.000710
  1 S  1.75900000E+03  0.005470
  1 S  4.00800000E+02  0.027837
  1 S  1.13700000E+02  0.104800
  1 S  3.70300000E+01  0.283062
  1 S  1.32700000E+01  0.448719
  1 S  5.02500000E+00  0.270952
  1 S  1.01300000E+00  0.015458

  2 S  1.17200000E+04 -0.000160
  2 S  1.75900000E+03 -0.001263
  2 S  4.00800000E+02 -0.006267
  2 S  1.13700000E+02 -0.025716
  2 S  3.70300000E+01 -0.070924
  2 S  1.32700000E+01 -0.165411
  2 S  5.02500000E+00 -0.116955
  2 S  1.01300000E+00  0.557368

  3 S  3.02300000E-01  1.000000

  4 P  1.77000000E+01  0.043018
  4 P  3.85400000E+00  0.228913
  4 P  1.04600000E+00  0.508728

  5 P  2.75300000E-01  1.000000

  6 D  1.18500000E+00  1.000000



 Summary of "ao basis" -> "" (spherical)
 ------------------------------------------------------------------------------
       Tag                 Description            Shells   Functions and Types
 ---------------- ------------------------------  ------  ---------------------
 H                          cc-pVDZ                  3        5   2s1p
 O                          cc-pVDZ                  6       14   3s2p1d


                                 NWChem SCF Module
                                 -----------------



  ao basis        = "ao basis"
  functions       =    24
  atoms           =     3
  closed shells   =     5
  open shells     =     0
  charge          =   0.00
  wavefunction    = RHF 
  input vectors   = atomic
  output vectors  = ./tce_ccsd_t_h2o.movecs
  use symmetry    = T
  symmetry adapt  = T


 Summary of "ao basis" -> "ao basis" (spherical)
 ------------------------------------------------------------------------------
       Tag                 Description            Shells   Functions and Types
 ---------------- ------------------------------  ------  ---------------------
 H                          cc-pVDZ                  3        5   2s1p
 O                          cc-pVDZ                  6       14   3s2p1d


      Symmetry analysis of basis
      --------------------------

        a1         11
        a2          2
        b1          7
        b2          4


 Forming initial guess at       0.5s


      Superposition of Atomic Density Guess
      -------------------------------------

 Sum of atomic energies:         -75.76222910

      Non-variational initial energy
      ------------------------------

 Total energy =     -75.926598
 1-e energy   =    -121.777341
 2-e energy   =      36.653859
 HOMO         =      -0.469523
 LUMO         =       0.091436


      Symmetry analysis of molecular orbitals - initial
      -------------------------------------------------

  Numbering of irreducible representations: 

     1 a1          2 a2          3 b1          4 b2      

  Orbital symmetries:

     1 a1          2 a1          3 b1          4 a1          5 b2      
     6 a1          7 b1          8 b1          9 a1         10 a1      
    11 b2         12 b1         13 a1         14 a2         15 b2      


 Starting SCF solution at       0.8s



 ----------------------------------------------
         Quadratically convergent ROHF

 Convergence threshold     :          1.000E-10
 Maximum no. of iterations :           20
 Final Fock-matrix accuracy:          1.000E-10
 ----------------------------------------------


 #quartets = 1.953E+03 #integrals = 1.482E+04 #direct =  0.0% #cached =100.0%


 Integral file          = ./tce_ccsd_t_h2o.aoints.0
 Record size in doubles =  65536        No. of integs per rec  =  43688
 Max. records in memory =      2        Max. records in file   =  71241
 No. of bits per label  =      8        No. of bits per value  =     64


              iter       energy          gnorm     gmax       time
             ----- ------------------- --------- --------- --------
                 1      -75.9919313494  8.32E-01  3.68E-01      0.9
                 2      -76.0245328053  1.73E-01  7.81E-02      0.9
                 3      -76.0267916569  1.46E-02  6.36E-03      1.0
                 4      -76.0268078571  3.41E-05  1.89E-05      1.0
                 5      -76.0268078573  2.09E-10  1.15E-10      1.0
                 6      -76.0268078573  2.84E-12  1.16E-12      1.1


       Final RHF  results 
       ------------------ 

         Total SCF energy =    -76.026807857260
      One-electron energy =   -123.154586049227
      Two-electron energy =     37.930893629669
 Nuclear repulsion energy =      9.196884562299

        Time for solution =      0.4s



       Symmetry analysis of molecular orbitals - final
       -----------------------------------------------

  Numbering of irreducible representations: 

     1 a1          2 a2          3 b1          4 b2      

  Orbital symmetries:

     1 a1          2 a1          3 b1          4 a1          5 b2      
     6 a1          7 b1          8 b1          9 a1         10 a1      
    11 b2         12 b1         13 a1         14 a2         15 b2      

             Final eigenvalues
             -----------------

              1      
    1  -20.5504
    2   -1.3368
    3   -0.6994
    4   -0.5666
    5   -0.4932
    6    0.1856
    7    0.2563
    8    0.7895
    9    0.8545
   10    1.1635
   11    1.2004
   12    1.2533
   13    1.4446
   14    1.4763
   15    1.6748

                       ROHF Final Molecular Orbital Analysis
                       -------------------------------------

 Vector    2  Occ=2.000000E+00  E=-1.336810E+00  Symmetry=a1
              MO Center=  5.6E-16,  1.3E-17, -5.4E-02, r^2= 5.0E-01
   Bfn.  Coefficient  Atom+Function         Bfn.  Coefficient  Atom+Function  
  ----- ------------  ---------------      ----- ------------  ---------------
     2      0.442847  1 O  s                  3      0.375524  1 O  s          
    15      0.193713  2 H  s                 20      0.193713  3 H  s          

 Vector    3  Occ=2.000000E+00  E=-6.994436E-01  Symmetry=b1
              MO Center= -1.2E-15, -2.1E-17, -1.1E-01, r^2= 7.7E-01
   Bfn.  Coefficient  Atom+Function         Bfn.  Coefficient  Atom+Function  
  ----- ------------  ---------------      ----- ------------  ---------------
     4      0.490008  1 O  px                20     -0.328055  3 H  s          
    15      0.328055  2 H  s                  7      0.221765  1 O  px         

 Vector    4  Occ=2.000000E+00  E=-5.666047E-01  Symmetry=a1
              MO Center=  1.6E-16,  4.8E-17,  1.6E-01, r^2= 6.7E-01
   Bfn.  Coefficient  Atom+Function         Bfn.  Coefficient  Atom+Function  
  ----- ------------  ---------------      ----- ------------  ---------------
     6      0.545529  1 O  pz                 9      0.365329  1 O  pz         
     3      0.349885  1 O  s                 15     -0.206362  2 H  s          
    20     -0.206362  3 H  s                  2      0.150410  1 O  s          

 Vector    5  Occ=2.000000E+00  E=-4.931619E-01  Symmetry=b2
              MO Center= -4.9E-17, -2.2E-17,  9.3E-02, r^2= 6.0E-01
   Bfn.  Coefficient  Atom+Function         Bfn.  Coefficient  Atom+Function  
  ----- ------------  ---------------      ----- ------------  ---------------
     5      0.631158  1 O  py                 8      0.495642  1 O  py         

 Vector    6  Occ=0.000000E+00  E= 1.856128E-01  Symmetry=a1
              MO Center= -8.5E-16,  3.2E-17, -6.1E-01, r^2= 3.0E+00
   Bfn.  Coefficient  Atom+Function         Bfn.  Coefficient  Atom+Function  
  ----- ------------  ---------------      ----- ------------  ---------------
     3      1.003062  1 O  s                 21     -0.829439  3 H  s          
    16     -0.829439  2 H  s                  9     -0.336808  1 O  pz         
     6     -0.190376  1 O  pz         

 Vector    7  Occ=0.000000E+00  E= 2.562882E-01  Symmetry=b1
              MO Center=  1.6E-15, -4.7E-17, -6.2E-01, r^2= 3.6E+00
   Bfn.  Coefficient  Atom+Function         Bfn.  Coefficient  Atom+Function  
  ----- ------------  ---------------      ----- ------------  ---------------
    16      1.444952  2 H  s                 21     -1.444952  3 H  s          
     7     -0.671020  1 O  px                 4     -0.283072  1 O  px         

 Vector    8  Occ=0.000000E+00  E= 7.895205E-01  Symmetry=b1
              MO Center=  3.0E-15, -6.3E-17, -2.5E-01, r^2= 1.7E+00
   Bfn.  Coefficient  Atom+Function         Bfn.  Coefficient  Atom+Function  
  ----- ------------  ---------------      ----- ------------  ---------------
    15      0.944396  2 H  s                 20     -0.944396  3 H  s          
    16     -0.685542  2 H  s                 21      0.685542  3 H  s          
     7     -0.461871  1 O  px                 4     -0.267872  1 O  px         
    19     -0.153045  2 H  pz                24      0.153045  3 H  pz         

 Vector    9  Occ=0.000000E+00  E= 8.545358E-01  Symmetry=a1
              MO Center= -2.8E-15, -2.9E-17, -4.7E-01, r^2= 1.6E+00
   Bfn.  Coefficient  Atom+Function         Bfn.  Coefficient  Atom+Function  
  ----- ------------  ---------------      ----- ------------  ---------------
    20      0.787221  3 H  s                 15      0.787221  2 H  s          
    21     -0.547465  3 H  s                 16     -0.547465  2 H  s          
     6      0.329172  1 O  pz                 3      0.319623  1 O  s          
    17      0.296348  2 H  px                22     -0.296348  3 H  px         
     2     -0.255712  1 O  s          

 Vector   10  Occ=0.000000E+00  E= 1.163485E+00  Symmetry=a1
              MO Center=  5.6E-16,  7.3E-17,  1.4E-01, r^2= 1.2E+00
   Bfn.  Coefficient  Atom+Function         Bfn.  Coefficient  Atom+Function  
  ----- ------------  ---------------      ----- ------------  ---------------
     9      1.279725  1 O  pz                 6     -0.754396  1 O  pz         
     3     -0.750184  1 O  s                 20      0.547420  3 H  s          
    15      0.547420  2 H  s                 24      0.250488  3 H  pz         
    19      0.250488  2 H  pz         

 Vector   11  Occ=0.000000E+00  E= 1.200389E+00  Symmetry=b2
              MO Center= -1.7E-16, -8.9E-17,  1.1E-01, r^2= 1.1E+00
   Bfn.  Coefficient  Atom+Function         Bfn.  Coefficient  Atom+Function  
  ----- ------------  ---------------      ----- ------------  ---------------
     8      1.025479  1 O  py                 5     -0.967820  1 O  py         

 Vector   12  Occ=0.000000E+00  E= 1.253280E+00  Symmetry=b1
              MO Center= -8.3E-16, -2.1E-31,  1.2E-01, r^2= 1.7E+00
   Bfn.  Coefficient  Atom+Function         Bfn.  Coefficient  Atom+Function  
  ----- ------------  ---------------      ----- ------------  ---------------
     7      1.764697  1 O  px                21      0.825968  3 H  s          
    16     -0.825968  2 H  s                  4     -0.733899  1 O  px         
    15     -0.379694  2 H  s                 20      0.379694  3 H  s          
    17      0.302681  2 H  px                22      0.302681  3 H  px         
    19     -0.186824  2 H  pz                24      0.186824  3 H  pz         

 Vector   13  Occ=0.000000E+00  E= 1.444621E+00  Symmetry=a1
              MO Center=  2.0E-16,  1.2E-18, -5.9E-02, r^2= 1.4E+00
   Bfn.  Coefficient  Atom+Function         Bfn.  Coefficient  Atom+Function  
  ----- ------------  ---------------      ----- ------------  ---------------
     9      0.739197  1 O  pz                19     -0.545980  2 H  pz         
    24     -0.545980  3 H  pz                 2     -0.529408  1 O  s          
     3      0.507964  1 O  s                 20      0.332938  3 H  s          
    15      0.332938  2 H  s                 22      0.328827  3 H  px         
    17     -0.328827  2 H  px                16     -0.209825  2 H  s          

 Vector   14  Occ=0.000000E+00  E= 1.476304E+00  Symmetry=a2
              MO Center=  7.5E-16,  7.7E-17, -4.3E-01, r^2= 1.0E+00
   Bfn.  Coefficient  Atom+Function         Bfn.  Coefficient  Atom+Function  
  ----- ------------  ---------------      ----- ------------  ---------------
    18      0.685632  2 H  py                23     -0.685632  3 H  py         

 Vector   15  Occ=0.000000E+00  E= 1.674768E+00  Symmetry=b2
              MO Center= -6.9E-16, -2.0E-17, -2.9E-01, r^2= 1.2E+00
   Bfn.  Coefficient  Atom+Function         Bfn.  Coefficient  Atom+Function  
  ----- ------------  ---------------      ----- ------------  ---------------
    23      0.767191  3 H  py                18      0.767191  2 H  py         
     8     -0.633433  1 O  py                11     -0.160750  1 O  d -1       


 center of mass
 --------------
 x =   0.00000000 y =   0.00000000 z =   0.09750368

 moments of inertia (a.u.)
 ------------------
           2.193344434586           0.000000000000           0.000000000000
           0.000000000000           6.315897898335           0.000000000000
           0.000000000000           0.000000000000           4.122553463750

  Mulliken analysis of the total density
  --------------------------------------

    Atom       Charge   Shell Charges
 -----------   ------   -------------------------------------------------------
    1 O    8     8.31   2.00  0.83  0.82  2.82  1.81  0.01
    2 H    1     0.85   0.69  0.07  0.09
    3 H    1     0.85   0.69  0.07  0.09

       Multipole analysis of the density wrt the origin
       ------------------------------------------------

     L   x y z        total         open         nuclear
     -   - - -        -----         ----         -------
     0   0 0 0      0.000000      0.000000     10.000000

     1   1 0 0      0.000000      0.000000      0.000000
     1   0 1 0      0.000000      0.000000      0.000000
     1   0 0 1     -0.808895      0.000000      0.000000

     2   2 0 0     -3.064509      0.000000      4.090545
     2   1 1 0      0.000000      0.000000      0.000000
     2   1 0 1      0.000000      0.000000      0.000000
     2   0 2 0     -5.228664      0.000000      0.000000
     2   0 1 1      0.000000      0.000000      0.000000
     2   0 0 2     -4.376016      0.000000      1.960456


 Parallel integral file used       1 records with       0 large values

                   NWChem Extensible Many-Electron Theory Module
                   ---------------------------------------------

              ======================================================
                   This portion of the program was automatically
                  generated by a Tensor Contraction Engine (TCE).
                  The development of this portion of the program
                 and TCE was supported by US Department of Energy,
                Office of Science, Office of Basic Energy Science.
                      TCE is a product of Battelle and PNNL.
              Please cite: S.Hirata, J.Phys.Chem.A 107, 9887 (2003).
              ======================================================

            General Information
            -------------------
      Number of processors :     1
         Wavefunction type : Restricted Hartree-Fock
          No. of electrons :    10
           Alpha electrons :     5
            Beta electrons :     5
           No. of orbitals :    48
            Alpha orbitals :    24
             Beta orbitals :    24
        Alpha frozen cores :     0
         Beta frozen cores :     0
     Alpha frozen virtuals :     0
      Beta frozen virtuals :     0
         Spin multiplicity : singlet 
    Number of AO functions :    24
       Number of AO shells :    12
        Use of symmetry is : on 
      Symmetry adaption is : on 
         Schwarz screening : 0.10E-09

          Correlation Information
          -----------------------
          Calculation type : Coupled-cluster singles & doubles w/ perturbation           
   Perturbative correction : (T)                 
            Max iterations :      100
        Residual threshold : 0.10E-06
          Amplitude update :  5-th order DIIS
                I/O scheme : Global Array Library

            Memory Information
            ------------------
          Available GA+MA space size is   52426728 doubles

 Maximum block size        45 doubles

 Block   Spin    Irrep     Size     Offset   Alpha
 -------------------------------------------------
   1    alpha     a1     3 doubles       0       1
   2    alpha     b1     1 doubles       3       2
   3    alpha     b2     1 doubles       4       3
   4    beta      a1     3 doubles       5       1
   5    beta      b1     1 doubles       8       2
   6    beta      b2     1 doubles       9       3
   7    alpha     a1     8 doubles      10       7
   8    alpha     a2     2 doubles      18       8
   9    alpha     b1     6 doubles      20       9
  10    alpha     b2     3 doubles      26      10
  11    beta      a1     8 doubles      29       7
  12    beta      a2     2 doubles      37       8
  13    beta      b1     6 doubles      39       9
  14    beta      b2     3 doubles      45      10

 Global array virtual files algorithm will be used

 Parallel file system coherency ......... OK

 Epsilons used as Fock matrix
 1-e file size   =        190
 1-e file name   = ./tce_ccsd_t_h2o.f1 
 Cpu & wall time / sec            0.0            0.0

 2-e (intermediate) file size =          734976
 2-e (intermediate) file name = ./tce_ccsd_t_h2o.v2i
 Cpu & wall time / sec            1.5            1.5

 2-e file size   =     126194
 2-e file name   = ./tce_ccsd_t_h2o.v2 
 Cpu & wall time / sec            0.5            0.6

 t1 file size   =         33
 t1 file name   = ./tce_ccsd_t_h2o.t1 

 t2 file size   =       4006
 t2 file name   = ./tce_ccsd_t_h2o.t2 

 CCSD iterations
 --------------------------------------------------------
 Iter          Residuum       Correlation     Cpu    Wall
 --------------------------------------------------------
    1   0.1069858652497  -0.2039461902062     1.2     1.2
    2   0.0309945386324  -0.2089054954864     1.2     1.3
    3   0.0110477599904  -0.2121036464526     1.3     1.3
    4   0.0044775974775  -0.2128146872848     1.4     1.4
    5   0.0018742685576  -0.2130973289730     1.4     1.5
    6   0.0002540957641  -0.2132527218446     1.5     1.6
    7   0.0001227259938  -0.2132698832568     1.5     1.6
    8   0.0000569485115  -0.2132695965344     1.5     1.6
    9   0.0000329498153  -0.2132696133411     1.5     1.6
   10   0.0000182430098  -0.2132697428766     1.5     1.6
   11   0.0000019087309  -0.2132699955589     1.6     1.6
   12   0.0000006932931  -0.2132699395166     1.5     1.6
   13   0.0000003065335  -0.2132699569549     1.5     1.6
   14   0.0000001553424  -0.2132699547840     1.5     1.6
   15   0.0000000786916  -0.2132699542859     1.5     1.6
 --------------------------------------------------------
 Iterations converged
 CCSD correlation energy / hartree =        -0.213269954285922
 CCSD total energy / hartree       =       -76.240077811545561

 Singles contributions

 Doubles contributions
  12a1  (alpha)  19a2  (alpha) ---   4b1  (alpha)   5b2  (alpha)            -0.01232
  13a1  (alpha)  21b1  (alpha) ---   3a1  (alpha)   4b1  (alpha)            -0.01542
  13a1  (alpha)  22b1  (alpha) ---   3a1  (alpha)   4b1  (alpha)            -0.01399
  13a1  (alpha)  23b1  (alpha) ---   3a1  (alpha)   4b1  (alpha)            -0.01135
  14a1  (alpha)  22b1  (alpha) ---   3a1  (alpha)   4b1  (alpha)             0.01216
  12a1  (alpha)  27b2  (alpha) ---   3a1  (alpha)   5b2  (alpha)             0.01118
  13a1  (alpha)  27b2  (alpha) ---   3a1  (alpha)   5b2  (alpha)            -0.02000
  11a1  (alpha)  30a1  (beta ) ---   2a1  (alpha)   7a1  (beta )            -0.01294
  11a1  (alpha)  30a1  (beta ) ---   2a1  (alpha)   8a1  (beta )             0.01177
  11a1  (alpha)  30a1  (beta ) ---   3a1  (alpha)   7a1  (beta )             0.01177
  11a1  (alpha)  30a1  (beta ) ---   3a1  (alpha)   8a1  (beta )            -0.01623
  11a1  (alpha)  31a1  (beta ) ---   2a1  (alpha)   7a1  (beta )             0.01092
  11a1  (alpha)  31a1  (beta ) ---   2a1  (alpha)   8a1  (beta )            -0.01183
  11a1  (alpha)  31a1  (beta ) ---   3a1  (alpha)   7a1  (beta )            -0.01039
  11a1  (alpha)  31a1  (beta ) ---   3a1  (alpha)   8a1  (beta )             0.01204
  11a1  (alpha)  32a1  (beta ) ---   2a1  (alpha)   8a1  (beta )             0.01182
  12a1  (alpha)  30a1  (beta ) ---   2a1  (alpha)   7a1  (beta )             0.01092
  12a1  (alpha)  30a1  (beta ) ---   2a1  (alpha)   8a1  (beta )            -0.01039
  12a1  (alpha)  30a1  (beta ) ---   3a1  (alpha)   7a1  (beta )            -0.01183
  12a1  (alpha)  30a1  (beta ) ---   3a1  (alpha)   8a1  (beta )             0.01204
  12a1  (alpha)  31a1  (beta ) ---   2a1  (alpha)   7a1  (beta )            -0.01405
  12a1  (alpha)  31a1  (beta ) ---   2a1  (alpha)   8a1  (beta )             0.01378
  12a1  (alpha)  31a1  (beta ) ---   3a1  (alpha)   7a1  (beta )             0.01378
  12a1  (alpha)  31a1  (beta ) ---   3a1  (alpha)   8a1  (beta )            -0.01580
  12a1  (alpha)  32a1  (beta ) ---   3a1  (alpha)   8a1  (beta )             0.01292
  13a1  (alpha)  30a1  (beta ) ---   3a1  (alpha)   7a1  (beta )             0.01182
  13a1  (alpha)  31a1  (beta ) ---   3a1  (alpha)   8a1  (beta )             0.01292
  13a1  (alpha)  32a1  (beta ) ---   3a1  (alpha)   8a1  (beta )            -0.03539
  13a1  (alpha)  34a1  (beta ) ---   3a1  (alpha)   7a1  (beta )            -0.01293
  13a1  (alpha)  34a1  (beta ) ---   3a1  (alpha)   8a1  (beta )            -0.01217
  14a1  (alpha)  33a1  (beta ) ---   3a1  (alpha)   8a1  (beta )            -0.01537
  15a1  (alpha)  32a1  (beta ) ---   2a1  (alpha)   8a1  (beta )            -0.01293
  15a1  (alpha)  32a1  (beta ) ---   3a1  (alpha)   8a1  (beta )            -0.01217
  17a1  (alpha)  36a1  (beta ) ---   3a1  (alpha)   8a1  (beta )            -0.01182
  11a1  (alpha)  30a1  (beta ) ---   4b1  (alpha)   9b1  (beta )            -0.01457
  11a1  (alpha)  31a1  (beta ) ---   4b1  (alpha)   9b1  (beta )             0.01403
  12a1  (alpha)  30a1  (beta ) ---   4b1  (alpha)   9b1  (beta )             0.01403
  12a1  (alpha)  31a1  (beta ) ---   4b1  (alpha)   9b1  (beta )            -0.02836
  11a1  (alpha)  30a1  (beta ) ---   5b2  (alpha)  10b2  (beta )            -0.01193
  15a1  (alpha)  34a1  (beta ) ---   5b2  (alpha)  10b2  (beta )            -0.01359
  11a1  (alpha)  40b1  (beta ) ---   2a1  (alpha)   9b1  (beta )             0.01429
  11a1  (alpha)  40b1  (beta ) ---   3a1  (alpha)   9b1  (beta )            -0.01386
  11a1  (alpha)  41b1  (beta ) ---   3a1  (alpha)   9b1  (beta )            -0.01083
  11a1  (alpha)  42b1  (beta ) ---   2a1  (alpha)   9b1  (beta )             0.01450
  12a1  (alpha)  40b1  (beta ) ---   3a1  (alpha)   9b1  (beta )             0.01310
  12a1  (alpha)  41b1  (beta ) ---   2a1  (alpha)   9b1  (beta )            -0.01040
  12a1  (alpha)  41b1  (beta ) ---   3a1  (alpha)   9b1  (beta )             0.01599
  12a1  (alpha)  42b1  (beta ) ---   2a1  (alpha)   9b1  (beta )            -0.01053
  12a1  (alpha)  42b1  (beta ) ---   3a1  (alpha)   9b1  (beta )             0.01009
  13a1  (alpha)  40b1  (beta ) ---   3a1  (alpha)   9b1  (beta )            -0.01794
  13a1  (alpha)  41b1  (beta ) ---   3a1  (alpha)   9b1  (beta )            -0.01261
  13a1  (alpha)  42b1  (beta ) ---   3a1  (alpha)   9b1  (beta )            -0.01622
  15a1  (alpha)  42b1  (beta ) ---   2a1  (alpha)   9b1  (beta )            -0.01156
  12a1  (alpha)  40b1  (beta ) ---   4b1  (alpha)   8a1  (beta )             0.01064
  12a1  (alpha)  41b1  (beta ) ---   4b1  (alpha)   7a1  (beta )            -0.01121
  12a1  (alpha)  41b1  (beta ) ---   4b1  (alpha)   8a1  (beta )             0.02148
  11a1  (alpha)  46b2  (beta ) ---   2a1  (alpha)  10b2  (beta )             0.01833
  12a1  (alpha)  46b2  (beta ) ---   2a1  (alpha)  10b2  (beta )            -0.01245
  12a1  (alpha)  46b2  (beta ) ---   3a1  (alpha)  10b2  (beta )             0.01281
  13a1  (alpha)  46b2  (beta ) ---   3a1  (alpha)  10b2  (beta )            -0.02860
  15a1  (alpha)  46b2  (beta ) ---   2a1  (alpha)  10b2  (beta )            -0.01571
  16a1  (alpha)  46b2  (beta ) ---   2a1  (alpha)  10b2  (beta )             0.01010
  19a2  (alpha)  38a2  (beta ) ---   4b1  (alpha)   9b1  (beta )            -0.01516
  20a2  (alpha)  39a2  (beta ) ---   5b2  (alpha)  10b2  (beta )            -0.01272
  19a2  (alpha)  41b1  (beta ) ---   5b2  (alpha)   8a1  (beta )             0.01091
  21b1  (alpha)  27b2  (alpha) ---   4b1  (alpha)   5b2  (alpha)            -0.01645
  23b1  (alpha)  27b2  (alpha) ---   4b1  (alpha)   5b2  (alpha)            -0.01663
  21b1  (alpha)  31a1  (beta ) ---   3a1  (alpha)   9b1  (beta )             0.01064
  22b1  (alpha)  31a1  (beta ) ---   2a1  (alpha)   9b1  (beta )            -0.01121
  22b1  (alpha)  31a1  (beta ) ---   3a1  (alpha)   9b1  (beta )             0.02148
  21b1  (alpha)  30a1  (beta ) ---   4b1  (alpha)   7a1  (beta )             0.01429
  21b1  (alpha)  30a1  (beta ) ---   4b1  (alpha)   8a1  (beta )            -0.01386
  21b1  (alpha)  31a1  (beta ) ---   4b1  (alpha)   8a1  (beta )             0.01310
  21b1  (alpha)  32a1  (beta ) ---   4b1  (alpha)   8a1  (beta )            -0.01794
  22b1  (alpha)  30a1  (beta ) ---   4b1  (alpha)   8a1  (beta )            -0.01083
  22b1  (alpha)  31a1  (beta ) ---   4b1  (alpha)   7a1  (beta )            -0.01040
  22b1  (alpha)  31a1  (beta ) ---   4b1  (alpha)   8a1  (beta )             0.01599
  22b1  (alpha)  32a1  (beta ) ---   4b1  (alpha)   8a1  (beta )            -0.01261
  23b1  (alpha)  30a1  (beta ) ---   4b1  (alpha)   7a1  (beta )             0.01450
  23b1  (alpha)  31a1  (beta ) ---   4b1  (alpha)   7a1  (beta )            -0.01053
  23b1  (alpha)  31a1  (beta ) ---   4b1  (alpha)   8a1  (beta )             0.01009
  23b1  (alpha)  32a1  (beta ) ---   4b1  (alpha)   8a1  (beta )            -0.01622
  23b1  (alpha)  34a1  (beta ) ---   4b1  (alpha)   7a1  (beta )            -0.01156
  22b1  (alpha)  38a2  (beta ) ---   3a1  (alpha)  10b2  (beta )             0.01091
  21b1  (alpha)  41b1  (beta ) ---   3a1  (alpha)   8a1  (beta )            -0.01315
  22b1  (alpha)  40b1  (beta ) ---   3a1  (alpha)   8a1  (beta )            -0.01315
  22b1  (alpha)  41b1  (beta ) ---   3a1  (alpha)   8a1  (beta )            -0.02563
  21b1  (alpha)  40b1  (beta ) ---   4b1  (alpha)   9b1  (beta )            -0.02919
  21b1  (alpha)  41b1  (beta ) ---   4b1  (alpha)   9b1  (beta )            -0.02089
  21b1  (alpha)  42b1  (beta ) ---   4b1  (alpha)   9b1  (beta )            -0.01911
  22b1  (alpha)  40b1  (beta ) ---   4b1  (alpha)   9b1  (beta )            -0.02089
  22b1  (alpha)  41b1  (beta ) ---   4b1  (alpha)   9b1  (beta )            -0.03608
  22b1  (alpha)  44b1  (beta ) ---   4b1  (alpha)   9b1  (beta )             0.01085
  23b1  (alpha)  40b1  (beta ) ---   4b1  (alpha)   9b1  (beta )            -0.01911
  23b1  (alpha)  42b1  (beta ) ---   4b1  (alpha)   9b1  (beta )            -0.02214
  25b1  (alpha)  41b1  (beta ) ---   4b1  (alpha)   9b1  (beta )             0.01085
  25b1  (alpha)  44b1  (beta ) ---   4b1  (alpha)   9b1  (beta )            -0.01055
  21b1  (alpha)  46b2  (beta ) ---   4b1  (alpha)  10b2  (beta )            -0.02165
  22b1  (alpha)  46b2  (beta ) ---   4b1  (alpha)  10b2  (beta )            -0.01276
  23b1  (alpha)  46b2  (beta ) ---   4b1  (alpha)  10b2  (beta )            -0.02278
  27b2  (alpha)  30a1  (beta ) ---   5b2  (alpha)   7a1  (beta )             0.01833
  27b2  (alpha)  31a1  (beta ) ---   5b2  (alpha)   7a1  (beta )            -0.01245
  27b2  (alpha)  31a1  (beta ) ---   5b2  (alpha)   8a1  (beta )             0.01281
  27b2  (alpha)  32a1  (beta ) ---   5b2  (alpha)   8a1  (beta )            -0.02860
  27b2  (alpha)  34a1  (beta ) ---   5b2  (alpha)   7a1  (beta )            -0.01571
  27b2  (alpha)  35a1  (beta ) ---   5b2  (alpha)   7a1  (beta )             0.01010
  27b2  (alpha)  40b1  (beta ) ---   5b2  (alpha)   9b1  (beta )            -0.02165
  27b2  (alpha)  41b1  (beta ) ---   5b2  (alpha)   9b1  (beta )            -0.01276
  27b2  (alpha)  42b1  (beta ) ---   5b2  (alpha)   9b1  (beta )            -0.02278
  29b2  (alpha)  48b2  (beta ) ---   3a1  (alpha)   8a1  (beta )            -0.01081
  27b2  (alpha)  46b2  (beta ) ---   5b2  (alpha)  10b2  (beta )            -0.05138
  29b2  (alpha)  48b2  (beta ) ---   5b2  (alpha)  10b2  (beta )            -0.01304

 (T) & [T] code has been provided by A.A.Auer (Waterloo)
 CCSD[T] correlation energy / hartree =        -0.216409863487587
 CCSD[T] total energy / hartree       =       -76.243217720747225
 CCSD(T) correlation energy / hartree =        -0.216324672928975
 CCSD(T) total energy / hartree       =       -76.243132530188618
 Cpu & wall time / sec            1.1            1.1

 Task  times  cpu:       25.3s     wall:       26.5s


                                NWChem Input Module
                                -------------------


 Summary of allocated global arrays
-----------------------------------
  No active global arrays



                         GA Statistics for process    0
                         ------------------------------

       create   destroy   get      put      acc     scatter   gather  read&inc
calls:  868      868     2.46e+05 3569     1.04e+05    0        0        0     
number of processes/call 1.00e+00 1.00e+00 1.00e+00 0.00e+00 0.00e+00
bytes total:             1.36e+08 9.35e+06 4.46e+07 0.00e+00 0.00e+00 0.00e+00
bytes remote:            0.00e+00 0.00e+00 0.00e+00 0.00e+00 0.00e+00 0.00e+00
Max memory consumed for GA by this process: 6890880 bytes

MA_summarize_allocated_blocks: starting scan ...
MA_summarize_allocated_blocks: scan completed: 0 heap blocks, 0 stack blocks
MA usage statistics:

	allocation statistics:
					      heap	     stack
					      ----	     -----
	current number of blocks	         0	         0
	maximum number of blocks	        47	        26
	current total bytes		         0	         0
	maximum total bytes		   6901724	  16000988
	maximum total K-bytes		      6902	     16001
	maximum total M-bytes		         7	        17



                                  ACKNOWLEDGEMENT
                                  ---------------

            Please use the following acknowledgement where appropriate 
            for results obtained with NWChem:

            High Performance Computational Chemistry Group, "NWChem, A
            Computational Chemistry Package for Parallel Computers, 
            Version 4.5" (2003), Pacific Northwest National Laboratory,
            Richland, Washington 99352-0999, USA.


                                     CITATION
                                     --------

            Please use the following citation when publishing results
            obtained with NWChem:

            T. P. Straatsma, E. Apra, T. L. Windus, M. Dupuis, E. J. Bylaska,
            W. de Jong, S. Hirata, D. M. A. Smith, M. T. Hackler, L. Pollack,
            R. J. Harrison, J. Nieplocha, V. Tipparaju, M. Krishnan, A. A. Auer,
            E. Brown, G. Cisneros, G. I. Fann, H. Fruchtl, J. Garza, K. Hirao,
            R. Kendall, J. A. Nichols, K. Tsemekhman, M. Valiev,
            K. Wolinski, J. Anchell, D. Bernholdt, P. Borowski, T. Clark,
            D. Clerc, H. Dachsel, M. Deegan, K. Dyall, D. Elwood,
            E. Glendening, M. Gutowski, A. Hess, J. Jaffe, B. Johnson, J. Ju,
            R. Kobayashi, R. Kutteh, Z. Lin, R. Littlefield, X. Long, B. Meng,
            T. Nakajima, S. Niu, M. Rosing, G. Sandrone, M. Stave, H. Taylor,
            G. Thomas, J. van Lenthe, A. Wong, and Z. Zhang,
            "NWChem, A Computational Chemistry Package for Parallel Computers, 
            Version 4.5" (2003),
                      Pacific Northwest National Laboratory,
                      Richland, Washington 99352-0999, USA.



 Total times  cpu:       25.8s     wall:       27.0s
