C4H4 WFN                                                                        
GAUSSIAN             14 MOL ORBITALS    128 PRIMITIVES        8 NUCLEI
  C    1    (CENTRE  1)   0.97775600 -0.97775600 -0.97775600  CHARGE =  6.0
  C    2    (CENTRE  2)  -0.97775600 -0.97775600  0.97775600  CHARGE =  6.0
  C    3    (CENTRE  3)  -0.97775600  0.97775600 -0.97775600  CHARGE =  6.0
  C    4    (CENTRE  4)   0.97775600  0.97775600  0.97775600  CHARGE =  6.0
  H    5    (CENTRE  5)   2.13806500 -2.13806500 -2.13806500  CHARGE =  1.0
  H    6    (CENTRE  6)  -2.13806500 -2.13806500  2.13806500  CHARGE =  1.0
  H    7    (CENTRE  7)  -2.13806500  2.13806500 -2.13806500  CHARGE =  1.0
  H    8    (CENTRE  8)   2.13806500  2.13806500  2.13806500  CHARGE =  1.0
CENTRE ASSIGNMENTS    1  1  1  1  1  1  1  1  1  1  1  1  1  1  1  1  1  1  1  1
CENTRE ASSIGNMENTS    1  1  1  1  1  1  1  1  2  2  2  2  2  2  2  2  2  2  2  2
CENTRE ASSIGNMENTS    2  2  2  2  2  2  2  2  2  2  2  2  2  2  2  2  3  3  3  3
CENTRE ASSIGNMENTS    3  3  3  3  3  3  3  3  3  3  3  3  3  3  3  3  3  3  3  3
CENTRE ASSIGNMENTS    3  3  3  3  4  4  4  4  4  4  4  4  4  4  4  4  4  4  4  4
CENTRE ASSIGNMENTS    4  4  4  4  4  4  4  4  4  4  4  4  5  5  5  5  6  6  6  6
CENTRE ASSIGNMENTS    7  7  7  7  8  8  8  8
TYPE ASSIGNMENTS      1  1  1  1  1  1  1  1  1  2  2  2  3  3  3  4  4  4  1  2
TYPE ASSIGNMENTS      3  4  5  8  9  6 10  7  1  1  1  1  1  1  1  1  1  2  2  2
TYPE ASSIGNMENTS      3  3  3  4  4  4  1  2  3  4  5  8  9  6 10  7  1  1  1  1
TYPE ASSIGNMENTS      1  1  1  1  1  2  2  2  3  3  3  4  4  4  1  2  3  4  5  8
TYPE ASSIGNMENTS      9  6 10  7  1  1  1  1  1  1  1  1  1  2  2  2  3  3  3  4
TYPE ASSIGNMENTS      4  4  1  2  3  4  5  8  9  6 10  7  1  1  1  1  1  1  1  1
TYPE ASSIGNMENTS      1  1  1  1  1  1  1  1
EXPONENTS  3.0475249E+03 4.5736951E+02 1.0394869E+02 2.9210155E+01 9.2866630E+00
EXPONENTS  3.1639270E+00 7.8682724E+00 1.8812885E+00 5.4424930E-01 7.8682724E+00
EXPONENTS  1.8812885E+00 5.4424930E-01 7.8682724E+00 1.8812885E+00 5.4424930E-01
EXPONENTS  7.8682724E+00 1.8812885E+00 5.4424930E-01 1.6871440E-01 1.6871440E-01
EXPONENTS  1.6871440E-01 1.6871440E-01 8.0000000E-01 8.0000000E-01 8.0000000E-01
EXPONENTS  8.0000000E-01 8.0000000E-01 8.0000000E-01 3.0475249E+03 4.5736951E+02
EXPONENTS  1.0394869E+02 2.9210155E+01 9.2866630E+00 3.1639270E+00 7.8682724E+00
EXPONENTS  1.8812885E+00 5.4424930E-01 7.8682724E+00 1.8812885E+00 5.4424930E-01
EXPONENTS  7.8682724E+00 1.8812885E+00 5.4424930E-01 7.8682724E+00 1.8812885E+00
EXPONENTS  5.4424930E-01 1.6871440E-01 1.6871440E-01 1.6871440E-01 1.6871440E-01
EXPONENTS  8.0000000E-01 8.0000000E-01 8.0000000E-01 8.0000000E-01 8.0000000E-01
EXPONENTS  8.0000000E-01 3.0475249E+03 4.5736951E+02 1.0394869E+02 2.9210155E+01
EXPONENTS  9.2866630E+00 3.1639270E+00 7.8682724E+00 1.8812885E+00 5.4424930E-01
EXPONENTS  7.8682724E+00 1.8812885E+00 5.4424930E-01 7.8682724E+00 1.8812885E+00
EXPONENTS  5.4424930E-01 7.8682724E+00 1.8812885E+00 5.4424930E-01 1.6871440E-01
EXPONENTS  1.6871440E-01 1.6871440E-01 1.6871440E-01 8.0000000E-01 8.0000000E-01
EXPONENTS  8.0000000E-01 8.0000000E-01 8.0000000E-01 8.0000000E-01 3.0475249E+03
EXPONENTS  4.5736951E+02 1.0394869E+02 2.9210155E+01 9.2866630E+00 3.1639270E+00
EXPONENTS  7.8682724E+00 1.8812885E+00 5.4424930E-01 7.8682724E+00 1.8812885E+00
EXPONENTS  5.4424930E-01 7.8682724E+00 1.8812885E+00 5.4424930E-01 7.8682724E+00
EXPONENTS  1.8812885E+00 5.4424930E-01 1.6871440E-01 1.6871440E-01 1.6871440E-01
EXPONENTS  1.6871440E-01 8.0000000E-01 8.0000000E-01 8.0000000E-01 8.0000000E-01
EXPONENTS  8.0000000E-01 8.0000000E-01 1.8731137E+01 2.8253937E+00 6.4012170E-01
EXPONENTS  1.6127780E-01 1.8731137E+01 2.8253937E+00 6.4012170E-01 1.6127780E-01
EXPONENTS  1.8731137E+01 2.8253937E+00 6.4012170E-01 1.6127780E-01 1.8731137E+01
EXPONENTS  2.8253937E+00 6.4012170E-01 1.6127780E-01
MO  1                     OCC NO =   2.00000000 ORB. ENERGY = -11.23803369
  2.66926632E-01  4.92436672E-01  7.94946549E-01  1.03478430E+00  8.82983403E-01
  3.04872996E-01 -5.80113800E-03 -2.67374039E-03  7.49744521E-03 -6.17453733E-04
 -4.73424172E-04 -2.36271844E-04  6.17453733E-04  4.73424172E-04  2.36271845E-04
  6.17453733E-04  4.73424172E-04  2.36271845E-04 -2.46756323E-04  1.78538975E-04
 -1.78538975E-04 -1.78538975E-04 -1.31422432E-03 -3.03611640E-06 -3.03611640E-06
 -1.31422432E-03  3.03611640E-06 -1.31422432E-03  2.66926632E-01  4.92436672E-01
  7.94946549E-01  1.03478430E+00  8.82983403E-01  3.04872996E-01 -5.80113800E-03
 -2.67374039E-03  7.49744521E-03  6.17453733E-04  4.73424172E-04  2.36271845E-04
  6.17453733E-04  4.73424172E-04  2.36271845E-04 -6.17453733E-04 -4.73424172E-04
 -2.36271845E-04 -2.46756323E-04 -1.78538975E-04 -1.78538975E-04  1.78538975E-04
 -1.31422432E-03  3.03611641E-06 -3.03611642E-06 -1.31422432E-03 -3.03611641E-06
 -1.31422432E-03  2.66926632E-01  4.92436672E-01  7.94946549E-01  1.03478430E+00
  8.82983403E-01  3.04872996E-01 -5.80113800E-03 -2.67374039E-03  7.49744521E-03
  6.17453733E-04  4.73424172E-04  2.36271845E-04 -6.17453733E-04 -4.73424172E-04
 -2.36271845E-04  6.17453733E-04  4.73424172E-04  2.36271845E-04 -2.46756323E-04
 -1.78538975E-04  1.78538975E-04 -1.78538975E-04 -1.31422432E-03 -3.03611641E-06
  3.03611641E-06 -1.31422432E-03 -3.03611641E-06 -1.31422432E-03  2.66926632E-01
  4.92436672E-01  7.94946549E-01  1.03478430E+00  8.82983403E-01  3.04872996E-01
 -5.80113800E-03 -2.67374039E-03  7.49744521E-03 -6.17453733E-04 -4.73424172E-04
 -2.36271845E-04 -6.17453733E-04 -4.73424172E-04 -2.36271845E-04 -6.17453733E-04
 -4.73424172E-04 -2.36271845E-04 -2.46756323E-04  1.78538975E-04  1.78538975E-04
  1.78538975E-04 -1.31422432E-03  3.03611641E-06  3.03611641E-06 -1.31422432E-03
  3.03611642E-06 -1.31422432E-03 -8.98782929E-05 -1.52450586E-04 -1.73559640E-04
 -1.23705604E-04 -8.98782929E-05 -1.52450586E-04 -1.73559640E-04 -1.23705604E-04
 -8.98782929E-05 -1.52450586E-04 -1.73559640E-04 -1.23705604E-04 -8.98782929E-05
 -1.52450586E-04 -1.73559640E-04 -1.23705604E-04
MO  2                     OCC NO =   2.00000000 ORB. ENERGY = -11.23646911
 -1.17721413E-01 -2.17177059E-01 -3.50591585E-01 -4.56366116E-01 -3.89418070E-01
 -1.34456722E-01  2.44937062E-03  1.12891318E-03 -3.16558958E-03  3.45560243E-04
  2.64953572E-04  1.32230403E-04 -3.55492883E-04 -2.72569287E-04 -1.36031179E-04
 -3.45405496E-04 -2.64834922E-04 -1.32171188E-04  7.72987617E-04 -2.27070664E-04
 -7.25430307E-05  2.31738552E-04  1.28151141E-04  8.52069061E-05  7.31318339E-04
  6.25917764E-04 -9.51186979E-05  1.20396093E-04  4.60946289E-01  8.50371709E-01
  1.37276546E+00  1.78693291E+00  1.52479323E+00  5.26474540E-01 -9.59067913E-03
 -4.42033721E-03  1.23950837E-02  1.36618854E-03  1.04750631E-03  5.22779069E-04
  1.36525836E-03  1.04679311E-03  5.22423131E-04 -1.36603380E-03 -1.04738766E-03
 -5.22719854E-04 -3.02668618E-03 -4.93241822E-04 -5.21300283E-04  4.97909709E-04
 -1.15946604E-03  1.20312010E-03 -1.15345256E-03 -1.11285080E-03 -1.21303189E-03
 -1.15171100E-03 -1.76501884E-01 -3.25617566E-01 -5.25648423E-01 -6.84238126E-01
 -5.83861688E-01 -2.01593440E-01  3.67238651E-03  1.69260034E-03 -4.74622679E-03
 -5.29354847E-04 -4.05875561E-04 -2.02560353E-04  5.19422208E-04  3.98259846E-04
  1.98759578E-04 -5.20197640E-04 -3.98854398E-04 -1.99056301E-04  1.15895458E-03
  1.09973085E-06 -3.00713426E-04  2.77322853E-04  7.55924845E-04  2.76659998E-04
 -2.26992461E-04  2.58158222E-04  8.63192102E-04  2.97018417E-04 -1.66722992E-01
 -3.07577085E-01 -4.96525454E-01 -6.46328670E-01 -5.51513477E-01 -1.90424379E-01
  3.46892200E-03  1.59882369E-03 -4.48326735E-03  4.91273454E-04  3.76677175E-04
  1.87988312E-04  4.90343274E-04  3.75963973E-04  1.87632374E-04  5.00430661E-04
  3.83698338E-04  1.91492365E-04  1.09474398E-03 -2.65071427E-04 -2.93129888E-04
  1.11516949E-05  2.75390058E-04 -8.41253196E-04 -1.95141763E-04  2.28774815E-04
 -2.54721092E-04  7.34296485E-04  2.99002108E-05  5.07164136E-05  5.77388561E-05
 -1.47901677E-05 -1.17076332E-04 -1.98583605E-04 -2.26080462E-04  5.79119189E-05
  4.48299370E-05  7.60400534E-05  8.65689309E-05 -2.21751710E-05  4.23461840E-05
  7.18271384E-05  8.17726751E-05 -2.09465802E-05
MO  3                     OCC NO =   2.00000000 ORB. ENERGY = -11.23646911
 -3.12177849E-02 -5.75917883E-02 -9.29711290E-02 -1.21020797E-01 -1.03267275E-01
 -3.56557138E-02  6.49532852E-04  2.99369231E-04 -8.39462355E-04  8.65535009E-05
  6.63637084E-05  3.31201420E-05 -9.24708115E-05 -7.09007251E-05 -3.53844313E-05
 -9.84793236E-05 -7.55076693E-05 -3.76836194E-05  2.04983618E-04 -2.13553902E-04
  3.50608334E-05 -1.46183289E-04 -2.20767072E-04  4.63490859E-04  7.86371374E-05
  7.57744196E-05  3.00374998E-04  3.76886405E-04  8.48484170E-03  1.56531672E-02
  2.52690995E-02  3.28928625E-02  2.80675418E-02  9.69104913E-03 -1.76539862E-04
 -8.13670972E-05  2.28161775E-04  1.89538402E-05  1.45325967E-05  7.25278437E-06
  2.55906320E-05  1.96212657E-05  9.79238687E-06 -3.08796629E-05 -2.36765575E-05
 -1.18162617E-05 -5.57135478E-05 -1.95924487E-04  4.27141567E-06 -1.63812704E-04
  2.89074542E-04  3.89447691E-04 -5.06777614E-05 -4.35231994E-05  3.74418166E-04
 -3.08578934E-04  3.88178326E-01  7.16126531E-01  1.15605183E+00  1.50483612E+00
  1.28407951E+00  4.43361864E-01 -8.07663248E-03 -3.72251419E-03  1.04383156E-02
  1.14802677E-03  8.80233763E-04  4.39298344E-04 -1.15394408E-03 -8.84770779E-04
 -4.41562633E-04  1.14865505E-03  8.80715487E-04  4.39538759E-04 -2.54887392E-03
 -4.90377079E-04  3.11884010E-04 -4.71425298E-04 -8.51820470E-04 -9.02518656E-04
  1.24128859E-03 -1.14836196E-03 -8.62276450E-04 -8.83306226E-04 -3.65445383E-01
 -6.74187910E-01 -1.08834980E+00 -1.41670819E+00 -1.20887978E+00 -4.17397199E-01
  7.60363949E-03  3.50451205E-03 -9.82701506E-03  1.08042711E-03  8.28402651E-04
  4.13430986E-04  1.08706390E-03  8.33491320E-04  4.15970589E-04  1.08105539E-03
  8.28884376E-04  4.13671401E-04  2.39960385E-03 -4.72747664E-04 -2.72551761E-04
 -4.53795883E-04  7.83512999E-04 -8.28475488E-04 -1.21332921E-03  1.11611074E-03
 -7.88233282E-04  8.14998756E-04  7.92904473E-06  1.34491597E-05  1.53113961E-05
 -3.92210951E-06 -2.15507569E-06 -3.65541603E-06 -4.16156281E-06  1.06601024E-06
 -9.85939048E-05 -1.67233913E-04 -1.90389938E-04  4.87695687E-05  9.28199358E-05
  1.57440169E-04  1.79240105E-04 -4.59134695E-05
MO  4                     OCC NO =   2.00000000 ORB. ENERGY = -11.23646911
  4.46236015E-01  8.23233623E-01  1.32895612E+00  1.72990616E+00  1.47613220E+00
  5.09673050E-01 -9.28460982E-03 -4.27927008E-03  1.19995169E-02 -1.32351491E-03
 -1.01478689E-03 -5.06449784E-04  1.32048062E-03  1.01246039E-03  5.05288697E-04
  1.32272143E-03  1.01417849E-03  5.06146154E-04 -2.93009492E-03  4.49573843E-04
 -5.41101878E-04 -4.73508907E-04 -1.16886069E-03 -1.18279674E-03 -1.03926984E-03
 -1.01679955E-03  1.23362045E-03 -1.12909590E-03 -3.76296262E-02 -6.94206034E-02
 -1.12066530E-01 -1.45877338E-01 -1.24477408E-01 -4.29790642E-02  7.82940831E-04
  3.60856874E-04 -1.01188008E-03 -1.08465322E-04 -8.31642965E-05 -4.15048130E-05
 -1.18363128E-04 -9.07533036E-05 -4.52922595E-05  1.07671839E-04  8.25559043E-05
  4.12011827E-05  2.47085338E-04  1.32699271E-04 -1.65863698E-04 -1.56634336E-04
 -5.89112107E-05  1.48069715E-04  5.36722524E-04  4.37109776E-04 -9.72460050E-05
 -9.86760028E-05 -1.79232069E-01 -3.30654319E-01 -5.33779316E-01 -6.94822134E-01
 -5.92893041E-01 -2.04711750E-01  3.72919212E-03  1.71878201E-03 -4.81964290E-03
 -5.29540458E-04 -4.06017875E-04 -2.02631378E-04  5.26506167E-04  4.03691375E-04
  2.01470291E-04 -5.37197457E-04 -4.11888774E-04 -2.05561368E-04  1.17688165E-03
  2.42512076E-04 -3.34040111E-04  1.15420776E-05  3.66572839E-04  8.54407070E-04
 -1.69614831E-04  2.14511696E-04  3.63965437E-04  7.50297474E-04 -2.29374320E-01
 -4.23158700E-01 -6.83110270E-01 -8.89206684E-01 -7.58761746E-01 -2.61982236E-01
  4.77247687E-03  2.19963120E-03 -6.16799390E-03  6.85509132E-04  5.25604715E-04
  2.62313593E-04  6.75611326E-04  5.18015708E-04  2.58526147E-04  6.77852133E-04
  5.19733816E-04  2.59383603E-04  1.50612794E-03 -7.43624962E-05 -3.72925465E-04
 -3.05332494E-04  8.61199063E-04 -4.76459385E-04 -3.32932489E-04  3.65178076E-04
 -9.66901018E-04  4.77474427E-04 -1.13340051E-04 -1.92246166E-04 -2.18865510E-04
  5.60637639E-05  9.55759642E-06  1.62114915E-05  1.84562138E-05 -4.72767416E-06
  4.55233804E-05  7.72162645E-05  8.79080059E-05 -2.25181834E-05  5.82590740E-05
  9.88184100E-05  1.12501290E-04 -2.88179064E-05
MO  5                     OCC NO =   2.00000000 ORB. ENERGY =  -1.29659946
 -5.77276910E-02 -1.06498298E-01 -1.71921507E-01 -2.23790740E-01 -1.90961062E-01
 -6.59342754E-02 -8.20485327E-02 -3.78161106E-02  1.06040294E-01 -1.06150870E-01
 -8.13897221E-02 -4.06191760E-02  1.06150870E-01  8.13897221E-02  4.06191760E-02
  1.06150870E-01  8.13897221E-02  4.06191760E-02  1.91439139E-02 -3.91037086E-04
  3.91037086E-04  3.91037086E-04  2.58066463E-03 -2.01536974E-02 -2.01536974E-02
  2.58066463E-03  2.01536974E-02  2.58066463E-03 -5.77276910E-02 -1.06498298E-01
 -1.71921507E-01 -2.23790740E-01 -1.90961062E-01 -6.59342754E-02 -8.20485327E-02
 -3.78161106E-02  1.06040294E-01  1.06150870E-01  8.13897221E-02  4.06191760E-02
  1.06150870E-01  8.13897221E-02  4.06191760E-02 -1.06150870E-01 -8.13897221E-02
 -4.06191760E-02  1.91439139E-02  3.91037086E-04  3.91037086E-04 -3.91037086E-04
  2.58066463E-03  2.01536974E-02 -2.01536974E-02  2.58066463E-03 -2.01536974E-02
  2.58066463E-03 -5.77276910E-02 -1.06498298E-01 -1.71921507E-01 -2.23790740E-01
 -1.90961062E-01 -6.59342754E-02 -8.20485327E-02 -3.78161106E-02  1.06040294E-01
  1.06150870E-01  8.13897221E-02  4.06191760E-02 -1.06150870E-01 -8.13897221E-02
 -4.06191760E-02  1.06150870E-01  8.13897221E-02  4.06191760E-02  1.91439139E-02
  3.91037086E-04 -3.91037086E-04  3.91037086E-04  2.58066463E-03 -2.01536974E-02
  2.01536974E-02  2.58066463E-03 -2.01536974E-02  2.58066463E-03 -5.77276910E-02
 -1.06498298E-01 -1.71921507E-01 -2.23790740E-01 -1.90961062E-01 -6.59342754E-02
 -8.20485327E-02 -3.78161106E-02  1.06040294E-01 -1.06150870E-01 -8.13897221E-02
 -4.06191760E-02 -1.06150870E-01 -8.13897221E-02 -4.06191760E-02 -1.06150870E-01
 -8.13897221E-02 -4.06191760E-02  1.91439139E-02 -3.91037086E-04 -3.91037086E-04
 -3.91037086E-04  2.58066463E-03  2.01536974E-02  2.01536974E-02  2.58066463E-03
  2.01536974E-02  2.58066463E-03  4.47760846E-03  7.59487094E-03  8.64649390E-03
 -1.15334930E-03  4.47760846E-03  7.59487094E-03  8.64649390E-03 -1.15334930E-03
  4.47760846E-03  7.59487094E-03  8.64649390E-03 -1.15334930E-03  4.47760846E-03
  7.59487094E-03  8.64649390E-03 -1.15334930E-03
MO  6                     OCC NO =   2.00000000 ORB. ENERGY =  -0.80539110
  3.89412458E-02  7.18403306E-02  1.15972725E-01  1.50962044E-01  1.28816198E-01
  4.44771441E-02  5.62158284E-02  2.59098355E-02 -7.26538643E-02  1.05162675E-01
  8.06320373E-02  4.02410382E-02  1.29131427E-01  9.90097490E-02  4.94128044E-02
  9.45576499E-02  7.25007798E-02  3.61829708E-02 -3.08381992E-02  3.67727634E-03
  3.59139100E-03  2.51878488E-03 -1.56777703E-02  1.87838431E-02  2.37621840E-02
  5.56590232E-03  9.97424855E-03  2.43106452E-03  2.92020291E-02  5.38730434E-02
  8.69679135E-02  1.13206393E-01  9.65992297E-02  3.33533976E-02  4.21562336E-02
  1.94297782E-02 -5.44831121E-02  7.77790353E-02  5.96360074E-02  2.97625476E-02
  1.33045170E-01  1.02010557E-01  5.09104180E-02  1.21941290E-01  9.34968097E-02
  4.66614613E-02 -2.31255568E-02  2.10197751E-03  3.81653686E-03  4.09408371E-03
  2.44598958E-03  1.36828289E-02  2.30331336E-02  7.45702334E-03  1.50752627E-02
 -1.56628452E-02  1.29292808E-02  2.38524420E-02  3.85052891E-02  5.01224502E-02
  4.27695815E-02  1.47673109E-02  1.86647914E-02  8.60258913E-03 -2.41225516E-02
  8.43183025E-02  6.46499007E-02  3.22648318E-02  1.49975800E-01  1.14991886E-01
  5.73890108E-02  1.05010659E-01  8.05154811E-02  4.01828685E-02 -1.02389055E-02
  2.47816198E-03  4.79050536E-03  3.12011521E-03  5.60576487E-03  1.68366604E-02
  1.98793020E-02 -1.56379077E-02  1.38571305E-02  7.48196084E-03 -8.10725557E-02
 -1.49565816E-01 -2.41445928E-01 -3.14290887E-01 -2.68185009E-01 -9.25978526E-02
 -1.17036853E-01 -5.39422028E-02  1.51259528E-01  5.69346626E-02  4.36538708E-02
  2.17863413E-02  1.12200797E-01  8.60284204E-02  4.29342116E-02  7.76270193E-02
  5.95194512E-02  2.97043779E-02  6.42026615E-02  9.02863152E-04  2.61742250E-03
  1.54481639E-03  7.62601581E-03  2.19376746E-02  2.69160155E-02  2.61498204E-03
  1.89581447E-02  5.74981984E-03 -1.93961298E-02 -3.28995052E-02 -3.74549316E-02
 -7.67514407E-03 -1.45451522E-02 -2.46713296E-02 -2.80874425E-02 -5.75558834E-03
 -6.43990719E-03 -1.09233008E-02 -1.24357944E-02 -2.54830298E-03  4.03811892E-02
  6.84941356E-02  7.79781684E-02  1.59790354E-02
MO  7                     OCC NO =   2.00000000 ORB. ENERGY =  -0.80539110
 -7.24452551E-02 -1.33649835E-01 -2.15752565E-01 -2.80845760E-01 -2.39646218E-01
 -8.27440926E-02 -1.04582428E-01 -4.82019669E-02  1.35163311E-01  1.52826774E-01
  1.17177830E-01  5.84799505E-02 -4.06216153E-02 -3.11460658E-02 -1.55440699E-02
 -2.70549681E-02 -2.07440253E-02 -1.03527226E-02  5.73705633E-02  3.96967490E-03
 -4.88656980E-04 -6.77695383E-05 -2.42947979E-03 -1.35106905E-02 -1.54641767E-02
  7.74427030E-03  3.16208008E-02  8.97437131E-03  3.96237273E-02  7.30993991E-02
  1.18005255E-01  1.53607794E-01  1.31073821E-01  4.52566473E-02  5.72010630E-02
  2.63639294E-02 -7.39271908E-02  1.66016232E-01  1.27290667E-01  6.35269646E-02
 -8.56569715E-02 -6.56763068E-02 -3.27770804E-02 -4.02444266E-02 -3.08568616E-02
 -1.53997367E-02 -3.13786673E-02  4.72842496E-03 -3.07940620E-03 -8.26519601E-04
  8.80262898E-03 -1.10537631E-02 -7.07500738E-03 -1.40168235E-02  2.91638734E-02
 -2.60122212E-03  4.60091053E-02  8.48793936E-02  1.37021844E-01  1.78361745E-01
  1.52196414E-01  5.25497723E-02  6.64190349E-02  3.06124861E-02 -8.58405842E-02
  1.63450243E-01  1.25323230E-01  6.25450758E-02 -5.12450849E-02 -3.92914653E-02
 -1.96091951E-02 -7.46563132E-02 -5.72417031E-02 -2.85676220E-02 -3.64353508E-02
  4.58081130E-03 -1.09979338E-03 -2.80613242E-03  7.56274258E-03 -4.64352980E-03
 -1.34852407E-02 -2.61100752E-03  2.96418649E-02 -1.40266089E-02 -1.31875775E-02
 -2.43289578E-02 -3.92745344E-02 -5.11237790E-02 -4.36240174E-02 -1.50623271E-02
 -1.90376701E-02 -8.77444866E-03  2.46044636E-02  1.76639702E-01  1.35436066E-01
  6.75920899E-02 -7.50335019E-02 -5.75309074E-02 -2.87119552E-02 -6.14668547E-02
 -4.71288669E-02 -2.35206079E-02  1.04434548E-02  5.33956137E-03 -2.46826980E-03
 -2.04738236E-03 -1.39358918E-02 -7.10045719E-03 -9.05394332E-03  8.88356071E-03
  2.71849375E-02  7.65345970E-03  3.60840426E-02  6.12053621E-02  6.96801557E-02
  1.42786333E-02 -1.97360650E-02 -3.34760996E-02 -3.81113640E-02 -7.80965810E-03
 -2.29165390E-02 -3.88707851E-02 -4.42530240E-02 -9.06818731E-03  6.56856142E-03
  1.11415227E-02  1.26842324E-02  2.59921209E-03
MO  8                     OCC NO =   2.00000000 ORB. ENERGY =  -0.80539110
 -8.19102718E-03 -1.51111267E-02 -2.43940769E-02 -3.17538429E-02 -2.70956142E-02
 -9.35546586E-03 -1.18246186E-02 -5.44995832E-03  1.52822480E-02 -5.49491586E-03
 -4.21315129E-03 -2.10265780E-03  1.26965995E-01  9.73494336E-02  4.85841907E-02
 -1.57392137E-01 -1.20678260E-01 -6.02269101E-02  6.48660623E-03 -2.57710776E-04
  4.02619175E-03 -4.79564646E-03  1.79027708E-03 -2.37502992E-02  1.71949436E-02
  1.28041772E-02  2.95897285E-04 -1.29788493E-02  6.64005292E-02  1.22498289E-01
  1.97750487E-01  2.57412401E-01  2.19650489E-01  7.58400467E-02  9.58562232E-02
  4.41800653E-02 -1.23885483E-01 -2.88866305E-02 -2.21484273E-02 -1.10536176E-02
  9.69910885E-02  7.43665854E-02  3.71141386E-02 -1.34000422E-01 -1.02742984E-01
 -5.12759503E-02 -5.25836476E-02 -1.60336609E-03  2.30182509E-03 -3.44999114E-03
 -1.30931586E-02 -2.81076991E-02  2.27786580E-02 -1.67970425E-03  4.65329712E-03
  1.67596777E-03 -6.74375598E-02 -1.24411443E-01 -2.00838916E-01 -2.61432618E-01
 -2.23080948E-01 -7.70245019E-02 -9.73532873E-02 -4.48700611E-02  1.25820302E-01
  2.48967258E-02  1.90892226E-02  9.52686008E-03  9.65743537E-02  7.40470597E-02
  3.69546728E-02 -1.33583687E-01 -1.02423458E-01 -5.11164846E-02  5.34048888E-02
  1.49062938E-03  2.27785159E-03 -3.42601764E-03  1.28949707E-02 -2.81853283E-02
  2.28562872E-02  1.88107060E-03 -5.36544633E-03 -1.47460142E-03  9.22805785E-03
  1.70242814E-02  2.74825059E-02  3.57740602E-02  3.05260733E-02  1.05399211E-02
  1.33216826E-02  6.13995407E-03 -1.72170676E-02  1.50501116E-03  1.15394664E-03
  5.75900256E-04  1.27382730E-01  9.76689593E-02  4.87436564E-02 -1.56975402E-01
 -1.20358734E-01 -6.00674444E-02 -7.30784751E-03  1.44974069E-04  4.05016525E-03
 -4.77167295E-03 -1.59208917E-03 -2.38279284E-02  1.71173144E-02 -1.30055435E-02
 -1.00804650E-03  1.27774830E-02  4.07984448E-03  6.92018799E-03  7.87839104E-03
  1.61441455E-03 -3.30732430E-02 -5.60984763E-02 -6.38661456E-02 -1.30872451E-02
  3.35897745E-02  5.69746115E-02  6.48635947E-02  1.32916391E-02 -4.59637601E-03
 -7.79632318E-03 -8.87584020E-03 -1.81880862E-03
MO  9                     OCC NO =   2.00000000 ORB. ENERGY =  -0.70965431
 -1.67830575E-02 -3.09620397E-02 -4.99823997E-02 -6.50622394E-02 -5.55177319E-02
 -1.91689416E-02 -2.31642561E-02 -1.06763892E-02  2.99377020E-02  1.74495643E-01
  1.33792138E-01  6.67716546E-02 -1.74495643E-01 -1.33792138E-01 -6.67716546E-02
 -1.74495643E-01 -1.33792138E-01 -6.67716546E-02  1.90117863E-02  6.54812776E-03
 -6.54812776E-03 -6.54812776E-03  3.08383626E-03  2.32510395E-03  2.32510395E-03
  3.08383626E-03 -2.32510395E-03  3.08383626E-03 -1.67830575E-02 -3.09620397E-02
 -4.99823997E-02 -6.50622394E-02 -5.55177319E-02 -1.91689416E-02 -2.31642561E-02
 -1.06763892E-02  2.99377020E-02 -1.74495643E-01 -1.33792138E-01 -6.67716546E-02
 -1.74495643E-01 -1.33792138E-01 -6.67716546E-02  1.74495643E-01  1.33792138E-01
  6.67716546E-02  1.90117863E-02 -6.54812776E-03 -6.54812776E-03  6.54812776E-03
  3.08383626E-03 -2.32510395E-03  2.32510395E-03  3.08383626E-03  2.32510395E-03
  3.08383626E-03 -1.67830575E-02 -3.09620397E-02 -4.99823997E-02 -6.50622394E-02
 -5.55177319E-02 -1.91689416E-02 -2.31642561E-02 -1.06763892E-02  2.99377020E-02
 -1.74495643E-01 -1.33792138E-01 -6.67716546E-02  1.74495643E-01  1.33792138E-01
  6.67716546E-02 -1.74495643E-01 -1.33792138E-01 -6.67716546E-02  1.90117863E-02
 -6.54812776E-03  6.54812776E-03 -6.54812776E-03  3.08383626E-03  2.32510395E-03
 -2.32510395E-03  3.08383626E-03  2.32510395E-03  3.08383626E-03 -1.67830575E-02
 -3.09620397E-02 -4.99823997E-02 -6.50622394E-02 -5.55177319E-02 -1.91689416E-02
 -2.31642561E-02 -1.06763892E-02  2.99377020E-02  1.74495643E-01  1.33792138E-01
  6.67716546E-02  1.74495643E-01  1.33792138E-01  6.67716546E-02  1.74495643E-01
  1.33792138E-01  6.67716546E-02  1.90117863E-02  6.54812776E-03  6.54812776E-03
  6.54812776E-03  3.08383626E-03 -2.32510395E-03 -2.32510395E-03  3.08383626E-03
 -2.32510395E-03  3.08383626E-03  3.19400068E-02  5.41762935E-02  6.16778079E-02
  1.49627299E-02  3.19400068E-02  5.41762935E-02  6.16778079E-02  1.49627299E-02
  3.19400068E-02  5.41762935E-02  6.16778079E-02  1.49627299E-02  3.19400068E-02
  5.41762935E-02  6.16778079E-02  1.49627299E-02
MO 10                     OCC NO =   2.00000000 ORB. ENERGY =  -0.53407416
 -3.39085712E-03 -6.25558560E-03 -1.00984684E-02 -1.31452066E-02 -1.12168296E-02
 -3.87290230E-03 -5.17840442E-03 -2.38672293E-03  6.69261848E-03 -3.02280950E-01
 -2.31769768E-01 -1.15669359E-01  1.61226605E-01  1.23618286E-01  6.16941892E-02
  2.12325639E-01  1.62797768E-01  8.12474971E-02  1.82246365E-02 -2.02441908E-02
  1.30905500E-02  1.56820627E-02  8.10228643E-03  2.22432157E-02  1.82342574E-02
 -5.72741106E-03 -2.93006307E-02 -7.17397491E-04  3.71109053E-04  6.84636469E-04
  1.10521704E-03  1.43866432E-03  1.22761499E-03  4.23866018E-04  5.66745425E-04
  2.61212565E-04 -7.32467107E-04  6.81906301E-02  5.22842293E-02  2.60934951E-02
 -3.00302476E-01 -2.30252800E-01 -1.14912286E-01 -1.58145941E-01 -1.21256229E-01
 -6.05153571E-02 -1.99457758E-03  2.92052860E-03 -1.57677816E-02 -7.48265668E-03
  9.04262836E-03 -1.17960139E-02 -2.41714094E-02 -2.70863417E-02  4.73859892E-03
  1.78623123E-02  9.76768873E-04  1.80198135E-03  2.90896056E-03  3.78660267E-03
  3.23111522E-03  1.11562660E-03  1.49168899E-03  6.87518400E-04 -1.92787286E-03
 -6.11349903E-03 -4.68744144E-03 -2.33936183E-03 -1.34940845E-01 -1.03464040E-01
 -5.16358081E-02 -3.23507571E-01 -2.48044989E-01 -1.23791835E-01 -5.24978111E-03
 -1.72553441E-03 -5.42810645E-03 -1.78223318E-02  5.60393553E-03 -2.69895748E-02
 -8.97784850E-03  1.94336330E-02 -2.08852480E-03 -2.55150209E-02  2.04297919E-03
  3.76896778E-03  6.08429083E-03  7.91993959E-03  6.75809943E-03  2.33340968E-03
  3.11997000E-03  1.43799196E-03 -4.03227851E-03  3.64358081E-01  2.79366556E-01
  1.39423492E-01 -4.13502548E-03 -3.17047402E-03 -1.58228876E-03  4.69640083E-02
  3.60090086E-02  1.79710192E-02 -1.09802778E-02  2.14391850E-02  2.75087484E-03
  5.34238762E-03 -2.27488503E-02  7.04965475E-03  3.04069646E-03  1.33801197E-02
  3.19507048E-02  8.37010615E-03 -4.19639223E-02 -7.11787502E-02 -8.10345079E-02
 -2.54273219E-02  4.59270058E-03  7.79008895E-03  8.86874275E-03  2.78286847E-03
  1.20881098E-02  2.05037208E-02  2.33427662E-02  7.32458364E-03  2.52831119E-02
  4.28849405E-02  4.88229990E-02  1.53198698E-02
MO 11                     OCC NO =   2.00000000 ORB. ENERGY =  -0.53407416
  2.85779394E-04  5.27216984E-04  8.51092832E-04  1.10787009E-03  9.45347641E-04
  3.26405872E-04  4.36432803E-04  2.01151570E-04 -5.64049852E-04 -1.47443774E-01
 -1.13050489E-01 -5.64201178E-02  9.40148749E-02  7.20846145E-02  3.59752751E-02
 -2.98417463E-01 -2.28807492E-01 -1.14190976E-01 -1.53596138E-03 -7.06354651E-03
  4.35387348E-03 -1.55485267E-02  1.62710987E-02 -2.38829699E-02  6.90518314E-03
  1.10326531E-02 -1.10969302E-02 -2.74434430E-02  1.24410513E-03  2.29517372E-03
  3.70512704E-03  4.82297496E-03  4.11545366E-03  1.42096746E-03  1.89995606E-03
  8.75688400E-04 -2.45552104E-03 -3.35134510E-01 -2.56959784E-01 -1.28240943E-01
 -2.35553470E-02 -1.80607389E-02 -9.01357462E-03 -1.10726727E-01 -8.48981973E-02
 -4.23701510E-02 -6.68661729E-03 -1.87994083E-02 -2.99751688E-03 -3.81266490E-03
 -2.49571676E-02 -6.63779264E-03 -3.89726432E-03  5.59166506E-03 -2.83421075E-02
  1.87573741E-02 -3.40726459E-03 -6.28585474E-03 -1.01473323E-02 -1.32088128E-02
 -1.12711049E-02 -3.89164227E-03 -5.20346137E-03 -2.39827166E-03  6.72500231E-03
  2.35509217E-01  1.80573458E-01  9.01188123E-02 -2.88938115E-01 -2.21539333E-01
 -1.10563655E-01  1.54656042E-01  1.18580397E-01  5.91799294E-02  1.83128208E-02
  1.68816063E-02 -1.95912793E-02  1.27810975E-02  1.45143862E-03  1.77457916E-02
 -2.82808486E-02  6.68988419E-03  2.40891015E-02 -6.47582483E-03  1.87738006E-03
  3.46346404E-03  5.59111240E-03  7.27796775E-03  6.21030365E-03  2.14426893E-03
  2.86707251E-03  1.32143169E-03 -3.70543142E-03  4.78184806E-02  3.66641635E-02
  1.82979874E-02  3.59397643E-01  2.75563208E-01  1.37525356E-01 -3.30346943E-02
 -2.53288983E-02 -1.26408956E-02 -1.00902421E-02  5.14574451E-03  2.09476359E-02
  1.04523575E-03  7.23463031E-03  5.00614372E-04  3.12887674E-02 -2.33142024E-02
  6.84392425E-03  1.51618938E-02  3.53669408E-03  5.99890217E-03  6.82953949E-03
  2.14299937E-03  1.53965588E-02  2.61154762E-02  2.97315527E-02  9.32928184E-03
 -4.21669748E-02 -7.15231656E-02 -8.14266127E-02 -2.55503581E-02  2.32337218E-02
  3.94087872E-02  4.48655205E-02  1.40780769E-02
MO 12                     OCC NO =   2.00000000 ORB. ENERGY =  -0.53407416
  9.96506220E-04  1.83839358E-03  2.96774126E-03  3.86311769E-03  3.29640563E-03
  1.13816982E-03  1.52183122E-03  7.01410929E-04 -1.96682895E-03 -1.48088633E-01
 -1.13544926E-01 -5.66668766E-02 -3.16561001E-01 -2.42718801E-01 -1.21133694E-01
 -3.01417163E-02 -2.31107472E-02 -1.15338827E-02 -5.35586225E-03 -6.06630060E-03
 -1.74986354E-02 -2.97273973E-03  2.08480595E-02 -4.00616140E-03 -2.64770944E-02
 -2.47085938E-02 -9.97684342E-03  3.37343421E-03 -3.29955861E-03 -6.08715454E-03
 -9.82656810E-03 -1.27912731E-02 -1.09148175E-02 -3.76862477E-03 -5.03897636E-03
 -2.32246063E-03  6.51242035E-03  1.34456612E-01  1.03092761E-01  5.14505136E-02
  2.10492875E-01  1.61392522E-01  8.05461807E-02 -3.12686961E-01 -2.39748434E-01
 -1.19651273E-01  1.77339399E-02  1.16005912E-02  1.54568079E-02 -2.06396315E-02
 -7.77225447E-03 -2.99666479E-02  2.19490437E-02 -3.17265906E-04  1.59836431E-02
  9.70237082E-03  9.52737252E-05  1.75764688E-04  2.83739088E-04  3.69344020E-04
  3.15161951E-04  1.08817864E-04  1.45498870E-04  6.70603261E-05 -1.88044105E-04
 -2.82031410E-01 -2.16243711E-01 -1.07920769E-01 -1.82618224E-01 -1.40020016E-01
 -6.98798021E-02  8.04241384E-02  6.16641039E-02  3.07747099E-02 -5.12061980E-04
 -1.44414284E-02 -9.12350759E-03  3.94068398E-03 -2.70467468E-02  6.15271912E-03
 -1.41703233E-02  1.85099065E-02 -2.22836145E-02  8.49026978E-03  2.20777866E-03
  4.07299627E-03  6.57508775E-03  8.55881140E-03  7.30324996E-03  2.52163708E-03
  3.37164628E-03  1.55398938E-03 -4.35754730E-03  5.13834997E-04  3.93975929E-04
  1.96621603E-04  7.65500986E-02  5.86937371E-02  2.92922887E-02  3.62969383E-01
  2.78301791E-01  1.38892100E-01 -1.18660156E-02  3.22546336E-03  7.08168008E-03
  2.16075758E-02  1.39709418E-02  3.21132056E-02  9.64227265E-03  6.51595325E-03
  3.67687200E-03 -2.15660748E-02  1.23323715E-02  2.09180348E-02  2.38144482E-02
  7.47258984E-03 -4.08340476E-02 -6.92622690E-02 -7.88526613E-02 -2.47426937E-02
  1.17907038E-03  1.99992640E-03  2.27684599E-03  7.14437559E-04  2.73226057E-02
  4.63443078E-02  5.27613672E-02  1.65556663E-02
MO 13                     OCC NO =   2.00000000 ORB. ENERGY =  -0.33172906
 -5.95266094E-16 -1.09817013E-15 -1.77278949E-15 -2.30764538E-15 -1.96911817E-15
 -6.79889286E-16 -3.84752780E-16 -1.77332284E-16  4.97258105E-16  3.04539863E-01