All connections between all procs tested: SUCCESS
 argument  1 = nwxc_pspw_1he.nw



============================== echo of input deck ==============================
# $Id: $
echo

#memory 950 mb

start nwxc_dat

charge 0

geometry
  He 0.0 0.0 0.0
end

set nwpw:minimizer 2

# LDA exchange-correlation

nwpw
   simulation_cell
     boundary_conditions aperiodic
     ngrid 32 32 32
     SC 20.0      #Not checking automatic unit cell generation
   end
   lcao #added 3/26/10 because of changed default
   xc lda
end
task pspw energy

# GGA exchange-correlation

nwpw
   simulation_cell
     boundary_conditions aperiodic
     ngrid 32 32 32
     SC 20.0      #Not checking automatic unit cell generation
   end
   lcao #added 3/26/10 because of changed default
   xc pbe96
end
task pspw energy

================================================================================


                                         
                                         


             Northwest Computational Chemistry Package (NWChem) 6.1.1
             --------------------------------------------------------


                    Environmental Molecular Sciences Laboratory
                       Pacific Northwest National Laboratory
                                Richland, WA 99352

                              Copyright (c) 1994-2012
                       Pacific Northwest National Laboratory
                            Battelle Memorial Institute

             NWChem is an open-source computational chemistry package
                        distributed under the terms of the
                      Educational Community License (ECL) 2.0
             A copy of the license is included with this distribution
                              in the LICENSE.TXT file

                                  ACKNOWLEDGMENT
                                  --------------

            This software and its documentation were developed at the
            EMSL at Pacific Northwest National Laboratory, a multiprogram
            national laboratory, operated for the U.S. Department of Energy
            by Battelle under Contract Number DE-AC05-76RL01830. Support
            for this work was provided by the Department of Energy Office
            of Biological and Environmental Research, Office of Basic
            Energy Sciences, and the Office of Advanced Scientific Computing.


           Job information
           ---------------

    hostname        = arcen
    program         = /home/d3y133/nwchem-dev/nwchem-ref/QA/../bin/LINUX64/nwchem
    date            = Wed Jan 16 15:46:50 2013

    compiled        = Wed_Jan_16_13:58:47_2013
    source          = /home/d3y133/nwchem-dev/nwchem-ref
    nwchem branch   = Development
    nwchem revision = 23457
    ga revision     = 10183
    input           = nwxc_pspw_1he.nw
    prefix          = nwxc_dat.
    data base       = /home/d3y133/nwchem-dev/nwchem-ref/QA/scratchdir/nwxc_dat.db
    status          = startup
    nproc           =        4
    time left       =     -1s



           Memory information
           ------------------

    heap     =   13107201 doubles =    100.0 Mbytes
    stack    =   13107201 doubles =    100.0 Mbytes
    global   =   26214400 doubles =    200.0 Mbytes (distinct from heap & stack)
    total    =   52428802 doubles =    400.0 Mbytes
    verify   = yes
    hardfail = no 


           Directory information
           ---------------------

  0 permanent = /home/d3y133/nwchem-dev/nwchem-ref/QA/scratchdir
  0 scratch   = /home/d3y133/nwchem-dev/nwchem-ref/QA/scratchdir




                                NWChem Input Module
                                -------------------



 Scaling coordinates for geometry "geometry" by  1.889725989
 (inverse scale =  0.529177249)



                             Geometry "geometry" -> ""
                             -------------------------

 Output coordinates in angstroms (scale by  1.889725989 to convert to a.u.)

  No.       Tag          Charge          X              Y              Z
 ---- ---------------- ---------- -------------- -------------- --------------
    1 He                   2.0000     0.00000000     0.00000000     0.00000000

      Atomic Mass 
      ----------- 

      He                 4.002600


 Effective nuclear repulsion energy (a.u.)       0.0000000000

            Nuclear Dipole moment (a.u.) 
            ----------------------------
        X                 Y               Z
 ---------------- ---------------- ----------------
     0.0000000000     0.0000000000     0.0000000000


            XYZ format geometry
            -------------------
     1
 geometry
 He                    0.00000000     0.00000000     0.00000000

          ****************************************************
          *                                                  *
          *               NWPW PSPW Calculation              *
          *                                                  *
          *  [ (Grassman/Stiefel manifold implementation) ]  *
          *                                                  *
          *      [ NorthWest Chemistry implementation ]      *
          *                                                  *
          *            version #5.10   06/12/02              *
          *                                                  *
          *    This code was developed by Eric J. Bylaska,   *
          *    and was based upon algorithms and code        *
          *    developed by the group of Prof. John H. Weare *
          *                                                  *
          ****************************************************
     >>>  JOB STARTED       AT Wed Jan 16 15:46:50 2013  <<<
          ================ input data ========================
  library name resolved from: environment
  NWCHEM_NWPW_LIBRARY set to: </home/d3y133/nwchem-dev/nwchem-ref/QA/../src/nwpw/libraryps/>
 Generating 1d pseudopotential for He  

 Generated formatted_filename: /home/d3y133/nwchem-dev/nwchem-ref/QA/scratchdir/He.vpp
  library name resolved from: environment
  NWCHEM_NWPW_LIBRARY set to: </home/d3y133/nwchem-dev/nwchem-ref/QA/../src/nwpw/libraryps/>

 Generated formatted atomic orbitals, filename: /home/d3y133/nwchem-dev/nwchem-ref/QA/scratchdir/He.aorb

 lcao guess, initial psi:nwxc_dat.movecs                                   
 -   spin, nalpha, nbeta:                    1                    1                    0

 input psi filename:/home/d3y133/nwchem-dev/nwchem-ref/QA/scratchdir/nwxc_dat.movecs

 number of processors used:         4
 processor grid           :   4 x   1
 parallel mapping         :2d hilbert
 parallel mapping         :  balanced
 parallel io              :       off

 options:
      boundary conditions  = aperiodic   (version4)
      electron spin        = restricted
      exchange-correlation = LDA (Vosko et al) parameterization

 elements involved in the cluster:
      1: He  valence charge:  2.0000  lmax=  0
             comment    : Troullier-Martins pseudopotential
             pseudpotential type            :   0
             highest angular component      :   0
             local potential used           :   0
             number of non-local projections:   0
             aperiodic cutoff radius        :  1.000
             cutoff =   1.976


 total charge:   0.000

 atomic composition:
     He  :    1

 number of electrons: spin up=     1 (   1 per task)  down=     1 (   1 per task) (fourier space)
 number of orbitals : spin up=     1 (   1 per task)  down=     1 (   1 per task) (fourier space)

 supercell:
      cell_name:  cell_default                                      
      lattice:    a1=<  20.000   0.000   0.000 >
                  a2=<   0.000  20.000   0.000 >
                  a3=<   0.000   0.000  20.000 >
      reciprocal: b1=<   0.314   0.000   0.000 >
                  b2=<   0.000   0.314   0.000 >
                  b3=<   0.000   0.000   0.314 >
      lattice:    a=      20.000 b=     20.000 c=      20.000
                  alpha=  90.000 beta=  90.000 gamma=  90.000
                  omega=      8000.0

      density cutoff= 12.633  fft= 32x 32x 32(     8536 waves     2134 per task)
      wavefnc cutoff= 12.633  fft= 32x 32x 32(     8536 waves     2134 per task)

 technical parameters:
      time step=      5.80     ficticious mass=  400000.0
      tolerance=.100E-06 (energy)   0.100E-06 (density)
      maximum iterations =      1000 (   10 inner    100 outer )





== Energy Calculation ==


          ============ Grassmann lmbfgs iteration ============
     >>>  ITERATION STARTED AT Wed Jan 16 15:46:58 2013  <<<
    iter.           Energy         DeltaE       DeltaRho 
    ------------------------------------------------------
     -  15 steepest descent iterations performed
      10   -0.2742596427E+01   -0.76488E-07    0.29479E-03
      20   -0.2742596461E+01   -0.33800E-07    0.78506E-11
  *** tolerance ok. iteration terminated
     >>>  ITERATION ENDED   AT Wed Jan 16 15:46:58 2013  <<<


==  Summary Of Results  ==

 number of electrons: spin up=    1.00000  down=    1.00000 (real space)

 total     energy    :  -0.2742596461E+01 (   -0.27426E+01/ion)
 total orbital energy:  -0.1150708783E+01 (   -0.11507E+01/electron)
 hartree   energy    :   0.1873407258E+01 (    0.18734E+01/electron)
 exc-corr  energy    :  -0.9096457079E+00 (   -0.90965E+00/electron)
 ion-ion   energy    :   0.0000000000E+00 (    0.00000E+00/ion)

 kinetic (planewave) :   0.2098063050E+01 (    0.20981E+01/electron)
 V_local (planewave) :  -0.5804421062E+01 (   -0.58044E+01/electron)
 V_nl    (planewave) :   0.0000000000E+00 (    0.00000E+00/electron)
 V_Coul  (planewave) :   0.3746814517E+01 (    0.37468E+01/electron)
 V_xc.   (planewave) :  -0.1191165288E+01 (   -0.11912E+01/electron)
 Virial Coefficient  :  -0.1548462442E+01

 orbital energies:
    -0.5753544E+00 ( -15.656eV)

 Total PSPW energy   :  -0.2742596461E+01


=== Spin Contamination ===

 <Sexact^2> =    0.00000000000000     
 <S^2>      =    0.00000000000000     



== Center of Charge ==

spin up     (    0.0000,    0.0000,    0.0000 )
spin down   (    0.0000,    0.0000,    0.0000 )
     total  (    0.0000,    0.0000,    0.0000 )
ionic       (    0.0000,    0.0000,    0.0000 )
crystal     (    0.0000,    0.0000,    0.0000 )


== Crystal Dipole ==

mu   =  (    0.0000,    0.0000,    0.0000 ) au
|mu| =     0.0000 au,       0.0000 Debye


== Molecular Dipole wrt Center of Mass ==

mu   =  (    0.0000,    0.0000,    0.0000 ) au
|mu| =     0.0000 au,       0.0000 Debye

 output psi filename:/home/d3y133/nwchem-dev/nwchem-ref/QA/scratchdir/nwxc_dat.movecs


== Timing ==

cputime in seconds
  prologue    :   0.795855E+01
  main loop   :   0.763757E+00
  epilogue    :   0.168471E-01
  total       :   0.873915E+01
  cputime/step:   0.186282E-01       (      41 evalulations,      11 linesearches)


Time spent doing                        total          step
  FFTs                       :   0.536313E+00  0.130808E-01
  dot products               :   0.150672E-01  0.367492E-03
  geodesic                   :   0.535612E-01  0.130637E-02
  ffm_dgemm                  :   0.624731E-02  0.152374E-03
  fmf_dgemm                  :   0.515913E-01  0.125832E-02
  m_diagonalize              :   0.174036E-03  0.424477E-05
    - m_tredq                :   0.000000E+00  0.000000E+00
       - m_tredq_houseq      :   0.000000E+00  0.000000E+00
       - m_tredq_houseq_dgemm:   0.000000E+00  0.000000E+00
       - m_tredq_dgemm1      :   0.000000E+00  0.000000E+00
    - m_getdiags             :   0.000000E+00  0.000000E+00
    - m_tqliq                :   0.000000E+00  0.000000E+00
    - m_eigsrt               :   0.000000E+00  0.000000E+00
  exchange correlation       :   0.205334E+00  0.500816E-02
  local pseudopotentials     :   0.690317E-02  0.168370E-03
  non-local pseudopotentials :   0.146914E-02  0.358326E-04
  hartree potentials         :   0.000000E+00  0.000000E+00
  ion-ion interaction        :   0.000000E+00  0.000000E+00
  structure factors          :   0.934672E-02  0.227969E-03
  phase factors              :   0.209808E-04  0.511728E-06
  masking and packing        :   0.284672E-01  0.694321E-03
  queue fft                  :   0.484312E-01  0.118125E-02
  queue fft (serial)         :   0.208924E-01  0.509571E-03
  queue fft (message passing):   0.268817E-01  0.655651E-03
  HFX potential              :   0.000000E+00  0.000000E+00
  qmmm LJ                    :   0.000000E+00  0.000000E+00
  qmmm residual Q            :   0.000000E+00  0.000000E+00

     >>>  JOB COMPLETED     AT Wed Jan 16 15:46:58 2013  <<<

 Task  times  cpu:        8.5s     wall:        8.7s


                                NWChem Input Module
                                -------------------


          ****************************************************
          *                                                  *
          *               NWPW PSPW Calculation              *
          *                                                  *
          *  [ (Grassman/Stiefel manifold implementation) ]  *
          *                                                  *
          *      [ NorthWest Chemistry implementation ]      *
          *                                                  *
          *            version #5.10   06/12/02              *
          *                                                  *
          *    This code was developed by Eric J. Bylaska,   *
          *    and was based upon algorithms and code        *
          *    developed by the group of Prof. John H. Weare *
          *                                                  *
          ****************************************************
     >>>  JOB STARTED       AT Wed Jan 16 15:46:58 2013  <<<
          ================ input data ========================

 input psi filename:/home/d3y133/nwchem-dev/nwchem-ref/QA/scratchdir/nwxc_dat.movecs

 number of processors used:         4
 processor grid           :   4 x   1
 parallel mapping         :2d hilbert
 parallel mapping         :  balanced
 parallel io              :       off

 options:
      boundary conditions  = aperiodic   (version4)
      electron spin        = restricted
      exchange-correlation = PBE96 (White and Bird) parameterization

 elements involved in the cluster:
      1: He  valence charge:  2.0000  lmax=  0
             comment    : Troullier-Martins pseudopotential
             pseudpotential type            :   0
             highest angular component      :   0
             local potential used           :   0
             number of non-local projections:   0
             aperiodic cutoff radius        :  1.000
             cutoff =   1.976


 total charge:   0.000

 atomic composition:
     He  :    1

 number of electrons: spin up=     1 (   1 per task)  down=     1 (   1 per task) (fourier space)
 number of orbitals : spin up=     1 (   1 per task)  down=     1 (   1 per task) (fourier space)

 supercell:
      cell_name:  cell_default                                      
      lattice:    a1=<  20.000   0.000   0.000 >
                  a2=<   0.000  20.000   0.000 >
                  a3=<   0.000   0.000  20.000 >
      reciprocal: b1=<   0.314   0.000   0.000 >
                  b2=<   0.000   0.314   0.000 >
                  b3=<   0.000   0.000   0.314 >
      lattice:    a=      20.000 b=     20.000 c=      20.000
                  alpha=  90.000 beta=  90.000 gamma=  90.000
                  omega=      8000.0

      density cutoff= 12.633  fft= 32x 32x 32(     8536 waves     2134 per task)
      wavefnc cutoff= 12.633  fft= 32x 32x 32(     8536 waves     2134 per task)

 technical parameters:
      time step=      5.80     ficticious mass=  400000.0
      tolerance=.100E-06 (energy)   0.100E-06 (density)
      maximum iterations =      1000 (   10 inner    100 outer )





== Energy Calculation ==


          ============ Grassmann lmbfgs iteration ============
     >>>  ITERATION STARTED AT Wed Jan 16 15:46:59 2013  <<<
    iter.           Energy         DeltaE       DeltaRho 
    ------------------------------------------------------
      10   -0.2792929345E+01   -0.37581E-08    0.25197E-03
      20   -0.2792929347E+01   -0.18182E-08    0.84946E-11
  *** tolerance ok. iteration terminated
     >>>  ITERATION ENDED   AT Wed Jan 16 15:46:59 2013  <<<


==  Summary Of Results  ==

 number of electrons: spin up=    1.00000  down=    1.00000 (real space)

 total     energy    :  -0.2792929347E+01 (   -0.27929E+01/ion)
 total orbital energy:  -0.1178939354E+01 (   -0.11789E+01/electron)
 hartree   energy    :   0.1890178517E+01 (    0.18902E+01/electron)
 exc-corr  energy    :  -0.9685742429E+00 (   -0.96857E+00/electron)
 ion-ion   energy    :   0.0000000000E+00 (    0.00000E+00/ion)

 kinetic (planewave) :   0.2144576844E+01 (    0.21446E+01/electron)
 V_local (planewave) :  -0.5859110465E+01 (   -0.58591E+01/electron)
 V_nl    (planewave) :   0.0000000000E+00 (    0.00000E+00/electron)
 V_Coul  (planewave) :   0.3780357035E+01 (    0.37804E+01/electron)
 V_xc.   (planewave) :  -0.1244762767E+01 (   -0.12448E+01/electron)
 Virial Coefficient  :  -0.1549730525E+01

 orbital energies:
    -0.5894697E+00 ( -16.040eV)

 Total PSPW energy   :  -0.2792929347E+01


=== Spin Contamination ===

 <Sexact^2> =    0.00000000000000     
 <S^2>      =    0.00000000000000     



== Center of Charge ==

spin up     (    0.0000,    0.0000,    0.0000 )
spin down   (    0.0000,    0.0000,    0.0000 )
     total  (    0.0000,    0.0000,    0.0000 )
ionic       (    0.0000,    0.0000,    0.0000 )
crystal     (    0.0000,    0.0000,    0.0000 )


== Crystal Dipole ==

mu   =  (    0.0000,    0.0000,    0.0000 ) au
|mu| =     0.0000 au,       0.0000 Debye


== Molecular Dipole wrt Center of Mass ==

mu   =  (    0.0000,    0.0000,    0.0000 ) au
|mu| =     0.0000 au,       0.0000 Debye

 output psi filename:/home/d3y133/nwchem-dev/nwchem-ref/QA/scratchdir/nwxc_dat.movecs


== Timing ==

cputime in seconds
  prologue    :   0.111263E+00
  main loop   :   0.777266E+00
  epilogue    :   0.171380E-01
  total       :   0.905667E+00
  cputime/step:   0.298948E-01       (      26 evalulations,      11 linesearches)


Time spent doing                        total          step
  FFTs                       :   0.387938E+00  0.149207E-01
  dot products               :   0.761369E-02  0.292834E-03
  geodesic                   :   0.531995E-01  0.204614E-02
  ffm_dgemm                  :   0.271466E-02  0.104410E-03
  fmf_dgemm                  :   0.460204E-01  0.177002E-02
  m_diagonalize              :   0.165932E-03  0.638201E-05
    - m_tredq                :   0.000000E+00  0.000000E+00
       - m_tredq_houseq      :   0.000000E+00  0.000000E+00
       - m_tredq_houseq_dgemm:   0.000000E+00  0.000000E+00
       - m_tredq_dgemm1      :   0.000000E+00  0.000000E+00
    - m_getdiags             :   0.000000E+00  0.000000E+00
    - m_tqliq                :   0.000000E+00  0.000000E+00
    - m_eigsrt               :   0.000000E+00  0.000000E+00
  exchange correlation       :   0.375358E+00  0.144369E-01
  local pseudopotentials     :   0.335121E-02  0.128893E-03
  non-local pseudopotentials :   0.939846E-03  0.361479E-04
  hartree potentials         :   0.000000E+00  0.000000E+00
  ion-ion interaction        :   0.000000E+00  0.000000E+00
  structure factors          :   0.159740E-04  0.614386E-06
  phase factors              :   0.128736E-04  0.495139E-06
  masking and packing        :   0.122808E-01  0.472338E-03
  queue fft                  :   0.302420E-01  0.116315E-02
  queue fft (serial)         :   0.133992E-01  0.515355E-03
  queue fft (message passing):   0.164193E-01  0.631511E-03
  HFX potential              :   0.000000E+00  0.000000E+00
  qmmm LJ                    :   0.000000E+00  0.000000E+00
  qmmm residual Q            :   0.000000E+00  0.000000E+00

     >>>  JOB COMPLETED     AT Wed Jan 16 15:46:59 2013  <<<

 Task  times  cpu:        0.8s     wall:        0.9s
 Summary of allocated global arrays
-----------------------------------
  No active global arrays



                         GA Statistics for process    0
                         ------------------------------

       create   destroy   get      put      acc     scatter   gather  read&inc
calls:    8        8       31       10        0        0        0        0     
number of processes/call 1.00e+00 1.00e+00 0.00e+00 0.00e+00 0.00e+00
bytes total:             2.48e+02 8.00e+01 0.00e+00 0.00e+00 0.00e+00 0.00e+00
bytes remote:            0.00e+00 0.00e+00 0.00e+00 0.00e+00 0.00e+00 0.00e+00
Max memory consumed for GA by this process: 64 bytes
MA_summarize_allocated_blocks: starting scan ...
MA_summarize_allocated_blocks: scan completed: 0 heap blocks, 0 stack blocks
MA usage statistics:

	allocation statistics:
					      heap	     stack
					      ----	     -----
	current number of blocks	         0	         0
	maximum number of blocks	       282	        15
	current total bytes		         0	         0
	maximum total bytes		   8868912	   2041216
	maximum total K-bytes		      8869	      2042
	maximum total M-bytes		         9	         3


                                NWChem Input Module
                                -------------------





                                     CITATION
                                     --------
                Please cite the following reference when publishing
                           results obtained with NWChem:

                 M. Valiev, E.J. Bylaska, N. Govind, K. Kowalski,
              T.P. Straatsma, H.J.J. van Dam, D. Wang, J. Nieplocha,
                        E. Apra, T.L. Windus, W.A. de Jong
                 "NWChem: a comprehensive and scalable open-source
                  solution for large scale molecular simulations"
                      Comput. Phys. Commun. 181, 1477 (2010)
                           doi:10.1016/j.cpc.2010.04.018

                              AUTHORS & CONTRIBUTORS
                              ----------------------
          E. Apra, E. J. Bylaska, W. A. de Jong, N. Govind, K. Kowalski,
       T. P. Straatsma, M. Valiev, H. J. J. van Dam, D. Wang, T. L. Windus,
    J. Hammond, J. Autschbach, F. Aquino, S. Hirata, M. T. Hackler, K. Lopata,
      J. Mullin, P. Nichols, R. Peverati, Y. Zhao, P.-D. Fan, R. J. Harrison,
        M. Dupuis, D. M. A. Smith, J. Nieplocha, V. Tipparaju, M. Krishnan,
       B. E. Van Kuiken, A. Vazquez-Mayagoitia, L. Jensen, M. Swart, Q. Wu,
   T. Van Voorhis, A. A. Auer, M. Nooijen, L. D. Crosby, E. Brown, G. Cisneros,
      G. I. Fann, H. Fruchtl, J. Garza, K. Hirao, R. Kendall, J. A. Nichols,
        K. Tsemekhman, K. Wolinski, J. Anchell, D. Bernholdt, P. Borowski,
  T. Clark, D. Clerc, H. Dachsel, M. Deegan, K. Dyall, D. Elwood, E. Glendening,
         M. Gutowski, A. Hess, J. Jaffe, B. Johnson, J. Ju, R. Kobayashi,
     R. Kutteh, Z. Lin, R. Littlefield, X. Long, B. Meng, T. Nakajima, S. Niu,
      L. Pollack, M. Rosing, K. Glaesemann, G. Sandrone, M. Stave, H. Taylor,
                  G. Thomas, J. H. van Lenthe, A. Wong, Z. Zhang.

 Total times  cpu:        9.3s     wall:       10.7s
