 argument  1 = /data/edo/nwchem/nwchem_libstdcpp-error/QA/tests/dft_bsse_d3_opt/dft_bsse_d3_opt.nw
  NWChem w/ OpenMP: maximum threads =    1
 


============================== echo of input deck ==============================
echo
start dft_bsse

charge 0


geometry  g0 autosym units angstrom
zmatrix
    H
    O    1 r2
    H    2 r3    1 a3
    variables
    r2 0.9637
    r3 0.8728
    a3  95.07
end
end
geometry  g1 autosym units angstrom
zmatrix
    H
    O    1 r2
    H    2 r3    1 a3
    X_O  3 r4    2 a4    1 d4
    X_H  4 r5    3 a5    2 d5
    X_H  4 r6    3 a6    2 d6
    variables
    r2 0.9637
    r3 0.8728
    a3  95.07
    r4 1.8441
    a4 172.11
    d4 179.97
    r5 0.9654
    a5 110.73
    d5  58.09
    r6 0.9654
    a6 110.73
    d6 301.91
end
end

basis "ao basis" spherical print
  H library "aug-cc-pVDZ"
  O library "aug-cc-pVDZ"
# bqH library H aug-cc-pVDZ
# bqO library O aug-cc-pVDZ
END

dft
  xc S12g
end

title "H2O"
set geometry g0
task dft
task dft optimize
task dft frequencies

title "H2O with Xs"
set geometry g1
task dft
task dft optimize
task dft frequencies
================================================================================


                                         
                                         
 
 
             Northwest Computational Chemistry Package (NWChem) 7.3.1
             --------------------------------------------------------
 
 
                    Environmental Molecular Sciences Laboratory
                       Pacific Northwest National Laboratory
                                Richland, WA 99352
 
                              Copyright (c) 1994-2025
                       Pacific Northwest National Laboratory
                            Battelle Memorial Institute
 
             NWChem is an open-source computational chemistry package
                        distributed under the terms of the
                      Educational Community License (ECL) 2.0
             A copy of the license is included with this distribution
                              in the LICENSE.TXT file
 
                                  ACKNOWLEDGMENT
                                  --------------

            This software and its documentation were developed at the
            EMSL at Pacific Northwest National Laboratory, a multiprogram
            national laboratory, operated for the U.S. Department of Energy
            by Battelle under Contract Number DE-AC05-76RL01830. Support
            for this work was provided by the Department of Energy Office
            of Biological and Environmental Research, Office of Basic
            Energy Sciences, and the Office of Advanced Scientific Computing.


           Job information
           ---------------

    hostname        = mica
    program         = /data/edo/nwchem/nwchem_libstdcpp-error/bin/LINUX64/nwchem
    date            = Mon Jan 26 20:56:25 2026

    compiled        = Mon_Jan_26_20:52:02_2026
    source          = /data/edo/nwchem/nwchem_libstdcpp-error
    nwchem branch   = 7.3.1
    nwchem revision = v7.2.0-beta1-1748-g62ee6c31a1
    ga revision     = 5.9.2
    use scalapack   = T
    input           = /data/edo/nwchem/nwchem_libstdcpp-error/QA/tests/dft_bsse_d3_opt/dft_bsse_d3_opt.nw
    prefix          = dft_bsse.
    data base       = ./dft_bsse.db
    status          = startup
    nproc           =        4
    time left       =     -1s



           Memory information
           ------------------

    heap     =     26214394 doubles =      200.0 Mbytes
    stack    =     26214399 doubles =      200.0 Mbytes
    global   =     52428800 doubles =      400.0 Mbytes (distinct from heap & stack)
    total    =    104857593 doubles =      800.0 Mbytes
    verify   = yes
    hardfail = no 


           Directory information
           ---------------------
 
  0 permanent = .
  0 scratch   = .
 
 
 
 
                                NWChem Input Module
                                -------------------
 
 

 Scaling coordinates for geometry "g0" by  1.889725989
 (inverse scale =  0.529177249)

 CS  symmetry detected
 
 
                                Geometry "g0" -> ""
                                -------------------
 
 Output coordinates in angstroms (scale by  1.889725989 to convert to a.u.)
 
  No.       Tag          Charge          X              Y              Z
 ---- ---------------- ---------- -------------- -------------- --------------
    1 H                    1.0000     0.29973293     0.82669162     0.00000000
    2 O                    8.0000    -0.11671355    -0.04238261     0.00000000
    3 H                    1.0000     0.63397545    -0.48763071     0.00000000
 
      Atomic Mass 
      ----------- 
 
      H                  1.007825
      O                 15.994910
 

 Effective nuclear repulsion energy (a.u.)       9.6334703579

            Nuclear Dipole moment (a.u.) 
            ----------------------------
        X                 Y               Z
 ---------------- ---------------- ----------------
    -0.0000000000     0.0000000000     0.0000000000
 
      Symmetry information
      --------------------
 
 Group name             Cs        
 Group number              2
 Group order               2
 No. of unique centers     3
 
      Symmetry unique atoms
 
     1    2    3
 


                                Z-matrix (user)
                                -------- 

 Units are Angstrom for bonds and degrees for angles
 
      Type          Name      I     J     K     L     M      Value
      ----------- --------  ----- ----- ----- ----- ----- ----------
    1 Stretch      r2          2     1                       0.96370
    2 Stretch      r3          3     2                       0.87280
    3 Bend         a3          3     2     1                95.07000
 
 
            XYZ format geometry
            -------------------
     3
 g0
 H                     0.29973293     0.82669162     0.00000000
 O                    -0.11671355    -0.04238261     0.00000000
 H                     0.63397545    -0.48763071     0.00000000
 
 ==============================================================================
                                internuclear distances
 ------------------------------------------------------------------------------
       center one      |      center two      | atomic units |  angstroms
 ------------------------------------------------------------------------------
    2 O                |   1 H                |     1.82113  |     0.96370
    3 H                |   2 O                |     1.64935  |     0.87280
 ------------------------------------------------------------------------------
                         number of included internuclear distances:          2
 ==============================================================================



 ==============================================================================
                                 internuclear angles
 ------------------------------------------------------------------------------
        center 1       |       center 2       |       center 3       |  degrees
 ------------------------------------------------------------------------------
    1 H                |   2 O                |   3 H                |    95.07
 ------------------------------------------------------------------------------
                            number of included internuclear angles:          1
 ==============================================================================




 Scaling coordinates for geometry "g1" by  1.889725989
 (inverse scale =  0.529177249)

 CS  symmetry detected
 
 
                               Geometry "g1" -> "  "
                               ---------------------
 
 Output coordinates in angstroms (scale by  1.889725989 to convert to a.u.)
 
  No.       Tag          Charge          X              Y              Z
 ---- ---------------- ---------- -------------- -------------- --------------
    1 H                    1.0000     0.29973293     0.82669162     0.00000000
    2 O                    8.0000    -0.11671355    -0.04238261     0.00000000
    3 H                    1.0000     0.63397545    -0.48763071     0.00000000
    4 X O                  0.0000     2.07592012    -1.63719601     0.00000000
    5 X H                  0.0000     2.04560503    -2.22339475    -0.76645218
    6 X H                  0.0000     2.04560503    -2.22339475     0.76645218
 
      Atomic Mass 
      ----------- 
 
      H                  1.007825
      O                 15.994910
 

 Effective nuclear repulsion energy (a.u.)       9.6334703579

            Nuclear Dipole moment (a.u.) 
            ----------------------------
        X                 Y               Z
 ---------------- ---------------- ----------------
    -0.0000000000     0.0000000000     0.0000000000
 
      Symmetry information
      --------------------
 
 Group name             Cs        
 Group number              2
 Group order               2
 No. of unique centers     5
 
      Symmetry unique atoms
 
     1    2    3    4    5
 


                                Z-matrix (user)
                                -------- 

 Units are Angstrom for bonds and degrees for angles
 
      Type          Name      I     J     K     L     M      Value
      ----------- --------  ----- ----- ----- ----- ----- ----------
    1 Stretch      r2          2     1                       0.96370
    2 Stretch      r3          3     2                       0.87280
    3 Bend         a3          3     2     1                95.07000
    4 Stretch      r4          4     3                       1.84410
    5 Bend         a4          4     3     2               172.11000
    6 Torsion      d4          4     3     2     1         180.00000
    7 Stretch      r5          5     4                       0.96540
    8 Bend         a5          5     4     3               110.73000
    9 Torsion      d5          5     4     3     2          58.09000
   10 Stretch      r6          6     4                       0.96540
   11 Bend         a6          6     4     3               110.73000
   12 Torsion      d6          6     4     3     2         -58.09000
 
 
            XYZ format geometry
            -------------------
     6
 g1
 H                     0.29973293     0.82669162     0.00000000
 O                    -0.11671355    -0.04238261     0.00000000
 H                     0.63397545    -0.48763071     0.00000000
 X O                   2.07592012    -1.63719601     0.00000000
 X H                   2.04560503    -2.22339475    -0.76645218
 X H                   2.04560503    -2.22339475     0.76645218
 
 ==============================================================================
                                internuclear distances
 ------------------------------------------------------------------------------
       center one      |      center two      | atomic units |  angstroms
 ------------------------------------------------------------------------------
    2 O                |   1 H                |     1.82113  |     0.96370
    3 H                |   2 O                |     1.64935  |     0.87280
    4 X O              |   2 O                |     5.12359  |     2.71129
    4 X O              |   3 H                |     3.48484  |     1.84410
    5 X H              |   3 H                |     4.46912  |     2.36496
    5 X H              |   4 X O              |     1.82434  |     0.96540
    6 X H              |   3 H                |     4.46912  |     2.36496
    6 X H              |   4 X O              |     1.82434  |     0.96540
    6 X H              |   5 X H              |     2.89677  |     1.53290
 ------------------------------------------------------------------------------
                         number of included internuclear distances:          9
 ==============================================================================



 ==============================================================================
                                 internuclear angles
 ------------------------------------------------------------------------------
        center 1       |       center 2       |       center 3       |  degrees
 ------------------------------------------------------------------------------
    1 H                |   2 O                |   3 H                |    95.07
    1 H                |   2 O                |   4 X O              |   100.43
    2 O                |   3 H                |   4 X O              |   172.11
    2 O                |   3 H                |   4 X O              |   172.11
    2 O                |   3 H                |   5 X H              |   152.60
    2 O                |   3 H                |   6 X H              |   152.60
    3 H                |   4 X O              |   5 X H              |   110.73
    3 H                |   4 X O              |   6 X H              |   110.73
    5 X H              |   3 H                |   6 X H              |    37.82
    4 X O              |   3 H                |   2 O                |   172.11
    2 O                |   4 X O              |   5 X H              |   109.38
    2 O                |   4 X O              |   6 X H              |   109.38
    3 H                |   4 X O              |   5 X H              |   110.73
    3 H                |   4 X O              |   6 X H              |   110.73
    5 X H              |   4 X O              |   6 X H              |   105.11
    5 X H              |   4 X O              |   3 H                |   110.73
    5 X H              |   3 H                |   6 X H              |    37.82
    5 X H              |   4 X O              |   6 X H              |   105.11
    6 X H              |   4 X O              |   3 H                |   110.73
    6 X H              |   3 H                |   5 X H              |    37.82
    6 X H              |   4 X O              |   5 X H              |   105.11
 ------------------------------------------------------------------------------
                            number of included internuclear angles:         21
 ==============================================================================



                      Basis "ao basis" -> "" (spherical)
                      -----
  H (Hydrogen)
  ------------
            Exponent  Coefficients 
       -------------- ---------------------------------------------------------
  1 S  1.30100000E+01  0.019685
  1 S  1.96200000E+00  0.137977
  1 S  4.44600000E-01  0.478148
 
  2 S  1.22000000E-01  1.000000
 
  3 S  2.97400000E-02  1.000000
 
  4 P  7.27000000E-01  1.000000
 
  5 P  1.41000000E-01  1.000000
 
  O (Oxygen)
  ----------
            Exponent  Coefficients 
       -------------- ---------------------------------------------------------
  1 S  1.17200000E+04  0.000710
  1 S  1.75900000E+03  0.005470
  1 S  4.00800000E+02  0.027837
  1 S  1.13700000E+02  0.104800
  1 S  3.70300000E+01  0.283062
  1 S  1.32700000E+01  0.448719
  1 S  5.02500000E+00  0.270952
  1 S  1.01300000E+00  0.015458
 
  2 S  1.17200000E+04 -0.000160
  2 S  1.75900000E+03 -0.001263
  2 S  4.00800000E+02 -0.006267
  2 S  1.13700000E+02 -0.025716
  2 S  3.70300000E+01 -0.070924
  2 S  1.32700000E+01 -0.165411
  2 S  5.02500000E+00 -0.116955
  2 S  1.01300000E+00  0.557368
 
  3 S  3.02300000E-01  1.000000
 
  4 S  7.89600000E-02  1.000000
 
  5 P  1.77000000E+01  0.043018
  5 P  3.85400000E+00  0.228913
  5 P  1.04600000E+00  0.508728
 
  6 P  2.75300000E-01  1.000000
 
  7 P  6.85600000E-02  1.000000
 
  8 D  1.18500000E+00  1.000000
 
  9 D  3.32000000E-01  1.000000
 


 Summary of "ao basis" -> "" (spherical)
 ------------------------------------------------------------------------------
       Tag                 Description            Shells   Functions and Types
 ---------------- ------------------------------  ------  ---------------------
 H                        aug-cc-pVDZ                5        9   3s2p
 O                        aug-cc-pVDZ                9       23   4s3p2d


                                        H2O
                                        ---
 
                                 NWChem DFT Module
                                 -----------------
 
 
                                        H2O
 
 


 Summary of "ao basis" -> "ao basis" (spherical)
 ------------------------------------------------------------------------------
       Tag                 Description            Shells   Functions and Types
 ---------------- ------------------------------  ------  ---------------------
 H                        aug-cc-pVDZ                5        9   3s2p
 O                        aug-cc-pVDZ                9       23   4s3p2d


      Symmetry analysis of basis
      --------------------------
 
        a'         30
        a"         11
 
  Caching 1-el integrals 
 
            General Information
            -------------------
          SCF calculation type: DFT
          Wavefunction type:  closed shell.
          No. of atoms     :     3
          No. of electrons :    10
           Alpha electrons :     5
            Beta electrons :     5
          Charge           :     0
          Spin multiplicity:     1
          Use of symmetry is: on ; symmetry adaption is: on 
          Maximum number of iterations:  50
          AO basis - number of functions:    41
                     number of shells:    19
          Convergence on energy requested:  1.00D-06
          Convergence on density requested:  1.00D-05
          Convergence on gradient requested:  5.00D-04
 
              XC Information
              --------------
                         S12g Method XC Functional
                        Slater Exchange Functional  1.038 local    
                S12g(GGA-part) Exchange Functional  1.000 non-local
            Perdew 1991 LDA Correlation Functional  1.000 local    
           PerdewBurkeErnz. Correlation Functional  1.000 non-local
 
             Grid Information
             ----------------
          Grid used for XC integration:  medium    
          Radial quadrature: Mura-Knowles        
          Angular quadrature: Lebedev. 
          Tag              B.-S. Rad. Rad. Pts. Rad. Cut. Ang. Pts.
          ---              ---------- --------- --------- ---------
          H                   0.35       45          11.0       434
          O                   0.60       49           9.0       434
          Grid pruning is: on 
          Number of quadrature shells:   139
          Spatial weights used:  Erf1
 
          Convergence Information
          -----------------------
          Convergence aids based upon iterative change in 
          total energy or number of iterations. 
          Levelshifting, if invoked, occurs when the 
          HOMO/LUMO gap drops below (HL_TOL):  1.00D-02
          DIIS, if invoked, will attempt to extrapolate 
          using up to (NFOCK): 10 stored Fock matrices.

                    Damping( 0%)  Levelshifting(0.5)       DIIS
                  --------------- ------------------- ---------------
          dE  on:    start            ASAP                start   
          dE off:    2 iters         50 iters            50 iters 

 
      Screening Tolerance Information
      -------------------------------
          Density screening/tol_rho:  1.00D-10
          AO Gaussian exp screening on grid/accAOfunc:  14
          CD Gaussian exp screening on grid/accCDfunc:  20
          XC Gaussian exp screening on grid/accXCfunc:  20
          Schwarz screening/accCoul:  1.00D-08

      Dispersion Parameters
      ---------------------

             DFT-D3 Model   
          s6 scale factor  :        1.000000000000
          s8 scale factor  :        0.844325150000
          sr6 scale factor :        1.177559540000
          sr8 scale factor :        1.000000000000
              vdW contrib  :       -0.000001987119

 
      Superposition of Atomic Density Guess
      -------------------------------------
 
 Sum of atomic energies:         -75.76548395
 
      Non-variational initial energy
      ------------------------------

 Total energy =     -76.016474
 1-e energy   =    -122.334866
 2-e energy   =      36.684922
 HOMO         =      -0.497751
 LUMO         =       0.013844
 
 
      Symmetry analysis of molecular orbitals - initial
      -------------------------------------------------
 
  Numbering of irreducible representations: 
 
     1 a'          2 a"      
 
  Orbital symmetries:
 
     1 a'          2 a'          3 a'          4 a'          5 a"      
     6 a'          7 a'          8 a'          9 a"         10 a'      
    11 a'         12 a'         13 a'         14 a'         15 a"      
 
   Time after variat. SCF:      0.2
   Time prior to 1st pass:      0.2
 Local filesystem for scratch_dir

 Integral file          = ./dft_bsse.aoints.0
 Record size in doubles =  65536        No. of integs per rec  =  43688
 Max. records in memory =      4        Max. records in file   = 590462
 No. of bits per label  =      8        No. of bits per value  =     64


 #quartets = 1.814D+04 #integrals = 1.947D+05 #direct =  0.0% #cached =100.0%


File balance: exchanges=     0  moved=     0  time=   0.0

 Local filesystem for scratch_dir

 Grid_pts file          = ./dft_bsse.gridpts.0
 Record size in doubles =  12289        No. of grid_pts per rec  =   3070
 Max. records in memory =      7        Max. recs in file   =   3148880


           Memory utilization after 1st SCF pass: 
           Heap Space remaining (MW):       25.86            25864186
          Stack Space remaining (MW):       26.21            26214036

   convergence    iter        energy       DeltaE   RMS-Dens  Diis-err    time
 ---------------- ----- ----------------- --------- --------- ---------  ------
 d= 0,ls=0.0,diis     1    -76.3758279413 -8.60D+01  2.20D-02  4.19D-01     0.3
 d= 0,ls=0.0,diis     2    -76.3045498805  7.13D-02  1.19D-02  1.20D+00     0.3
 d= 0,ls=0.0,diis     3    -76.4181776768 -1.14D-01  1.51D-03  1.91D-02     0.3
 d= 0,ls=0.0,diis     4    -76.4199705893 -1.79D-03  1.98D-04  3.89D-04     0.3
 d= 0,ls=0.0,diis     5    -76.4200092710 -3.87D-05  1.76D-05  1.55D-06     0.3
 d= 0,ls=0.0,diis     6    -76.4200094048 -1.34D-07  4.21D-06  1.12D-07     0.4


         Total DFT energy =      -76.420009404841
      One electron energy =     -123.650516753837
           Coulomb energy =       46.952494833585
    Exchange-Corr. energy =       -9.355455855410
 Nuclear repulsion energy =        9.633470357940

    Dispersion correction =       -0.000001987119

 Numeric. integr. density =        9.999999167112

     Total iterative time =      0.1s


 
                  Occupations of the irreducible representations
                  ----------------------------------------------
 
                     irrep           alpha         beta
                     --------     --------     --------
                     a'                4.0          4.0
                     a"                1.0          1.0
 
 
                       DFT Final Molecular Orbital Analysis
                       ------------------------------------
 
 Vector    1  Occ=2.000000D+00  E=-1.877867D+01  Symmetry=a'
              MO Center= -1.2D-01, -4.2D-02, -1.0D-20, r^2= 1.5D-02
   Bfn.  Coefficient  Atom+Function         Bfn.  Coefficient  Atom+Function  
  ----- ------------  ---------------      ----- ------------  ---------------
    10      1.004694  2 O  s          
 
 Vector    2  Occ=2.000000D+00  E=-9.721681D-01  Symmetry=a'
              MO Center=  1.2D-01, -3.7D-03, -4.2D-16, r^2= 4.7D-01
   Bfn.  Coefficient  Atom+Function         Bfn.  Coefficient  Atom+Function  
  ----- ------------  ---------------      ----- ------------  ---------------
    11      0.440349  2 O  s                 12      0.303721  2 O  s          
    33      0.283832  3 H  s                  1      0.215093  1 H  s          
    14      0.134386  2 O  px                13      0.064138  2 O  s          
     5     -0.042704  1 H  py                 2     -0.040668  1 H  s          
    36     -0.036824  3 H  px                17     -0.035436  2 O  px         
 
 Vector    3  Occ=2.000000D+00  E=-4.849911D-01  Symmetry=a'
              MO Center=  7.4D-02,  7.0D-02, -7.9D-17, r^2= 7.3D-01
   Bfn.  Coefficient  Atom+Function         Bfn.  Coefficient  Atom+Function  
  ----- ------------  ---------------      ----- ------------  ---------------
    15      0.497815  2 O  py                33     -0.376675  3 H  s          
     1      0.365254  1 H  s                 14     -0.168684  2 O  px         
    34     -0.148636  3 H  s                  2      0.140099  1 H  s          
    18      0.137577  2 O  py                12      0.055360  2 O  s          
    17     -0.039761  2 O  px                28     -0.038679  2 O  d -2       
 
 Vector    4  Occ=2.000000D+00  E=-3.674998D-01  Symmetry=a'
              MO Center= -2.0D-01, -5.7D-02,  3.0D-15, r^2= 7.2D-01
   Bfn.  Coefficient  Atom+Function         Bfn.  Coefficient  Atom+Function  
  ----- ------------  ---------------      ----- ------------  ---------------
    14      0.513951  2 O  px                12     -0.377768  2 O  s          
    17      0.242147  2 O  px                 1      0.232785  1 H  s          
    33      0.218548  3 H  s                 11     -0.192433  2 O  s          
    15      0.165939  2 O  py                13     -0.110012  2 O  s          
    18      0.081839  2 O  py                 2      0.075239  1 H  s          
 
 Vector    5  Occ=2.000000D+00  E=-2.719214D-01  Symmetry=a"
              MO Center= -6.7D-02, -2.9D-02, -4.3D-15, r^2= 7.2D-01
   Bfn.  Coefficient  Atom+Function         Bfn.  Coefficient  Atom+Function  
  ----- ------------  ---------------      ----- ------------  ---------------
    16      0.631588  2 O  pz                19      0.411033  2 O  pz         
    22      0.094807  2 O  pz                38      0.032644  3 H  pz         
    41      0.029105  3 H  pz                 6      0.028906  1 H  pz         
     9      0.027390  1 H  pz         
 
 Vector    6  Occ=0.000000D+00  E=-3.398904D-02  Symmetry=a'
              MO Center=  7.4D-01,  4.0D-01, -6.3D-15, r^2= 6.6D+00
   Bfn.  Coefficient  Atom+Function         Bfn.  Coefficient  Atom+Function  
  ----- ------------  ---------------      ----- ------------  ---------------
     3      0.564751  1 H  s                 35      0.404861  3 H  s          
    13     -0.259639  2 O  s                 12     -0.251868  2 O  s          
     2      0.245892  1 H  s                 34      0.167840  3 H  s          
    14     -0.137343  2 O  px                11     -0.130077  2 O  s          
    17     -0.115999  2 O  px                15     -0.083713  2 O  py         
 
 Vector    7  Occ=0.000000D+00  E= 2.242244D-02  Symmetry=a'
              MO Center=  7.7D-01, -4.7D-03,  1.2D-16, r^2= 1.2D+01
   Bfn.  Coefficient  Atom+Function         Bfn.  Coefficient  Atom+Function  
  ----- ------------  ---------------      ----- ------------  ---------------
    35     -2.614901  3 H  s                  3      2.475667  1 H  s          
    34     -0.456158  3 H  s                  2      0.413668  1 H  s          
    21     -0.391662  2 O  py                15     -0.168976  2 O  py         
    18     -0.166716  2 O  py                13      0.117460  2 O  s          
    20      0.108631  2 O  px                17      0.045132  2 O  px         
 
 Vector    8  Occ=0.000000D+00  E= 8.970562D-02  Symmetry=a'
              MO Center= -4.6D-01,  1.7D-01, -1.4D-14, r^2= 9.2D+00
   Bfn.  Coefficient  Atom+Function         Bfn.  Coefficient  Atom+Function  
  ----- ------------  ---------------      ----- ------------  ---------------
    13      3.062843  2 O  s                 20      1.366701  2 O  px         
    34     -1.220812  3 H  s                  3     -0.938141  1 H  s          
     2     -0.890105  1 H  s                 35     -0.613334  3 H  s          
    21      0.355493  2 O  py                 8      0.277032  1 H  py         
    12      0.253513  2 O  s                 14     -0.224073  2 O  px         
 
 Vector    9  Occ=0.000000D+00  E= 1.060236D-01  Symmetry=a"
              MO Center= -2.6D-01, -5.3D-02,  1.5D-14, r^2= 5.9D+00
   Bfn.  Coefficient  Atom+Function         Bfn.  Coefficient  Atom+Function  
  ----- ------------  ---------------      ----- ------------  ---------------
    22      1.270763  2 O  pz                19     -0.269503  2 O  pz         
    16     -0.250263  2 O  pz                41     -0.175017  3 H  pz         
     9     -0.106916  1 H  pz                31     -0.036759  2 O  d  1       
 
 Vector   10  Occ=0.000000D+00  E= 1.217583D-01  Symmetry=a'
              MO Center=  1.6D-01,  5.9D-01,  3.2D-15, r^2= 7.8D+00
   Bfn.  Coefficient  Atom+Function         Bfn.  Coefficient  Atom+Function  
  ----- ------------  ---------------      ----- ------------  ---------------
    13      1.464685  2 O  s                  3     -1.291567  1 H  s          
    20     -0.809794  2 O  px                 8      0.458525  1 H  py         
     7      0.292696  1 H  px                 2      0.281716  1 H  s          
    39      0.215494  3 H  px                12     -0.181637  2 O  s          
    11     -0.175145  2 O  s                  1      0.168024  1 H  s          
 
 Vector   11  Occ=0.000000D+00  E= 1.470387D-01  Symmetry=a'
              MO Center=  9.4D-01, -5.9D-01, -7.4D-16, r^2= 8.1D+00
   Bfn.  Coefficient  Atom+Function         Bfn.  Coefficient  Atom+Function  
  ----- ------------  ---------------      ----- ------------  ---------------
    35      2.967075  3 H  s                  3     -2.280919  1 H  s          
    13     -1.642005  2 O  s                 34      1.192220  3 H  s          
    21      1.159877  2 O  py                39     -0.869826  3 H  px         
     8      0.480563  1 H  py                40      0.383319  3 H  py         
    20     -0.327305  2 O  px                 2     -0.313298  1 H  s          
 
 Vector   12  Occ=0.000000D+00  E= 1.660399D-01  Symmetry=a'
              MO Center= -5.0D-01,  2.7D-02, -1.6D-15, r^2= 7.2D+00
   Bfn.  Coefficient  Atom+Function         Bfn.  Coefficient  Atom+Function  
  ----- ------------  ---------------      ----- ------------  ---------------
     2      2.639280  1 H  s                 21     -2.540860  2 O  py         
     3      2.241306  1 H  s                 34     -2.024340  3 H  s          
    35     -1.992871  3 H  s                 13     -0.802807  2 O  s          
    20      0.535356  2 O  px                18     -0.286265  2 O  py         
     8     -0.274993  1 H  py                 1      0.207486  1 H  s          
 
 Vector   13  Occ=0.000000D+00  E= 2.260377D-01  Symmetry=a'
              MO Center=  3.1D-01,  8.0D-02,  1.9D-15, r^2= 4.3D+00
   Bfn.  Coefficient  Atom+Function         Bfn.  Coefficient  Atom+Function  
  ----- ------------  ---------------      ----- ------------  ---------------
    13      3.844519  2 O  s                 34     -2.123873  3 H  s          
     2     -1.861490  1 H  s                  7      0.716974  1 H  px         
    40      0.659887  3 H  py                20      0.489035  2 O  px         
     3     -0.305595  1 H  s                  8     -0.275752  1 H  py         
    35     -0.237080  3 H  s                 39      0.220232  3 H  px         
 
 Vector   14  Occ=0.000000D+00  E= 2.631160D-01  Symmetry=a'
              MO Center=  4.3D-03, -2.7D-02,  9.7D-16, r^2= 5.4D+00
   Bfn.  Coefficient  Atom+Function         Bfn.  Coefficient  Atom+Function  
  ----- ------------  ---------------      ----- ------------  ---------------
    13      5.213536  2 O  s                 34     -2.869805  3 H  s          
     2     -2.322269  1 H  s                 20      2.027063  2 O  px         
    17      0.687854  2 O  px                 7     -0.530344  1 H  px         
    35     -0.502457  3 H  s                 39     -0.466513  3 H  px         
    21      0.427245  2 O  py                 3     -0.372532  1 H  s          
 
 Vector   15  Occ=0.000000D+00  E= 2.663399D-01  Symmetry=a"
              MO Center=  4.2D-01,  4.0D-01,  4.7D-16, r^2= 3.7D+00
   Bfn.  Coefficient  Atom+Function         Bfn.  Coefficient  Atom+Function  
  ----- ------------  ---------------      ----- ------------  ---------------
     9      1.382553  1 H  pz                41     -0.929870  3 H  pz         
    22     -0.268187  2 O  pz                19     -0.074338  2 O  pz         
    29     -0.068617  2 O  d -1              24      0.035352  2 O  d -1       
    16     -0.026968  2 O  pz         
 
 Vector   16  Occ=0.000000D+00  E= 2.950096D-01  Symmetry=a"
              MO Center=  4.1D-01, -1.4D-01,  1.1D-15, r^2= 4.2D+00
   Bfn.  Coefficient  Atom+Function         Bfn.  Coefficient  Atom+Function  
  ----- ------------  ---------------      ----- ------------  ---------------
    41      1.427648  3 H  pz                22     -1.219193  2 O  pz         
     9      0.800885  1 H  pz                19     -0.595520  2 O  pz         
    16     -0.165238  2 O  pz                31      0.045041  2 O  d  1       
    38      0.030822  3 H  pz         
 
 Vector   17  Occ=0.000000D+00  E= 4.384273D-01  Symmetry=a'
              MO Center=  4.3D-01,  7.9D-02,  1.4D-16, r^2= 5.3D+00
   Bfn.  Coefficient  Atom+Function         Bfn.  Coefficient  Atom+Function  
  ----- ------------  ---------------      ----- ------------  ---------------
    40      2.878281  3 H  py                 2     -2.054365  1 H  s          
    21     -2.048075  2 O  py                34      2.041920  3 H  s          
     8      1.944102  1 H  py                 7     -1.866145  1 H  px         
     3      1.183208  1 H  s                 35     -1.175682  3 H  s          
    39      0.593447  3 H  px                20      0.553271  2 O  px         
 
 Vector   18  Occ=0.000000D+00  E= 4.791263D-01  Symmetry=a'
              MO Center=  4.4D-01,  9.4D-01, -6.2D-17, r^2= 4.3D+00
   Bfn.  Coefficient  Atom+Function         Bfn.  Coefficient  Atom+Function  
  ----- ------------  ---------------      ----- ------------  ---------------
    13     -4.903452  2 O  s                  2      4.867929  1 H  s          
     8     -2.666698  1 H  py                12     -2.271444  2 O  s          
     3      0.982199  1 H  s                  7     -0.911800  1 H  px         
    39     -0.648448  3 H  px                18     -0.492850  2 O  py         
    21     -0.450658  2 O  py                34      0.445380  3 H  s          
 
 Vector   19  Occ=0.000000D+00  E= 5.196739D-01  Symmetry=a'
              MO Center=  5.0D-01, -4.4D-01,  6.0D-16, r^2= 5.1D+00
   Bfn.  Coefficient  Atom+Function         Bfn.  Coefficient  Atom+Function  
  ----- ------------  ---------------      ----- ------------  ---------------
    34     11.461473  3 H  s                  2     -8.345345  1 H  s          
     8      3.646117  1 H  py                40      3.477637  3 H  py         
    39     -3.158765  3 H  px                13     -2.670068  2 O  s          
    21      1.988658  2 O  py                35      1.790223  3 H  s          
     3     -1.279987  1 H  s                 18      1.251234  2 O  py         
 
 Vector   20  Occ=0.000000D+00  E= 5.821479D-01  Symmetry=a'
              MO Center=  1.6D-01,  4.9D-02, -7.4D-16, r^2= 3.5D+00
   Bfn.  Coefficient  Atom+Function         Bfn.  Coefficient  Atom+Function  
  ----- ------------  ---------------      ----- ------------  ---------------
     2      5.984507  1 H  s                 34     -3.745602  3 H  s          
    13     -1.800154  2 O  s                 21     -1.725118  2 O  py         
     8     -1.492182  1 H  py                40     -0.732585  3 H  py         
    12     -0.672882  2 O  s                 18     -0.605050  2 O  py         
     3      0.585144  1 H  s                  1     -0.511293  1 H  s          
 
 Vector   21  Occ=0.000000D+00  E= 7.403815D-01  Symmetry=a'
              MO Center=  1.6D-01, -1.0D-02,  1.4D-16, r^2= 2.8D+00
   Bfn.  Coefficient  Atom+Function         Bfn.  Coefficient  Atom+Function  
  ----- ------------  ---------------      ----- ------------  ---------------
    13      4.990890  2 O  s                  2     -3.670270  1 H  s          
    34     -2.931219  3 H  s                 20      1.461114  2 O  px         
    12      0.822052  2 O  s                 30     -0.750729  2 O  d  0       
    33      0.526024  3 H  s                  1      0.454283  1 H  s          
    21      0.438149  2 O  py                 8      0.424332  1 H  py         
 
 Vector   22  Occ=0.000000D+00  E= 8.703971D-01  Symmetry=a"
              MO Center= -4.1D-01, -1.3D-01,  7.1D-15, r^2= 2.0D+00
   Bfn.  Coefficient  Atom+Function         Bfn.  Coefficient  Atom+Function  
  ----- ------------  ---------------      ----- ------------  ---------------
    31      1.030265  2 O  d  1              22     -0.811602  2 O  pz         
    41      0.605311  3 H  pz                 9      0.578912  1 H  pz         
    29     -0.317971  2 O  d -1              16     -0.261887  2 O  pz         
    19      0.079402  2 O  pz                 6     -0.030143  1 H  pz         
    38     -0.026913  3 H  pz         
 
 Vector   23  Occ=0.000000D+00  E= 8.893778D-01  Symmetry=a'
              MO Center= -2.1D-01, -7.5D-02, -5.2D-15, r^2= 2.2D+00
   Bfn.  Coefficient  Atom+Function         Bfn.  Coefficient  Atom+Function  
  ----- ------------  ---------------      ----- ------------  ---------------
    13      1.420136  2 O  s                  2     -1.238357  1 H  s          
    32     -0.946898  2 O  d  2               7      0.693370  1 H  px         
    28     -0.632452  2 O  d -2              40      0.605923  3 H  py         
    34     -0.562457  3 H  s                 39      0.533451  3 H  px         
    12      0.455686  2 O  s                 20     -0.327418  2 O  px         
 
 Vector   24  Occ=0.000000D+00  E= 9.197492D-01  Symmetry=a"
              MO Center=  5.2D-03,  7.3D-02,  5.9D-16, r^2= 2.1D+00
   Bfn.  Coefficient  Atom+Function         Bfn.  Coefficient  Atom+Function  
  ----- ------------  ---------------      ----- ------------  ---------------
    29      1.167095  2 O  d -1              41      0.858061  3 H  pz         
     9     -0.850784  1 H  pz                31      0.346039  2 O  d  1       
    16     -0.048924  2 O  pz                 6      0.047198  1 H  pz         
    19      0.033336  2 O  pz                22     -0.032807  2 O  pz         
    38     -0.028614  3 H  pz         
 
 Vector   25  Occ=0.000000D+00  E= 1.004434D+00  Symmetry=a'
              MO Center= -9.0D-03, -7.6D-02, -1.1D-16, r^2= 2.2D+00
   Bfn.  Coefficient  Atom+Function         Bfn.  Coefficient  Atom+Function  
  ----- ------------  ---------------      ----- ------------  ---------------
    13      4.313582  2 O  s                 34     -3.140805  3 H  s          
     2     -2.763748  1 H  s                 12      1.827614  2 O  s          
    17      1.385143  2 O  px                20      0.732240  2 O  px         
     8      0.725168  1 H  py                40     -0.651077  3 H  py         
    14     -0.577489  2 O  px                18      0.526667  2 O  py         
 
 Vector   26  Occ=0.000000D+00  E= 1.149957D+00  Symmetry=a"
              MO Center=  2.4D-01,  9.6D-03, -3.2D-16, r^2= 1.6D+00
   Bfn.  Coefficient  Atom+Function         Bfn.  Coefficient  Atom+Function  
  ----- ------------  ---------------      ----- ------------  ---------------
    19      1.671463  2 O  pz                16     -0.941400  2 O  pz         
    41     -0.749796  3 H  pz                 9     -0.552555  1 H  pz         
    31     -0.509038  2 O  d  1              22      0.188030  2 O  pz         
    38     -0.046639  3 H  pz                29      0.036666  2 O  d -1       
 
 Vector   27  Occ=0.000000D+00  E= 1.166154D+00  Symmetry=a'
              MO Center= -3.2D-01,  1.1D-01,  4.0D-16, r^2= 2.0D+00
   Bfn.  Coefficient  Atom+Function         Bfn.  Coefficient  Atom+Function  
  ----- ------------  ---------------      ----- ------------  ---------------
    34      5.861071  3 H  s                  2     -4.813373  1 H  s          
     8      1.778095  1 H  py                18      1.704066  2 O  py         
    39     -1.505731  3 H  px                40      1.166539  3 H  py         
    13     -1.043860  2 O  s                 17     -1.011117  2 O  px         
    21      0.851573  2 O  py                 7      0.739160  1 H  px         
 
 Vector   28  Occ=0.000000D+00  E= 1.308942D+00  Symmetry=a'
              MO Center= -6.8D-02, -2.0D-01, -1.7D-15, r^2= 1.7D+00
   Bfn.  Coefficient  Atom+Function         Bfn.  Coefficient  Atom+Function  
  ----- ------------  ---------------      ----- ------------  ---------------
    34      2.256093  3 H  s                  2     -1.808359  1 H  s          
    17      1.181184  2 O  px                33     -1.026758  3 H  s          
    39     -0.943178  3 H  px                18      0.902521  2 O  py         
    30     -0.788955  2 O  d  0               1     -0.771193  1 H  s          
    12     -0.761911  2 O  s                 13      0.622224  2 O  s          
 
 Vector   29  Occ=0.000000D+00  E= 1.700605D+00  Symmetry=a"
              MO Center=  2.3D-01,  3.1D-01,  7.6D-16, r^2= 1.3D+00
   Bfn.  Coefficient  Atom+Function         Bfn.  Coefficient  Atom+Function  
  ----- ------------  ---------------      ----- ------------  ---------------
     6      1.111298  1 H  pz                29     -0.807138  2 O  d -1       
    38     -0.734882  3 H  pz                19     -0.149054  2 O  pz         
     9     -0.133806  1 H  pz                31     -0.097815  2 O  d  1       
    41      0.075145  3 H  pz                24      0.068640  2 O  d -1       
    16      0.057378  2 O  pz                22      0.046165  2 O  pz         
 
 Vector   30  Occ=0.000000D+00  E= 1.730182D+00  Symmetry=a'
              MO Center=  2.3D-01,  1.6D-01,  2.0D-17, r^2= 1.8D+00
   Bfn.  Coefficient  Atom+Function         Bfn.  Coefficient  Atom+Function  
  ----- ------------  ---------------      ----- ------------  ---------------
    34      2.040702  3 H  s                  2     -1.698898  1 H  s          
    18      1.463611  2 O  py                21      1.188294  2 O  py         
    39     -0.925621  3 H  px                 7      0.910650  1 H  px         
     1     -0.784884  1 H  s                  4     -0.758908  1 H  px         
    28      0.744639  2 O  d -2              33      0.675510  3 H  s          
 
 Vector   31  Occ=0.000000D+00  E= 1.848160D+00  Symmetry=a"
              MO Center=  4.1D-01, -6.1D-02,  3.2D-16, r^2= 1.3D+00
   Bfn.  Coefficient  Atom+Function         Bfn.  Coefficient  Atom+Function  
  ----- ------------  ---------------      ----- ------------  ---------------
    38      1.262176  3 H  pz                19     -0.927721  2 O  pz         
    31      0.905675  2 O  d  1               6      0.807495  1 H  pz         
    22      0.091222  2 O  pz                26     -0.063369  2 O  d  1       
    16     -0.054765  2 O  pz                41      0.046892  3 H  pz         
    29     -0.030642  2 O  d -1       
 
 Vector   32  Occ=0.000000D+00  E= 1.946976D+00  Symmetry=a'
              MO Center=  1.6D-01,  6.5D-02, -3.0D-16, r^2= 1.6D+00
   Bfn.  Coefficient  Atom+Function         Bfn.  Coefficient  Atom+Function  
  ----- ------------  ---------------      ----- ------------  ---------------
    12      2.192272  2 O  s                 13      1.837794  2 O  s          
     2     -1.694688  1 H  s                 34     -1.349569  3 H  s          
    32     -1.288082  2 O  d  2               4      0.921816  1 H  px         
    37      0.891930  3 H  py                11     -0.844590  2 O  s          
    36      0.718604  3 H  px                28     -0.674110  2 O  d -2       
 
 Vector   33  Occ=0.000000D+00  E= 2.139298D+00  Symmetry=a'
              MO Center=  2.9D-01,  5.3D-01, -4.7D-17, r^2= 1.1D+00
   Bfn.  Coefficient  Atom+Function         Bfn.  Coefficient  Atom+Function  
  ----- ------------  ---------------      ----- ------------  ---------------
     2      1.924246  1 H  s                 34     -1.722675  3 H  s          
     8     -1.283640  1 H  py                 5      1.056936  1 H  py         
    18     -0.937566  2 O  py                15      0.758868  2 O  py         
    37      0.719274  3 H  py                40     -0.666184  3 H  py         
    11      0.528223  2 O  s                 12     -0.496531  2 O  s          
 
 Vector   34  Occ=0.000000D+00  E= 2.302576D+00  Symmetry=a'
              MO Center=  2.5D-01,  6.9D-02, -5.0D-16, r^2= 1.6D+00
   Bfn.  Coefficient  Atom+Function         Bfn.  Coefficient  Atom+Function  
  ----- ------------  ---------------      ----- ------------  ---------------
    34      6.186833  3 H  s                  2     -5.026113  1 H  s          
    18      3.462916  2 O  py                33      1.978431  3 H  s          
     1     -1.958471  1 H  s                  8      1.682854  1 H  py         
    40      1.540493  3 H  py                28      1.517413  2 O  d -2       
    39     -1.457384  3 H  px                17     -1.190040  2 O  px         
 
 Vector   35  Occ=0.000000D+00  E= 2.408349D+00  Symmetry=a'
              MO Center=  4.6D-01, -2.8D-01, -1.4D-16, r^2= 1.1D+00
   Bfn.  Coefficient  Atom+Function         Bfn.  Coefficient  Atom+Function  
  ----- ------------  ---------------      ----- ------------  ---------------
    12     -1.871742  2 O  s                  2      1.817084  1 H  s          
    11      1.501546  2 O  s                 13     -1.154627  2 O  s          
    36      1.143603  3 H  px                18     -1.129035  2 O  py         
     1      0.855642  1 H  s                 33     -0.761274  3 H  s          
    28     -0.753299  2 O  d -2              10      0.700381  2 O  s          
 
 Vector   36  Occ=0.000000D+00  E= 2.634080D+00  Symmetry=a'
              MO Center=  1.2D-01,  3.0D-02,  1.7D-16, r^2= 1.6D+00
   Bfn.  Coefficient  Atom+Function         Bfn.  Coefficient  Atom+Function  
  ----- ------------  ---------------      ----- ------------  ---------------
    12      5.528734  2 O  s                 13      4.327556  2 O  s          
     2     -3.217357  1 H  s                 34     -2.921462  3 H  s          
    17      2.428843  2 O  px                33     -1.871802  3 H  s          
     1     -1.809464  1 H  s                 11     -1.164042  2 O  s          
    30     -1.088223  2 O  d  0              18      0.945798  2 O  py         
 
 Vector   37  Occ=0.000000D+00  E= 3.180536D+00  Symmetry=a"
              MO Center= -1.2D-01, -3.5D-02,  1.1D-15, r^2= 7.6D-01
   Bfn.  Coefficient  Atom+Function         Bfn.  Coefficient  Atom+Function  
  ----- ------------  ---------------      ----- ------------  ---------------
    26      0.943501  2 O  d  1              24     -0.737754  2 O  d -1       
    31     -0.529452  2 O  d  1              29      0.444604  2 O  d -1       
     9     -0.415394  1 H  pz                22      0.307281  2 O  pz         
    41     -0.174083  3 H  pz                 6      0.153860  1 H  pz         
    19      0.144506  2 O  pz                38      0.094224  3 H  pz         
 
 Vector   38  Occ=0.000000D+00  E= 3.212123D+00  Symmetry=a'
              MO Center= -8.2D-02, -4.9D-02, -2.0D-15, r^2= 7.9D-01
   Bfn.  Coefficient  Atom+Function         Bfn.  Coefficient  Atom+Function  
  ----- ------------  ---------------      ----- ------------  ---------------
    27      1.021370  2 O  d  2               2     -0.806697  1 H  s          
    12      0.658052  2 O  s                 23      0.643428  2 O  d -2       
    13      0.616761  2 O  s                 32     -0.510798  2 O  d  2       
    40      0.335710  3 H  py                 7      0.296642  1 H  px         
    37     -0.288140  3 H  py                18      0.248320  2 O  py         
 
 Vector   39  Occ=0.000000D+00  E= 3.214839D+00  Symmetry=a"
              MO Center= -7.3D-02, -4.5D-02,  1.2D-15, r^2= 7.7D-01
   Bfn.  Coefficient  Atom+Function         Bfn.  Coefficient  Atom+Function  
  ----- ------------  ---------------      ----- ------------  ---------------
    24      0.954725  2 O  d -1              26      0.746668  2 O  d  1       
    29     -0.559925  2 O  d -1              41     -0.482789  3 H  pz         
    31     -0.396589  2 O  d  1              38      0.250907  3 H  pz         
     9      0.225257  1 H  pz                22      0.139154  2 O  pz         
     6     -0.067100  1 H  pz                19      0.043912  2 O  pz         
 
 Vector   40  Occ=0.000000D+00  E= 3.516143D+00  Symmetry=a'
              MO Center= -3.3D-02,  2.5D-02,  1.3D-16, r^2= 9.3D-01
   Bfn.  Coefficient  Atom+Function         Bfn.  Coefficient  Atom+Function  
  ----- ------------  ---------------      ----- ------------  ---------------
    12      4.166786  2 O  s                 13      2.060064  2 O  s          
     2     -1.674860  1 H  s                  1     -1.637430  1 H  s          
    17      1.623605  2 O  px                34     -1.538055  3 H  s          
    33     -1.392195  3 H  s                 25     -1.133433  2 O  d  0       
     5      0.975025  1 H  py                18      0.810384  2 O  py         
 
 Vector   41  Occ=0.000000D+00  E= 3.895885D+00  Symmetry=a'
              MO Center= -2.8D-02, -4.8D-02, -7.9D-17, r^2= 8.7D-01
   Bfn.  Coefficient  Atom+Function         Bfn.  Coefficient  Atom+Function  
  ----- ------------  ---------------      ----- ------------  ---------------
    34      3.659247  3 H  s                  2     -2.426188  1 H  s          
    33      2.352566  3 H  s                 18      2.170796  2 O  py         
    12     -1.486631  2 O  s                 17     -1.213311  2 O  px         
    23      1.139854  2 O  d -2               1     -1.120747  1 H  s          
    36     -1.039251  3 H  px                39     -0.983434  3 H  px         
 

 center of mass
 --------------
 x =  -0.09713876 y =  -0.03527435 z =   0.00000000

 moments of inertia (a.u.)
 ------------------
           3.395607560359           0.000000000000           0.000000000000
           0.000000000000           2.377994470686           0.000000000000
           0.000000000000           0.000000000000           5.773602031045
 
     Multipole analysis of the density
     ---------------------------------
 
     L   x y z        total         alpha         beta         nuclear
     -   - - -        -----         -----         ----         -------
     0   0 0 0     -0.000000     -5.000000     -5.000000     10.000000
 
     1   1 0 0      0.709308      0.354654      0.354654     -0.000000
     1   0 1 0      0.235346      0.117673      0.117673      0.000000
     1   0 0 1     -0.000000     -0.000000     -0.000000      0.000000
 
     2   2 0 0     -4.612798     -3.379042     -3.379042      2.145285
     2   1 1 0     -0.180779     -0.051490     -0.051490     -0.077800
     2   1 0 1     -0.000000     -0.000000     -0.000000      0.000000
     2   0 2 0     -3.754369     -3.547680     -3.547680      3.340991
     2   0 1 1     -0.000000     -0.000000     -0.000000      0.000000
     2   0 0 2     -5.754214     -2.877107     -2.877107      0.000000
 

 Parallel integral file used       8 records with       0 large values


 Task  times  cpu:        0.2s     wall:        0.2s
 
 
                                NWChem Input Module
                                -------------------
 
 
 
 
                           NWChem Geometry Optimization
                           ----------------------------
 
 
 
 
                                        H2O
 
 
  no constraints, skipping   0.000000000000000E+000
 maximum gradient threshold         (gmax) =   0.000450
 rms gradient threshold             (grms) =   0.000300
 maximum cartesian step threshold   (xmax) =   0.001800
 rms cartesian step threshold       (xrms) =   0.001200
 fixed trust radius                (trust) =   0.300000
 maximum step size to saddle      (sadstp) =   0.100000
 energy precision                  (eprec) =   5.0D-06
 maximum number of steps          (nptopt) =   40
 initial hessian option           (inhess) =    0
 line search option               (linopt) =    1
 hessian update option            (modupd) =    1
 saddle point option              (modsad) =    0
 initial eigen-mode to follow     (moddir) =    0
 initial variable to follow       (vardir) =    0
 follow first negative mode     (firstneg) =    T
 apply conjugacy                    (opcg) =    F
 source of zmatrix                         =   user    


          -------------------
          Energy Minimization
          -------------------

 
 Names of Z-matrix variables 
    1 r2           2 r3           3 a3      
 
 Variables with the same non-blank name are constrained to be equal
 
 
 Using diagonal initial Hessian 
 Scaling for Hessian diagonals: bonds = 1.00  angles = 0.25  torsions = 0.10

          --------
          Step   0
          --------
 
 
                            Geometry "geometry" -> "g0"
                            ---------------------------
 
 Output coordinates in angstroms (scale by  1.889725989 to convert to a.u.)
 
  No.       Tag          Charge          X              Y              Z
 ---- ---------------- ---------- -------------- -------------- --------------
    1 H                    1.0000     0.29973293     0.82669162     0.00000000
    2 O                    8.0000    -0.11671355    -0.04238261     0.00000000
    3 H                    1.0000     0.63397545    -0.48763071     0.00000000
 
      Atomic Mass 
      ----------- 
 
      H                  1.007825
      O                 15.994910
 

 Effective nuclear repulsion energy (a.u.)       9.6334703579

            Nuclear Dipole moment (a.u.) 
            ----------------------------
        X                 Y               Z
 ---------------- ---------------- ----------------
    -0.0000000000     0.0000000000     0.0000000000
 
      Symmetry information
      --------------------
 
 Group name             Cs        
 Group number              2
 Group order               2
 No. of unique centers     3
 
      Symmetry unique atoms
 
     1    2    3
 
 
                                 NWChem DFT Module
                                 -----------------
 
 
                                        H2O
 
 


 Summary of "ao basis" -> "ao basis" (spherical)
 ------------------------------------------------------------------------------
       Tag                 Description            Shells   Functions and Types
 ---------------- ------------------------------  ------  ---------------------
 H                        aug-cc-pVDZ                5        9   3s2p
 O                        aug-cc-pVDZ                9       23   4s3p2d


      Symmetry analysis of basis
      --------------------------
 
        a'         30
        a"         11
 

  The DFT is already converged 

         Total DFT energy =    -76.420009404841

 
            General Information
            -------------------
          SCF calculation type: DFT
          Wavefunction type:  closed shell.
          No. of atoms     :     3
          No. of electrons :    10
           Alpha electrons :     5
            Beta electrons :     5
          Charge           :     0
          Spin multiplicity:     1
          Use of symmetry is: on ; symmetry adaption is: on 
          Maximum number of iterations:  50
          AO basis - number of functions:    41
                     number of shells:    19
          Convergence on energy requested:  1.00D-06
          Convergence on density requested:  1.00D-05
          Convergence on gradient requested:  5.00D-04
 
              XC Information
              --------------
                         S12g Method XC Functional
                        Slater Exchange Functional  1.038 local    
                S12g(GGA-part) Exchange Functional  1.000 non-local
            Perdew 1991 LDA Correlation Functional  1.000 local    
           PerdewBurkeErnz. Correlation Functional  1.000 non-local
 
             Grid Information
             ----------------
          Grid used for XC integration:  medium    
          Radial quadrature: Mura-Knowles        
          Angular quadrature: Lebedev. 
          Tag              B.-S. Rad. Rad. Pts. Rad. Cut. Ang. Pts.
          ---              ---------- --------- --------- ---------
          H                   0.35       45          11.0       434
          O                   0.60       49           9.0       434
          Grid pruning is: on 
          Number of quadrature shells:   139
          Spatial weights used:  Erf1
 
          Convergence Information
          -----------------------
          Convergence aids based upon iterative change in 
          total energy or number of iterations. 
          Levelshifting, if invoked, occurs when the 
          HOMO/LUMO gap drops below (HL_TOL):  1.00D-02
          DIIS, if invoked, will attempt to extrapolate 
          using up to (NFOCK): 10 stored Fock matrices.

                    Damping( 0%)  Levelshifting(0.5)       DIIS
                  --------------- ------------------- ---------------
          dE  on:    start            ASAP                start   
          dE off:    2 iters         50 iters            50 iters 

 
      Screening Tolerance Information
      -------------------------------
          Density screening/tol_rho:  1.00D-10
          AO Gaussian exp screening on grid/accAOfunc:  14
          CD Gaussian exp screening on grid/accCDfunc:  20
          XC Gaussian exp screening on grid/accXCfunc:  20
          Schwarz screening/accCoul:  1.00D-08

 
 
                            NWChem DFT Gradient Module
                            --------------------------
 
 
                                        H2O
 
 

  charge          =   0.00
  wavefunction    = closed shell

  Using symmetry


                         DFT ENERGY GRADIENTS

    atom               coordinates                        gradient
                 x          y          z           x          y          z
   1 H       0.566413   1.562221   0.000000    0.012645  -0.014360   0.000000
   2 O      -0.220557  -0.080092   0.000000    0.094523  -0.071806   0.000000
   3 H       1.198040  -0.921488   0.000000   -0.107167   0.086166   0.000000
 
                 ----------------------------------------
                 |  Time  |  1-e(secs)   |  2-e(secs)   |
                 ----------------------------------------
                 |  CPU   |       0.00   |       0.05   |
                 ----------------------------------------
                 |  WALL  |       0.00   |       0.05   |
                 ----------------------------------------
  no constraints, skipping   0.000000000000000E+000

@ Step       Energy      Delta E   Gmax     Grms     Xrms     Xmax   Walltime
@ ---- ---------------- -------- -------- -------- -------- -------- --------
@    0     -76.42000940  0.0D+00  0.13613  0.07932  0.00000  0.00000      0.5
                                                                    



                                Z-matrix (user)
                                -------- 

 Units are Angstrom for bonds and degrees for angles
 
      Type          Name      I     J     K     L     M      Value     Gradient
      ----------- --------  ----- ----- ----- ----- ----- ---------- ----------
    1 Stretch      r2          2     1                       0.96370   -0.00749
    2 Stretch      r3          3     2                       0.87280   -0.13613
    3 Bend         a3          3     2     1                95.07000   -0.01697
 
 Restricting large step in mode    1 eval= 5.0D-02 step= 3.4D-01 new= 3.0D-01
 Restricting large step in mode    3 eval= 4.3D-01 step= 3.2D-01 new= 3.0D-01
 Restricting overall step due to large component. alpha=  1.00
  no constraints, skipping   0.000000000000000E+000
  no constraints, skipping   0.000000000000000E+000
  no constraints, skipping   0.000000000000000E+000
  no constraints, skipping   0.000000000000000E+000
  no constraints, skipping   0.000000000000000E+000
 
                                 NWChem DFT Module
                                 -----------------
 
 
                                        H2O
 
 


 Summary of "ao basis" -> "ao basis" (spherical)
 ------------------------------------------------------------------------------
       Tag                 Description            Shells   Functions and Types
 ---------------- ------------------------------  ------  ---------------------
 H                        aug-cc-pVDZ                5        9   3s2p
 O                        aug-cc-pVDZ                9       23   4s3p2d


      Symmetry analysis of basis
      --------------------------
 
        a'         30
        a"         11
 
  Caching 1-el integrals 
 
            General Information
            -------------------
          SCF calculation type: DFT
          Wavefunction type:  closed shell.
          No. of atoms     :     3
          No. of electrons :    10
           Alpha electrons :     5
            Beta electrons :     5
          Charge           :     0
          Spin multiplicity:     1
          Use of symmetry is: on ; symmetry adaption is: on 
          Maximum number of iterations:  50
          AO basis - number of functions:    41
                     number of shells:    19
          Convergence on energy requested:  1.00D-06
          Convergence on density requested:  1.00D-05
          Convergence on gradient requested:  5.00D-04
 
              XC Information
              --------------
                         S12g Method XC Functional
                        Slater Exchange Functional  1.038 local    
                S12g(GGA-part) Exchange Functional  1.000 non-local
            Perdew 1991 LDA Correlation Functional  1.000 local    
           PerdewBurkeErnz. Correlation Functional  1.000 non-local
 
             Grid Information
             ----------------
          Grid used for XC integration:  medium    
          Radial quadrature: Mura-Knowles        
          Angular quadrature: Lebedev. 
          Tag              B.-S. Rad. Rad. Pts. Rad. Cut. Ang. Pts.
          ---              ---------- --------- --------- ---------
          H                   0.35       45          12.0       434
          O                   0.60       49           9.0       434
          Grid pruning is: on 
          Number of quadrature shells:   139
          Spatial weights used:  Erf1
 
          Convergence Information
          -----------------------
          Convergence aids based upon iterative change in 
          total energy or number of iterations. 
          Levelshifting, if invoked, occurs when the 
          HOMO/LUMO gap drops below (HL_TOL):  1.00D-02
          DIIS, if invoked, will attempt to extrapolate 
          using up to (NFOCK): 10 stored Fock matrices.

                    Damping( 0%)  Levelshifting(0.5)       DIIS
                  --------------- ------------------- ---------------
          dE  on:    start            ASAP                start   
          dE off:    2 iters         50 iters            50 iters 

 
      Screening Tolerance Information
      -------------------------------
          Density screening/tol_rho:  1.00D-10
          AO Gaussian exp screening on grid/accAOfunc:  14
          CD Gaussian exp screening on grid/accCDfunc:  20
          XC Gaussian exp screening on grid/accXCfunc:  20
          Schwarz screening/accCoul:  1.00D-08

      Dispersion Parameters
      ---------------------

             DFT-D3 Model   
          s6 scale factor  :        1.000000000000
          s8 scale factor  :        0.844325150000
          sr6 scale factor :        1.177559540000
          sr8 scale factor :        1.000000000000
              vdW contrib  :       -0.000006332622


 Loading old vectors from job with title :

H2O

 
      Symmetry analysis of molecular orbitals - initial
      -------------------------------------------------
 
  Numbering of irreducible representations: 
 
     1 a'          2 a"      
 
  Orbital symmetries:
 
     1 a'          2 a'          3 a'          4 a'          5 a"      
     6 a'          7 a'          8 a'          9 a"         10 a'      
    11 a'         12 a'         13 a'         14 a'         15 a"      
 
   Time after variat. SCF:      0.5
   Time prior to 1st pass:      0.5
 Local filesystem for scratch_dir

 Integral file          = ./dft_bsse.aoints.0
 Record size in doubles =  65536        No. of integs per rec  =  43688
 Max. records in memory =      4        Max. records in file   = 590462
 No. of bits per label  =      8        No. of bits per value  =     64


 #quartets = 1.814D+04 #integrals = 1.947D+05 #direct =  0.0% #cached =100.0%


File balance: exchanges=     0  moved=     0  time=   0.0

 Local filesystem for scratch_dir

 Grid_pts file          = ./dft_bsse.gridpts.0
 Record size in doubles =  12289        No. of grid_pts per rec  =   3070
 Max. records in memory =      7        Max. recs in file   =   3148880


           Memory utilization after 1st SCF pass: 
           Heap Space remaining (MW):       25.86            25863986
          Stack Space remaining (MW):       26.21            26214036

   convergence    iter        energy       DeltaE   RMS-Dens  Diis-err    time
 ---------------- ----- ----------------- --------- --------- ---------  ------
 d= 0,ls=0.0,diis     1    -76.4177717477 -8.52D+01  9.08D-03  9.82D-02     0.5
 d= 0,ls=0.0,diis     2    -76.4291669547 -1.14D-02  1.44D-03  3.15D-03     0.5
 d= 0,ls=0.0,diis     3    -76.4294626704 -2.96D-04  5.18D-04  9.60D-04     0.6
 d= 0,ls=0.0,diis     4    -76.4295884902 -1.26D-04  7.70D-05  1.67D-05     0.6
 d= 0,ls=0.0,diis     5    -76.4295883973  9.29D-08  4.10D-05  1.76D-05     0.6
 d= 0,ls=0.0,diis     6    -76.4295900962 -1.70D-06  2.61D-06  2.12D-08     0.6
 d= 0,ls=0.0,diis     7    -76.4295900992 -2.98D-09  2.62D-07  6.43D-10     0.6


         Total DFT energy =      -76.429590099196
      One electron energy =     -122.175969937399
           Coulomb energy =       46.234181671709
    Exchange-Corr. energy =       -9.268915440601
 Nuclear repulsion energy =        8.781119939716

    Dispersion correction =       -0.000006332622

 Numeric. integr. density =        9.999998851583

     Total iterative time =      0.2s


 
                  Occupations of the irreducible representations
                  ----------------------------------------------
 
                     irrep           alpha         beta
                     --------     --------     --------
                     a'                4.0          4.0
                     a"                1.0          1.0
 
 
                       DFT Final Molecular Orbital Analysis
                       ------------------------------------
 
 Vector    1  Occ=2.000000D+00  E=-1.878894D+01  Symmetry=a'
              MO Center= -1.3D-01,  8.6D-03, -6.7D-21, r^2= 1.5D-02
   Bfn.  Coefficient  Atom+Function         Bfn.  Coefficient  Atom+Function  
  ----- ------------  ---------------      ----- ------------  ---------------
    10      1.004521  2 O  s          
 
 Vector    2  Occ=2.000000D+00  E=-9.276964D-01  Symmetry=a'
              MO Center=  5.5D-02,  7.7D-02,  1.9D-16, r^2= 5.0D-01
   Bfn.  Coefficient  Atom+Function         Bfn.  Coefficient  Atom+Function  
  ----- ------------  ---------------      ----- ------------  ---------------
    11      0.452994  2 O  s                 12      0.387553  2 O  s          
     1      0.219319  1 H  s                 33      0.180478  3 H  s          
    14      0.103568  2 O  px                13      0.084463  2 O  s          
    34     -0.045245  3 H  s                  5     -0.041842  1 H  py         
    15      0.038858  2 O  py                 2     -0.034626  1 H  s          
 
 Vector    3  Occ=2.000000D+00  E=-4.745306D-01  Symmetry=a'
              MO Center=  9.6D-02,  3.6D-02, -1.3D-16, r^2= 8.1D-01
   Bfn.  Coefficient  Atom+Function         Bfn.  Coefficient  Atom+Function  
  ----- ------------  ---------------      ----- ------------  ---------------
    15      0.496215  2 O  py                 1      0.363515  1 H  s          
    33     -0.352030  3 H  s                 18      0.153136  2 O  py         
    14     -0.121112  2 O  px                 2      0.117749  1 H  s          
    34     -0.112153  3 H  s                 17     -0.042886  2 O  px         
    36      0.038498  3 H  px                28     -0.035411  2 O  d -2       
 
 Vector    4  Occ=2.000000D+00  E=-3.452474D-01  Symmetry=a'
              MO Center= -1.6D-01, -9.0D-03, -2.7D-17, r^2= 7.9D-01
   Bfn.  Coefficient  Atom+Function         Bfn.  Coefficient  Atom+Function  
  ----- ------------  ---------------      ----- ------------  ---------------
    14      0.528941  2 O  px                12     -0.325034  2 O  s          
    17      0.281306  2 O  px                33      0.220064  3 H  s          
     1      0.213068  1 H  s                 11     -0.171428  2 O  s          
    15      0.133860  2 O  py                13     -0.102432  2 O  s          
    34      0.081165  3 H  s                  2      0.075968  1 H  s          
 
 Vector    5  Occ=2.000000D+00  E=-2.633723D-01  Symmetry=a"
              MO Center= -8.5D-02,  2.1D-02,  1.8D-15, r^2= 7.4D-01
   Bfn.  Coefficient  Atom+Function         Bfn.  Coefficient  Atom+Function  
  ----- ------------  ---------------      ----- ------------  ---------------
    16      0.632205  2 O  pz                19      0.416774  2 O  pz         
    22      0.101150  2 O  pz                 6      0.028097  1 H  pz         
     9      0.028003  1 H  pz                41      0.027159  3 H  pz         
    38      0.025779  3 H  pz         
 
 Vector    6  Occ=0.000000D+00  E=-4.169804D-02  Symmetry=a'
              MO Center=  7.3D-01,  7.1D-02, -1.6D-15, r^2= 6.2D+00
   Bfn.  Coefficient  Atom+Function         Bfn.  Coefficient  Atom+Function  
  ----- ------------  ---------------      ----- ------------  ---------------
    35      0.505144  3 H  s                  3      0.390276  1 H  s          
    12     -0.279488  2 O  s                 34      0.278678  3 H  s          
    13     -0.246006  2 O  s                  2      0.210698  1 H  s          
    14     -0.193890  2 O  px                17     -0.164741  2 O  px         
    11     -0.144836  2 O  s                 33      0.110131  3 H  s          
 
 Vector    7  Occ=0.000000D+00  E= 1.475867D-02  Symmetry=a'
              MO Center=  6.4D-01,  4.4D-01,  1.3D-16, r^2= 1.1D+01
   Bfn.  Coefficient  Atom+Function         Bfn.  Coefficient  Atom+Function  
  ----- ------------  ---------------      ----- ------------  ---------------
     3      2.098134  1 H  s                 35     -1.976976  3 H  s          
     2      0.394313  1 H  s                 34     -0.373872  3 H  s          
    21     -0.367103  2 O  py                15     -0.211859  2 O  py         
    18     -0.191413  2 O  py                20      0.100434  2 O  px         
    13     -0.077565  2 O  s                 14      0.061699  2 O  px         
 
 Vector    8  Occ=0.000000D+00  E= 8.666271D-02  Symmetry=a'
              MO Center= -3.4D-02, -4.6D-01,  4.1D-15, r^2= 1.0D+01
   Bfn.  Coefficient  Atom+Function         Bfn.  Coefficient  Atom+Function  
  ----- ------------  ---------------      ----- ------------  ---------------
    13      2.855434  2 O  s                 35     -1.153269  3 H  s          
    20      1.110414  2 O  px                 2     -0.915608  1 H  s          
    34     -0.687761  3 H  s                  3     -0.558389  1 H  s          
    39      0.345587  3 H  px                 8      0.305260  1 H  py         
    21      0.280936  2 O  py                14     -0.272218  2 O  px         
 
 Vector    9  Occ=0.000000D+00  E= 1.064163D-01  Symmetry=a"
              MO Center= -2.4D-01, -4.2D-02, -9.8D-15, r^2= 5.9D+00
   Bfn.  Coefficient  Atom+Function         Bfn.  Coefficient  Atom+Function  
  ----- ------------  ---------------      ----- ------------  ---------------
    22      1.251337  2 O  pz                19     -0.293682  2 O  pz         
    16     -0.255073  2 O  pz                 9     -0.142462  1 H  pz         
    41     -0.105027  3 H  pz                31     -0.028341  2 O  d  1       
 
 Vector   10  Occ=0.000000D+00  E= 1.102866D-01  Symmetry=a'
              MO Center=  3.2D-01, -3.1D-01,  3.2D-15, r^2= 7.0D+00
   Bfn.  Coefficient  Atom+Function         Bfn.  Coefficient  Atom+Function  
  ----- ------------  ---------------      ----- ------------  ---------------
    35      1.188248  3 H  s                 20      1.042706  2 O  px         
    34     -0.764127  3 H  s                  2     -0.614730  1 H  s          
     3     -0.517953  1 H  s                 21      0.493987  2 O  py         
    39     -0.333279  3 H  px                12      0.321726  2 O  s          
    33     -0.215400  3 H  s                 40      0.212831  3 H  py         
 
 Vector   11  Occ=0.000000D+00  E= 1.237029D-01  Symmetry=a'
              MO Center=  3.9D-01,  1.0D+00, -1.0D-15, r^2= 7.4D+00
   Bfn.  Coefficient  Atom+Function         Bfn.  Coefficient  Atom+Function  
  ----- ------------  ---------------      ----- ------------  ---------------
     3      2.206071  1 H  s                 35     -1.530276  3 H  s          
    13     -0.941538  2 O  s                  8     -0.630258  1 H  py         
    21     -0.474025  2 O  py                20      0.401791  2 O  px         
     7     -0.387296  1 H  px                39      0.320469  3 H  px         
    15      0.307516  2 O  py                 1     -0.217075  1 H  s          
 
 Vector   12  Occ=0.000000D+00  E= 1.635364D-01  Symmetry=a'
              MO Center= -4.3D-01, -1.4D-01, -1.6D-15, r^2= 8.7D+00
   Bfn.  Coefficient  Atom+Function         Bfn.  Coefficient  Atom+Function  
  ----- ------------  ---------------      ----- ------------  ---------------
    21      2.685883  2 O  py                35      2.266944  3 H  s          
     3     -2.204561  1 H  s                 34      2.150745  3 H  s          
     2     -2.006503  1 H  s                 20     -0.805044  2 O  px         
     8      0.236326  1 H  py                40      0.235308  3 H  py         
    18      0.216331  2 O  py                39     -0.216865  3 H  px         
 
 Vector   13  Occ=0.000000D+00  E= 2.015197D-01  Symmetry=a'
              MO Center=  1.3D-01,  6.5D-02,  1.5D-15, r^2= 5.1D+00
   Bfn.  Coefficient  Atom+Function         Bfn.  Coefficient  Atom+Function  
  ----- ------------  ---------------      ----- ------------  ---------------
    13      4.718147  2 O  s                  2     -2.302644  1 H  s          
    34     -2.062713  3 H  s                 20      0.567540  2 O  px         
     7      0.524106  1 H  px                39      0.494496  3 H  px         
    35     -0.459878  3 H  s                  3     -0.452637  1 H  s          
    40      0.334907  3 H  py                17      0.222897  2 O  px         
 
 Vector   14  Occ=0.000000D+00  E= 2.540921D-01  Symmetry=a"
              MO Center=  5.3D-01,  4.8D-02,  2.5D-15, r^2= 3.9D+00
   Bfn.  Coefficient  Atom+Function         Bfn.  Coefficient  Atom+Function  
  ----- ------------  ---------------      ----- ------------  ---------------
    41      1.141053  3 H  pz                 9     -0.961327  1 H  pz         
    22     -0.112563  2 O  pz                29      0.063132  2 O  d -1       
    24     -0.032852  2 O  d -1       
 
 Vector   15  Occ=0.000000D+00  E= 2.652161D-01  Symmetry=a'
              MO Center= -2.1D-02,  3.0D-02,  1.2D-15, r^2= 5.3D+00
   Bfn.  Coefficient  Atom+Function         Bfn.  Coefficient  Atom+Function  
  ----- ------------  ---------------      ----- ------------  ---------------
    13      4.593536  2 O  s                  2     -2.432088  1 H  s          
    34     -2.144644  3 H  s                 20      1.895402  2 O  px         
     7     -0.683803  1 H  px                17      0.607963  2 O  px         
    21      0.605174  2 O  py                40     -0.596221  3 H  py         
    39     -0.439716  3 H  px                 3     -0.428554  1 H  s          
 
 Vector   16  Occ=0.000000D+00  E= 2.945606D-01  Symmetry=a"
              MO Center=  2.5D-01,  2.2D-01, -8.1D-16, r^2= 4.4D+00
   Bfn.  Coefficient  Atom+Function         Bfn.  Coefficient  Atom+Function  
  ----- ------------  ---------------      ----- ------------  ---------------
     9      1.265075  1 H  pz                22     -1.268799  2 O  pz         
    41      1.024402  3 H  pz                19     -0.519379  2 O  pz         
    16     -0.158723  2 O  pz         
 
 Vector   17  Occ=0.000000D+00  E= 4.144404D-01  Symmetry=a'
              MO Center=  3.9D-01,  1.8D-01, -3.7D-16, r^2= 5.4D+00
   Bfn.  Coefficient  Atom+Function         Bfn.  Coefficient  Atom+Function  
  ----- ------------  ---------------      ----- ------------  ---------------
    21      2.206598  2 O  py                40     -1.900065  3 H  py         
     7      1.666330  1 H  px                 8     -1.358361  1 H  py         
     3     -1.012711  1 H  s                 35      1.007630  3 H  s          
    39     -0.726489  3 H  px                20     -0.618484  2 O  px         
    18      0.245791  2 O  py                34     -0.209030  3 H  s          
 
 Vector   18  Occ=0.000000D+00  E= 4.567818D-01  Symmetry=a'
              MO Center=  9.4D-01, -7.7D-01, -2.3D-16, r^2= 3.9D+00
   Bfn.  Coefficient  Atom+Function         Bfn.  Coefficient  Atom+Function  
  ----- ------------  ---------------      ----- ------------  ---------------
    13      3.893794  2 O  s                 34     -3.710173  3 H  s          
    39      1.987747  3 H  px                12      1.869506  2 O  s          
    40     -1.717063  3 H  py                35     -1.021718  3 H  s          
    17      0.501011  2 O  px                 7      0.442730  1 H  px         
    33     -0.435076  3 H  s                 20      0.405660  2 O  px         
 
 Vector   19  Occ=0.000000D+00  E= 4.860596D-01  Symmetry=a'
              MO Center=  3.2D-01,  1.1D+00, -3.6D-16, r^2= 4.0D+00
   Bfn.  Coefficient  Atom+Function         Bfn.  Coefficient  Atom+Function  
  ----- ------------  ---------------      ----- ------------  ---------------
     2      5.997987  1 H  s                  8     -3.302659  1 H  py         
    34     -3.230791  3 H  s                 13     -2.528756  2 O  s          
    40     -1.554077  3 H  py                 3      1.400213  1 H  s          
    21     -1.196277  2 O  py                12     -1.187144  2 O  s          
    39      1.076950  3 H  px                18     -1.041407  2 O  py         
 
 Vector   20  Occ=0.000000D+00  E= 5.889881D-01  Symmetry=a'
              MO Center=  8.6D-03,  4.5D-03,  3.3D-16, r^2= 4.2D+00
   Bfn.  Coefficient  Atom+Function         Bfn.  Coefficient  Atom+Function  
  ----- ------------  ---------------      ----- ------------  ---------------
    34     -6.476804  3 H  s                  2      6.070761  1 H  s          
    21     -2.291017  2 O  py                 8     -1.873131  1 H  py         
[...]
   15      113.850 ||       0.117              -0.324            -0.000
   16     1613.311 ||      -1.146              -0.413             0.000
   17     3765.781 ||       0.212               0.065            -0.000
   18     3882.083 ||      -0.368               1.030             0.000
 ----------------------------------------------------------------------------



  
  
 ----------------------------------------------------------------------------
 Normal Eigenvalue ||                 Infra Red Intensities
  Mode   [cm**-1]  || [atomic units] [(debye/angs)**2] [(KM/mol)] [arbitrary]
 ------ ---------- || -------------- ----------------- ---------- -----------
    1        0.000 ||    0.000000           0.000         0.000       0.000
    2        0.000 ||    0.000000           0.000         0.000       0.000
    3        0.000 ||    0.000000           0.000         0.000       0.000
    4        0.000 ||    0.000000           0.000         0.000       0.000
    5        0.000 ||    0.000000           0.000         0.000       0.000
    6        0.000 ||    0.000000           0.000         0.000       0.000
    7        0.000 ||    0.000000           0.000         0.000       0.000
    8        0.000 ||    0.000000           0.000         0.000       0.000
    9        0.000 ||    0.000000           0.000         0.000       0.000
   10       43.674 ||    0.122760           2.832       119.673      52.941
   11       57.264 ||    0.073210           1.689        71.369      31.572
   12       65.374 ||    0.036684           0.846        35.761      15.820
   13       72.071 ||    0.000000           0.000         0.000       0.000
   14       82.980 ||    0.061223           1.412        59.683      26.403
   15      113.850 ||    0.005155           0.119         5.026       2.223
   16     1613.311 ||    0.064355           1.485        62.737      27.754
   17     3765.781 ||    0.002130           0.049         2.077       0.919
   18     3882.083 ||    0.051868           1.197        50.563      22.368
 ----------------------------------------------------------------------------



 
 
        Vibrational analysis via the FX method 
  --- with translations and rotations projected out ---
  --- via the Eckart algorithm                      ---
 Projected Nuclear Hessian trans-rot subspace norm:3.0583D-34
                         (should be close to zero!) 

          --------------------------------------------------------
          MASS-WEIGHTED PROJECTED HESSIAN (Hartree/Bohr/Bohr/Kamu)
          --------------------------------------------------------


               1            2            3            4            5            6            7            8            9           10
   ----- ----- ----- ----- -----
    1    8.47789D+01
    2    1.29582D+02  4.84553D+02
    3   -9.24884D-12 -1.59637D-10  3.50123D-01
    4   -2.27054D+01 -2.79026D+01  3.58790D-11  2.96928D+01
    5   -4.33163D+01 -1.15694D+02  5.49688D-12 -4.26794D+00  3.99279D+01
    6    9.98132D-12  9.45912D-11 -1.60976D-01 -1.46354D-11 -1.08082D-11  8.15846D-02
    7    5.69107D+00 -1.78157D+01 -1.43601D-10 -9.52270D+01  5.97809D+01  5.93949D-11  3.73513D+02
    8    4.29257D+01 -2.41303D+01  1.52168D-10  4.46350D+01 -4.29548D+01 -6.27412D-11 -2.20186D+02  1.94860D+02
    9   -4.14735D-11 -2.70624D-10  2.73231D-01  2.67834D-11  4.97341D-11 -1.66077D-01 -1.03255D-10  1.03242D-10  4.30699D-01
   10    1.60038D-04 -4.38648D-04  9.48634D-15 -3.95133D-04  4.37376D-04 -9.82511D-15  2.44880D-04 -4.16661D-04  3.26269D-14  1.14208D-06
   11    4.59977D-05  4.93561D-04 -1.51943D-14  2.87216D-04 -4.30518D-04  1.17194D-14 -1.68166D-04  4.03855D-04 -3.19718D-14 -9.31670D-07
   12    2.13249D-14  1.71705D-13 -1.32168D-04 -3.10806D-14 -1.82704D-14  7.29771D-05  1.06142D-13 -1.00101D-13 -1.71598D-04 -3.06194D-18
   13   -1.05531D-04 -7.45207D-04 -7.63242D-04 -3.70950D-04  6.35335D-04  3.72580D-04  1.34359D-04 -6.75533D-04 -7.07364D-04  1.28487D-06
   14    6.57460D-05  5.16357D-04 -2.40088D-04  2.85417D-04 -4.45239D-04  1.11379D-04 -1.59947D-04  4.23106D-04 -1.96457D-04 -9.42288D-07
   15    6.73235D-15 -1.04510D-15  9.45663D-05  8.62319D-15 -1.01875D-14 -3.32579D-05 -3.68198D-14  4.13828D-14  1.86357D-05 -3.18634D-18
   16   -1.05531D-04 -7.45207D-04  7.63242D-04 -3.70950D-04  6.35335D-04 -3.72580D-04  1.34359D-04 -6.75533D-04  7.07364D-04  1.28487D-06
   17    6.57460D-05  5.16357D-04  2.40088D-04  2.85417D-04 -4.45239D-04 -1.11379D-04 -1.59947D-04  4.23106D-04  1.96457D-04 -9.42288D-07
   18    6.73235D-15 -1.04510D-15  9.45663D-05  8.62319D-15 -1.01875D-14 -3.32579D-05 -3.68198D-14  4.13828D-14  1.86357D-05 -3.18634D-18


              11           12           13           14           15           16           17           18
   ----- ----- ----- ----- -----
   11    8.54137D-07
   12    1.19167D-18  7.71815D-08
   13   -1.15647D-06  3.13656D-07  3.39492D-06
   14    8.70854D-07  1.01149D-07 -6.68981D-07  1.06406D-06
   15    1.63039D-19 -1.78928D-08 -1.78543D-07 -6.19514D-08  3.95677D-08
   16   -1.15647D-06 -3.13656D-07 -7.98580D-08 -1.69938D-06  1.78543D-07  3.39492D-06
   17    8.70854D-07 -1.01149D-07 -1.69938D-06  7.13620D-07  6.19514D-08 -6.68981D-07  1.06406D-06
   18    1.63039D-19 -1.78928D-08 -1.78543D-07 -6.19514D-08  3.95677D-08  1.78543D-07  6.19514D-08  3.95677D-08

 center of mass
 --------------
 x =  -0.12076092 y =   0.06185039 z =   0.00000000

 moments of inertia (a.u.)
 ------------------
           3.937490589162           0.594921672077           0.000000000000
           0.594921672077           2.501025239633           0.000000000000
           0.000000000000           0.000000000000           6.438515828795

 Rotational Constants
 --------------------
 A=  26.327000 cm-1  ( 37.877833 K)
 B=  14.499487 cm-1  ( 20.861061 K)
 C=   9.350008 cm-1  ( 13.452275 K)


 Temperature                      =   298.15K
 frequency scaling parameter      =   1.0000

 Zero-Point correction to Energy  =   13.707 kcal/mol  (  0.021843 au)
 Thermal correction to Energy     =   18.613 kcal/mol  (  0.029662 au)
 Thermal correction to Enthalpy   =   19.205 kcal/mol  (  0.030606 au)

 Total Entropy                    =   89.114 cal/mol-K
   - Translational                =   34.593 cal/mol-K (mol. weight =  18.0106)
   - Rotational                   =   11.884 cal/mol-K (symmetry #  =        1)
   - Vibrational                  =   42.637 cal/mol-K

 Cv (constant volume heat capacity) =   17.802 cal/mol-K
   - Translational                  =    2.979 cal/mol-K
   - Rotational                     =    2.979 cal/mol-K
   - Vibrational                    =   11.843 cal/mol-K



          -------------------------------------------------
          NORMAL MODE EIGENVECTORS IN CARTESIAN COORDINATES
          -------------------------------------------------
             (Projected Frequencies expressed in cm-1)

                    1           2           3           4           5           6
 
 P.Frequency       -0.00       -0.00        0.00        0.00        0.00        0.00
 
           1     0.01713    -0.00000    -0.00000    -0.00000    -0.00696    -0.00059
           2     0.01019     0.00000     0.00000    -0.00000    -0.00508    -0.00143
           3    -0.00000    -0.00357     0.00020    -0.00020    -0.00399     0.00523
           4     0.01222    -0.00000    -0.00000    -0.00000    -0.00451    -0.00041
           5     0.01182     0.00000     0.00000    -0.00000    -0.00590    -0.00149
           6     0.00000    -0.00274    -0.00021     0.00021    -0.00460     0.00365
           7     0.00948     0.00000    -0.00000     0.00000    -0.00315    -0.00031
           8     0.00743     0.00000     0.00000     0.00000    -0.00371    -0.00133
           9    -0.00000    -0.00234    -0.00041     0.00041    -0.00289     0.00275
          10     0.00315     0.00000     0.00000    -0.00000     0.00001     0.00000
          11     0.00000    -0.00000    -0.00000     0.00000     0.00000    -0.00000
          12     0.00000    -0.00316     0.00000    -0.00000     0.00000    -0.00000
          13    -0.00000    -0.00000    -0.00000     0.00000     0.00316     0.00000
          14     0.00000    -0.00000     0.00000    -0.00000    -0.00000    -0.00000
          15    -0.00000     0.00000    -0.00316    -0.00000     0.00000     0.00000
          16    -0.00000     0.00000     0.00000    -0.00000     0.00000    -0.00000
          17     0.00000     0.00000    -0.00000     0.00000     0.00000    -0.00316
          18    -0.00000     0.00000     0.00000     0.00316     0.00000    -0.00000

                    7           8           9          10          11          12
 
 P.Frequency        0.00        0.00        0.00        0.64        1.06       31.44
 
           1     0.00120    -0.00059    -0.00696     0.23396     0.00000    -0.46486
           2    -0.00030    -0.00143    -0.00508     0.14669     0.00000     0.24218
           3    -0.00000    -0.00523     0.00399     0.00000    -0.29422     0.00000
           4     0.00083    -0.00041    -0.00451     0.16304     0.00000    -0.12807
           5    -0.00018    -0.00149    -0.00589     0.17031     0.00000     0.12990
           6     0.00000    -0.00365     0.00460     0.00000    -0.23468     0.00000
           7     0.00063    -0.00031    -0.00314     0.12347     0.00000     0.05983
           8    -0.00050    -0.00133    -0.00370     0.10693     0.00000     0.43102
           9    -0.00000    -0.00275     0.00290     0.00000    -0.17391    -0.00000
          10    -0.00000     0.00000     0.00001    -0.00023     0.00000     0.00001
          11    -0.00316    -0.00000     0.00000     0.00001    -0.00000    -0.00001
          12     0.00000     0.00000    -0.00000    -0.00000     0.00004     0.00000
          13     0.00000    -0.00000    -0.00000     0.00010    -0.00006     0.00001
          14     0.00000    -0.00316    -0.00000    -0.00002     0.00005    -0.00001
          15    -0.00000     0.00000    -0.00000    -0.00000     0.00000    -0.00000
          16     0.00000    -0.00000     0.00316     0.00010     0.00006     0.00001
          17     0.00000     0.00000     0.00000    -0.00002    -0.00005    -0.00001
          18    -0.00000    -0.00000    -0.00000    -0.00000     0.00000    -0.00000

                   13          14          15          16          17          18
 
 P.Frequency       55.26       95.18      140.48     1617.54     3766.70     3884.41
 
           1     0.00000    -0.47819    -0.00000    -0.64455     0.17206     0.21746
           2     0.00000     0.08832    -0.00000     0.20967     0.65709     0.65451
           3    -0.72181    -0.00000     0.62013    -0.00000    -0.00000     0.00000
           4     0.00000     0.11242    -0.00000     0.06351    -0.04678     0.02203
           5     0.00000    -0.10778    -0.00000     0.02291    -0.01567    -0.06357
           6     0.02531    -0.00000    -0.08202     0.00000     0.00000    -0.00000
           7     0.00000     0.44183    -0.00000    -0.36435     0.57045    -0.56562
           8     0.00000     0.41902     0.00000    -0.57248    -0.40844     0.35327
           9     0.67901    -0.00000     0.70774    -0.00000    -0.00000     0.00000
          10    -0.00000    -0.00001     0.00000    -0.00000     0.00000    -0.00000
          11     0.00000     0.00000    -0.00000    -0.00000     0.00000     0.00000
          12    -0.00000     0.00000    -0.00000     0.00000     0.00000    -0.00000
          13     0.00000    -0.00001    -0.00000     0.00000    -0.00000    -0.00000
          14     0.00000     0.00000    -0.00000    -0.00000     0.00000     0.00000
          15    -0.00000    -0.00000     0.00000     0.00000     0.00000     0.00000
          16    -0.00000    -0.00001     0.00000     0.00000    -0.00000    -0.00000
          17    -0.00000     0.00000     0.00000    -0.00000     0.00000     0.00000
          18    -0.00000     0.00000     0.00000    -0.00000     0.00000    -0.00000



 ----------------------------------------------------------------------------
 Normal Eigenvalue ||    Projected Derivative Dipole Moments (debye/angs)
  Mode   [cm**-1]  ||      [d/dqX]             [d/dqY]           [d/dqZ]
 ------ ---------- || ------------------ ------------------ -----------------
    1       -0.000 ||       0.003              -0.009            -0.000
    2       -0.000 ||      -0.000               0.000            -0.001
    3        0.000 ||       0.000              -0.000             0.000
    4        0.000 ||      -0.000               0.000            -0.000
    5        0.000 ||      -0.002               0.005             0.003
    6        0.000 ||      -0.000               0.000             0.001
    7        0.000 ||       0.000              -0.001            -0.000
    8        0.000 ||      -0.000               0.000            -0.001
    9        0.000 ||      -0.002               0.005            -0.003
   10        0.642 ||       0.047              -0.131             0.000
   11        1.056 ||       0.000              -0.000             0.001
   12       31.436 ||      -0.225               0.624            -0.000
   13       55.265 ||      -0.000               0.000            -0.141
   14       95.183 ||      -0.394               1.092            -0.000
   15      140.476 ||      -0.000               0.000             2.252
   16     1617.540 ||      -1.146              -0.413             0.000
   17     3766.699 ||       0.215               0.059            -0.000
   18     3884.405 ||      -0.367               1.031             0.000
 ----------------------------------------------------------------------------



  
  
 ----------------------------------------------------------------------------
 Normal Eigenvalue ||           Projected Infra Red Intensities
  Mode   [cm**-1]  || [atomic units] [(debye/angs)**2] [(KM/mol)] [arbitrary]
 ------ ---------- || -------------- ----------------- ---------- -----------
    1       -0.000 ||    0.000004           0.000         0.004       0.002
    2       -0.000 ||    0.000000           0.000         0.000       0.000
    3        0.000 ||    0.000000           0.000         0.000       0.000
    4        0.000 ||    0.000000           0.000         0.000       0.000
    5        0.000 ||    0.000002           0.000         0.001       0.001
    6        0.000 ||    0.000000           0.000         0.000       0.000
    7        0.000 ||    0.000000           0.000         0.000       0.000
    8        0.000 ||    0.000000           0.000         0.000       0.000
    9        0.000 ||    0.000002           0.000         0.001       0.001
   10        0.642 ||    0.000842           0.019         0.821       0.363
   11        1.056 ||    0.000000           0.000         0.000       0.000
   12       31.436 ||    0.019079           0.440        18.599       8.228
   13       55.265 ||    0.000863           0.020         0.841       0.372
   14       95.183 ||    0.058378           1.347        56.909      25.176
   15      140.476 ||    0.219803           5.071       214.275      94.791
   16     1617.540 ||    0.064335           1.484        62.717      27.745
   17     3766.699 ||    0.002158           0.050         2.104       0.931
   18     3884.405 ||    0.051920           1.198        50.614      22.391
 ----------------------------------------------------------------------------



 vib:animation  F

 Task  times  cpu:        3.2s     wall:        3.2s
 
 
                                NWChem Input Module
                                -------------------
 
 
 Summary of allocated global arrays
-----------------------------------
  No active global arrays


MA_summarize_allocated_blocks: starting scan ...
MA_summarize_allocated_blocks: scan completed: 0 heap blocks, 0 stack blocks
MA usage statistics:

	allocation statistics:
					      heap	     stack
					      ----	     -----
	current number of blocks	         0	         0
	maximum number of blocks	        26	        62
	current total bytes		         0	         0
	maximum total bytes		   3821240	  80203928
	maximum total K-bytes		      3822	     80204
	maximum total M-bytes		         4	        81
 
 
                                     CITATION
                                     --------
                Please cite the following reference when publishing
                           results obtained with NWChem:
 
          E. Apra, E. J. Bylaska, W. A. de Jong, N. Govind, K. Kowalski,
       T. P. Straatsma, M. Valiev, H. J. J. van Dam, Y. Alexeev, J. Anchell,
       V. Anisimov, F. W. Aquino, R. Atta-Fynn, J. Autschbach, N. P. Bauman,
     J. C. Becca, D. E. Bernholdt, K. Bhaskaran-Nair, S. Bogatko, P. Borowski,
         J. Boschen, J. Brabec, A. Bruner, E. Cauet, Y. Chen, G. N. Chuev,
      C. J. Cramer, J. Daily, M. J. O. Deegan, T. H. Dunning Jr., M. Dupuis,
   K. G. Dyall, G. I. Fann, S. A. Fischer, A. Fonari, H. Fruchtl, L. Gagliardi,
      J. Garza, N. Gawande, S. Ghosh, K. Glaesemann, A. W. Gotz, J. Hammond,
       V. Helms, E. D. Hermes, K. Hirao, S. Hirata, M. Jacquelin, L. Jensen,
   B. G. Johnson, H. Jonsson, R. A. Kendall, M. Klemm, R. Kobayashi, V. Konkov,
      S. Krishnamoorthy, M. Krishnan, Z. Lin, R. D. Lins, R. J. Littlefield,
      A. J. Logsdail, K. Lopata, W. Ma, A. V. Marenich, J. Martin del Campo,
   D. Mejia-Rodriguez, J. E. Moore, J. M. Mullin, T. Nakajima, D. R. Nascimento,
    J. A. Nichols, P. J. Nichols, J. Nieplocha, A. Otero-de-la-Roza, B. Palmer,
    A. Panyala, T. Pirojsirikul, B. Peng, R. Peverati, J. Pittner, L. Pollack,
   R. M. Richard, P. Sadayappan, G. C. Schatz, W. A. Shelton, D. W. Silverstein,
   D. M. A. Smith, T. A. Soares, D. Song, M. Swart, H. L. Taylor, G. S. Thomas,
            V. Tipparaju, D. G. Truhlar, K. Tsemekhman, T. Van Voorhis,
      A. Vazquez-Mayagoitia, P. Verma, O. Villa, A. Vishnu, K. D. Vogiatzis,
        D. Wang, J. H. Weare, M. J. Williamson, T. L. Windus, K. Wolinski,
        A. T. Wong, Q. Wu, C. Yang, Q. Yu, M. Zacharias, Z. Zhang, Y. Zhao,
                                and R. J. Harrison
                        "NWChem: Past, present, and future
                         J. Chem. Phys. 152, 184102 (2020)
                               doi:10.1063/5.0004997
 
                                      AUTHORS
                                      -------
        E. Apra, E. J. Bylaska, N. Govind, K. Kowalski, D. Mejia-Rodriguez,
        N. P. Bauman, A. Panyala, R. J. Harrison, M. Valiev, W. A. de Jong,
       T. P. Straatsma, H. J. J. van Dam, D. Wang, T. L. Windus, J. Hammond,
     J. Autschbach, R. de P. Soares, A. Kunitsa, K. Bhaskaran-Nair, J. Brabec,
      K. Lopata, S. A. Fischer, S. Krishnamoorthy, M. Jacquelin, R. Goswami,
       A. Woods, W. Ma, M. Klemm, O. Villa, Y. Chen, V. Anisimov, F. Aquino,
     S. Hirata, M. T. Hackler, E. Hermes, L. Jensen, J. E. Moore, J. C. Becca,
      V. Konjkov, T. Risthaus, M. Malagoli, A. Marenich, A. Otero-de-la-Roza,
        J. Mullin, P. Nichols, R. Peverati, J. Pittner, Y. Zhao, P.-D. Fan,
        A. Fonari, M. J. Williamson, J. R. Rehr, M. Dupuis, D. Silverstein,
    D. M. A. Smith, J. Nieplocha, V. Tipparaju, M. Krishnan, B. E. Van Kuiken,
        A. Vazquez-Mayagoitia, M. Swart, Q. Wu, T. Van Voorhis, A. A. Auer,
     M. Nooijen, L. D. Crosby, E. Brown, G. Cisneros, G. I. Fann, H. Fruchtl,
   J. Garza, K. Hirao, R. A. Kendall, J. A. Nichols, K. Tsemekhman, K. Wolinski,
     J. Anchell, D. E. Bernholdt, P. Borowski, T. Clark, D. Clerc, H. Dachsel,
   M. J. O. Deegan, K. Dyall, D. Elwood, E. Glendening, M. Gutowski, A. C. Hess,
         J. Jaffe, B. G. Johnson, J. Ju, R. Kobayashi, R. Kutteh, Z. Lin,
   R. Littlefield, X. Long, B. Meng, T. Nakajima, S. Niu, L. Pollack, M. Rosing,
   K. Glaesemann, G. Sandrone, M. Stave, H. Taylor, G. Thomas, J. H. van Lenthe,
                               A. T. Wong, Z. Zhang.

 Total times  cpu:        9.8s     wall:        9.8s
