 argument  1 = spce.nw
                                         
                                         


             Northwest Computational Chemistry Package (NWChem) 5.1.1
             --------------------------------------------------------


                    Environmental Molecular Sciences Laboratory
                       Pacific Northwest National Laboratory
                                Richland, WA 99352

                                         
                                         


                  COPYRIGHT (C) 1994, 1995, 1996, 1997, 1998, 1999,
                2000, 2001, 2002, 2003, 2004, 2005, 2006, 2007, 2008,
                                     2009, 2010
                        Pacific Northwest National Laboratory,
                             Battelle Memorial Institute.

                            >>> All Rights Reserved <<<


                                    DISCLAIMER
                                    ----------

            This material was prepared as an account of work sponsored
            by an agency of the United States Government.  Neither the
            United States Government nor the United States Department
            of Energy, nor Battelle, nor any of their employees, MAKES
            ANY WARRANTY, EXPRESS OR IMPLIED, OR ASSUMES ANY LEGAL
            LIABILITY OR RESPONSIBILITY FOR THE ACCURACY, COMPLETENESS,
            OR USEFULNESS OF ANY INFORMATION, APPARATUS, PRODUCT,
            SOFTWARE, OR PROCESS DISCLOSED, OR REPRESENTS THAT ITS USE
            WOULD NOT INFRINGE PRIVATELY OWNED RIGHTS.


                                    LIMITED USE
                                    -----------

            This software (including any documentation) is being made
            available to you for your internal use only, solely for use
            in performance of work directly for the U.S. Federal
            Government or work under contracts with the U.S. Department
            of Energy or other U.S. Federal Government agencies.  This
            software is a version which has not yet been evaluated and
            cleared for commercialization.  Adherence to this notice
            may be necessary for the author, Battelle Memorial
            Institute, to successfully assert copyright in and
            commercialize this software. This software is not intended
            for duplication or distribution to third parties without
            the permission of the Manager of Software Products at
            Pacific Northwest National Laboratory, Richland,
            Washington, 99352.


                                  ACKNOWLEDGMENT
                                  --------------

            This software and its documentation were produced with
            Government support under Contract Number DE-AC05-76RL01830
            awarded by the United States Department of Energy.  The
            Government retains a paid-up non-exclusive, irrevocable
            worldwide license to reproduce, prepare derivative works,
            perform publicly and display publicly by or for the
            Government, including the right to distribute to other
            Government contractors.


           Job information
           ---------------

    hostname      = swift
    program       = nwchem
    date          = Tue Apr 13 10:42:10 2010

    compiled      = Tue_Apr_13_10:42:04_2010
    source        = /home/marat/codes/nwchem-dev
    nwchem branch = Development
    input         = spce.nw
    prefix        = test.
    data base     = /home/marat/codes/nwchem-dev/src/smd/test/spce-fragment/perm/test.db
    status        = startup
    nproc         =        2
    time left     =     -1s



           Memory information
           ------------------

    heap      =   65536001 doubles =    500.0 Mbytes
    stack     =   65536001 doubles =    500.0 Mbytes
    global    =  131072000 doubles =   1000.0 Mbytes (distinct from heap & stack)
    total     =  262144002 doubles =   2000.0 Mbytes
    verify    = yes
    hardfail  = no 


           Directory information
           ---------------------

  0 permanent = /home/marat/codes/nwchem-dev/src/smd/test/spce-fragment/perm
  0 scratch   = ./data




                                NWChem Input Module
                                -------------------


 in smd_input_vel                   
 current tokeninput                                                                                                                                                                                                                                                                              2                    5
 current tokenoutput                                                                                                                                                                                                                                                                             4                    5
 found task fragment
 initializing fragment
 in smd_atom_init                   
Array Handle=-997 Name:'coordinates' Data Type:double
Array Dimensions:2304
Process=0	 owns array section: [1:1152] 
Process=1	 owns array section: [1153:2304] 

 global array: coordinates[1:2304],  handle: -997 
   1       7.66200
   2      -3.72400
   3      -2.05800
   4       6.89200
   5      -3.43300
   6      -2.62600
   7       8.38100
   8      -3.03100
   9      -2.09000
  10       5.62500
  11       4.81200
  12      -0.41400
  13       4.93200
  14       4.13800
  15      -0.66800
  16       5.80300
  17       5.41600
  18      -1.19000
  19       6.91200
  20      -2.56500
  21       5.44400
  22       7.86300
  23      -2.52600
  24       5.75100
  25       6.50900
  26      -3.43700
  27       5.72000
  28      -0.72800
  29       1.61000
  30      -7.09200
  31      -1.34000
  32       1.80600
  33      -7.85800
  34       0.12300
  35       2.12200
  36      -7.20600
  37      -1.66800
  38       9.07200
  39       0.49800
  40      -2.27100
  41       9.78000
  42       0.12900
  43      -1.02200
  44       9.48600
  45       1.13900
  46      -1.86500
  47       5.25800
  48      -5.36100
  49      -1.89400
  50       5.39400
  51      -6.35100
  52      -1.92400
  53       4.28100
  54      -5.15600
  55      -6.95200
  56       4.95400
  57       0.21300
  58      -6.72300
  59       4.46100
  60      -0.62700
  61      -7.36600
  62       5.83400
  63      -0.02000
  64       0.23900
  65      -5.97600
  66       8.96900
  67       0.31700
  68      -6.75600
  69       9.59000
  70       1.13300
  71      -5.78100
  72       8.56600
  73       0.65900
  74       1.98900
  75      -1.08200
  76       1.46600
  77       1.45100
  78      -1.32500
  79       0.87300
  80       2.96300
  81      -1.15700
  82       2.53900
  83       0.36600
  84      -1.90000
  85       3.42400
  86      -0.03300
  87      -1.66100
  88       1.82100
  89      -0.32100
  90      -1.78400
  91      -6.30700
  92       1.71300
  93      -2.74900
  94      -7.07800
  95       1.20100
  96      -2.36900
  97      -6.35400
  98       2.66300
  99      -2.44100
 100      -3.83100
 101       0.43200
 102      -0.49100
 103      -3.01200
 104       0.88700
 105      -0.14000
 106      -4.01900
 107       0.75300
 108      -1.41900
 109       5.51700
 110       7.77100
 111      -8.96000
 112       6.27600
 113       7.33100
 114      -9.44100
 115       5.53600
 116       7.50700
 117      -7.99500
 118      -7.16300
 119      -9.41400
 120      -7.20700
 121      -8.02300
 122      -9.35200
 123      -6.70100
 124      -7.07900
 125       9.33700
 126      -7.61100
 127      -4.52100
 128      -2.58700
 129      -8.77800
 130      -4.69700
 131      -1.72800
 132      -8.29700
 133      -3.86500
 134      -2.42800
 135      -9.51600
 136       1.25200
 137      -6.31500
 138      -7.68600
 139       1.35200
 140      -5.52000
 141      -7.08800
 142       0.56300
 143      -6.93300
 144      -7.30700
 145       0.49100
 146       5.09500
 147      -1.14500
 148       1.04400
 149       5.73400
 150      -0.61000
 151      -0.60900
 152       5.60400
 153      -1.80500
 154       9.39600
 155      -0.13700
 156       6.96600
 157       9.48000
 158      -1.11300
 159       6.76400
 160       8.49600
 161       0.45300
 162       7.36100
 163      -5.60200
 164      -8.49300
 165       8.73300
 166      -5.38200
 167      -8.33000
 168       9.69500
 169      -4.92400
 170      -8.03800
 171       8.15600
 172       1.32900
 173       7.11800
 174      -7.90000
 175       1.98700
 176       7.84400
 177      -8.10000
 178       1.77900
 179       6.22900
 180      -7.97700
 181      -3.14300
 182       6.26300
 183       8.60900
 184      -2.28700
 185       5.83600
 186       8.31800
 187      -2.97400
 188       7.21900
 189       8.84700
 190       2.14100
 191       5.35300
 192       7.62400
 193       3.10400
 194       5.36500
 195       7.35500
 196       1.62000
 197       4.79700
 198       6.97700
 199      -1.32700
 200       1.77300
 201      -2.72100
 202      -0.65800
 203       1.95500
 204      -2.00100
 205      -1.26800
 206       0.81400
 207      -2.99800
 208      -9.31200
 209       8.62700
 210       5.80500
 211       9.59700
 212       8.57900
 213       5.14700
 214      -9.66600
 215       8.46800
 216       6.72700
 217      -3.92500
 218      -8.19200
 219      -4.39500
 220      -4.28500
 221      -7.26600
 222      -4.28100
 223      -3.19900
 224      -8.35200
 225      -3.72600
 226       0.41700
 227      -9.35700
 228       1.71900
 229       1.25400
 230      -8.93200
 231       1.37400
 232      -0.11700
 233      -8.67900
 234       2.22500
 235      -7.38300
 236      -0.64600
 237      -7.87900
 238      -6.64600
 239       0.02400
 240      -7.78800
 241      -7.66100
 242      -0.70600
 243      -8.83800
 244       9.39900
 245      -0.81500
 246       1.68000
 247       9.44200
 248       0.18100
 249       1.60300
 250      -9.39700
 251      -1.21100
 252       1.37400
 253      -6.53600
 254       4.28400
 255      -2.30800
 256      -5.76400
 257       4.86400
 258      -2.56700
 259      -7.26600
 260       4.37800
 261      -2.98500
 262       4.25600
 263       7.22000
 264       2.15300
 265       5.01800
 266       6.57600
 267       2.08300
 268       3.69600
 269       7.16500
 270       1.32600
 271       6.92200
 272       2.75100
 273       3.12700
 274       6.33000
 275       1.99000
 276       2.86100
 277       7.60100
 278       2.43000
 279       3.78700
 280      -7.99400
 281       4.74600
 282      -7.94900
 283      -7.00600
 284       4.89900
 285      -7.97200
 286      -8.19800
 287       3.97300
 288      -7.34900
 289      -5.69200
 290       8.97100
 291      -1.13100
 292      -5.72500
 293       9.17300
 294      -2.11000
 295      -4.92900
 296       8.35300
 297      -0.94400
 298      -3.16100
 299      -4.56500
 300      -7.38900
 301      -2.85300
 302      -5.04800
 303      -8.20900
 304      -3.41900
 305      -3.63000
 306      -7.63100
 307       9.29000
 308       4.36600
 309      -2.06000
 310       8.49200
 311       4.13800
 312      -2.61900
 313      -9.57000
 314       4.46600
 315      -2.64800
 316      -2.93800
 317      -9.04900
 318      -6.66200
 319      -3.40400
 320      -8.79300
 321      -5.81500
 322      -3.04300
 323       9.63000
 324      -6.81600
 325      -0.29100
 326       3.30900
 327       3.58500
 328      -1.07300
 329       3.87700
 330       3.32800
 331      -0.43700
 332       2.37400
 333       3.26100
 334       8.59500
 335      -8.79100
 336       0.09100
 337       9.35500
 338      -8.32700
 339      -0.36500
 340       8.55700
 341      -8.50700
 342       1.04900
 343      -6.99100
 344       2.10700
 345      -6.30100
 346      -7.87100
 347       1.80800
 348      -6.67000
 349      -6.74700
 350       1.53700
 351      -5.51700
 352       0.78200
 353      -6.03000
 354       3.56700
 355       0.74000
 356      -5.72700
 357       2.61500
 358       0.14400
 359      -6.78700
 360       3.70400
 361      -4.81300
 362       9.43400
 363       4.77900
 364      -4.17500
 365       9.55700
 366       5.53900
 367      -4.44800
 368       8.75300
 369       4.14400
 370      -1.60800
 371      -0.88400
 372      -3.75000
 373      -1.85600
 374      -1.66100
 375      -3.17000
 376      -2.37100
 377      -0.66700
 378      -4.35900
 379       1.51900
 380      -1.26700
 381       7.50200
 382       0.69300
 383      -0.71100
 384       7.41400
 385       1.47100
 386      -2.03900
 387       6.86800
 388      -2.44100
 389       4.39400
 390       2.69600
 391      -3.31100
 392       3.97200
 393       2.44400
 394      -2.22100
 395       5.11900
 396       2.04400
 397       6.81200
 398       1.59800
 399      -0.14800
 400       6.06800
 401       2.23600
 402      -0.34700
 403       6.43300
 404       0.74400
 405       0.20800
 406       9.66000
 407      -2.25100
 408      -1.88000
 409      -9.64600
 410      -3.15300
 411      -1.63400
 412      -9.47300
 413      -1.54500
 414      -1.41000
 415      -1.50800
 416      -6.10200
 417      -0.66600
 418      -1.50800
 419      -5.14200
 420      -0.38400
 421      -2.44900
 422      -6.43900
 423      -0.70000
 424      -8.64400
 425       0.59100
 426       4.82200
 427      -9.49400
 428      -0.96800
 429       5.32500
 430      -8.55200
 431       1.03300
 432       4.61700
 433      -4.37500
 434      -3.31300
 435      -3.13500
 436      -4.66500
 437      -2.61200
 438      -3.78600
 439      -4.53500
 440      -2.98900
 441      -2.20300
 442       8.39100
 443      -6.94300
 444       4.79700
 445       8.01000
 446      -7.48100
 447       5.54900
 448       9.37800
 449      -7.09000
 450       4.74900
 451      -0.78400
 452       6.89300
 453       3.71200
 454       0.51500
 455       7.30800
 456       3.35200
 457      -1.16100
 458       6.26100
 459       3.03500
 460       1.24100
 461       7.83700
 462       2.49900
 463       1.91500
 464       7.57700
 465       1.80800
 466       0.97400
 467       8.79100
 468       2.36200
 469       6.84200
 470       0.26400
 471       7.90100
 472       6.58000
 473       1.02600
 474       8.49400
 475       6.30600
 476       0.29800
 477       7.05800
 478      -1.42500
 479      -8.03800
 480      -2.67700
 481      -1.29900
 482      -7.34800
 483      -1.96400
 484      -0.70400
 485      -7.94300
 486      -3.36400
 487       5.38100
 488       4.82900
 489       5.91600
 490       5.20300
 491       5.80500
 492       5.79400
 493       6.31600
 494       4.62300
 495       5.62800
 496       5.73500
 497      -5.96000
 498      -6.03400
 499       5.77000
 500      -6.39700
 501      -6.93300
 502       6.17200
 503      -5.06200
 504      -6.08300
 505       7.72600
 506       6.69600
 507       9.31600
 508       8.10400
 509       7.13900
 510      -9.53300
 511       8.10500
 512       5.77400
 513       9.23300
 514      -6.69500
 515      -1.20500
 516       6.48500
 517      -7.37800
 518      -0.83900
 519       5.85200
 520      -6.16300
 521      -1.91600
 522       6.02600
 523       5.21800
 524      -1.40600
 525       3.45100
 526       4.28100
 527      -1.72400
 528       3.59500
 529       5.81800
 530      -1.81200
 531       4.14000
 532       1.30400
 533       9.16100
 534      -2.25100
 535       1.77300
 536      -9.76000
 537      -1.77000
 538       0.32500
 539       9.19800
 540      -2.04700
 541       5.00500
 542      -9.11200
 543      -6.96300
 544       5.67500
 545      -9.74500
 546      -6.57700
 547       4.09000
 548      -9.35600
 549      -6.64100
 550       6.04400
 551       6.84800
 552      -2.26700
 553       6.73500
 554       7.52300
 555      -2.00800
 556       5.13300
 557       7.24700
 558      -2.16400
 559       9.40800
 560       7.06200
 561      -8.35400
 562       9.51100
 563       7.98200
 564      -7.97400
 565      -9.35100
 566       6.66300
 567      -8.51200
 568       9.04400
 569       4.95200
 570      -6.74600
 571       9.43700
 572       5.68900
 573      -7.29400
 574       8.62100
 575       5.33500
 576      -5.92500
 577      -3.76300
 578      -8.84100
 579       2.70200
 580      -4.05800
 581      -9.48000
 582       3.41400
 583      -4.36800
 584      -8.92200
 585       1.91000
 586       2.08600
 587       2.57200
 588      -3.79700
 589       1.70200
 590       2.04800
 591      -3.03700
 592       2.92000
 593       2.12600
 594      -4.12200
 595      -1.49400
 596       1.40400
 597       0.38700
 598      -0.60900
 599       1.46100
 600      -0.07600
 601      -1.35000
 602       1.31900
 603       1.37300
 604       2.06600
 605       1.00000
 606       4.81500
 607       2.35900
 608       0.75700
 609       4.57200
 610       2.84100
 611       1.62700
 612       4.73700
 613       3.58900
 614      -0.62000
 615      -9.13300
 616       4.02300
 617      -0.82100
 618       9.65000
 619       2.67000
 620      -0.25800
 621      -9.29100
 622      -6.25300
 623      -6.25300
 624       6.42400
 625      -6.51200
 626      -6.11800
 627       7.38100
 628      -5.42500
 629      -6.81100
 630       6.37900
 631      -2.89800
 632      -4.52900
 633       4.02600
 634      -3.05200
 635      -5.01800
 636       3.16800
 637      -2.13800
 638      -4.95400
 639       4.52000
 640       6.87100
 641       4.40900
 642      -3.21200
 643       6.38800
 644       5.21200
 645      -2.86200
 646       6.23600
 647       3.63800
 648      -3.27000
 649      -8.67800
 650      -7.81400
 651      -1.09200
 652      -8.63000
 653      -8.10500
 654      -2.04700
 655      -7.92800
 656      -7.18200
 657      -0.89700
 658      -8.39200
 659       8.78600
 660       1.62400
 661      -9.21300
 662       9.03400
 663       2.13800
 664      -7.70700
 665       8.41500
 666       2.25100
 667       1.44600
 668      -3.64400
 669       5.84600
 670       0.83500
 671      -4.35000
 672       5.48700
 673       1.86600
 674      -3.96600
 675       6.69400
 676      -2.67700
 677      -2.18700
 678       2.88800
 679      -3.56500
 680      -1.74400
 681       3.01000
 682      -2.59900
 683      -2.95900
 684       3.51900
 685      -4.15000
 686       5.18700
 687      -3.03400
 688      -3.55900
 689       5.42200
 690      -3.80600
 691      -3.62100
 692       4.68400
 693      -2.35000
 694       0.25300
 695      -8.20700
 696      -9.51200
 697       0.79100
 698      -7.54300
 699      -8.99200
 700      -0.34800
 701      -8.70900
 702      -8.89000
 703       0.70100
 704      -5.29900
 705       0.67300
 706      -0.08800
 707      -5.60500
 708       0.14000
 709       0.81100
 710      -4.31000
 711       0.56900
 712       3.46400
 713       8.26200
 714      -4.50100
 715       3.84200
 716       9.08800
 717      -4.08200
 718       2.46900
 719       8.26200
 720      -4.39900
 721       3.66500
 722      -8.25900
 723      -9.11800
 724       3.42900
 725      -7.29000
 726      -9.04800
 727       4.17100
 728      -8.53800
 729      -8.30100
 730      -8.18300
 731      -0.04100
 732      -1.37200
 733      -7.65000
 734      -0.68700
 735      -0.82700
 736      -8.59100
 737       0.64600
 738      -0.77100
 739      -3.98000
 740      -1.04600
 741      -5.25000
 742      -4.75800
 743      -1.64000
 744      -5.45000
 745      -4.29800
 746      -0.10300
 747      -5.14700
 748       0.76200
 749      -2.57100
 750       0.01600
 751       0.90900
 752      -2.37700
 753      -0.95400
 754      -0.20100
 755      -2.79500
 756       0.16800
 757       1.01400
 758      -1.84200
 759      -2.45800
 760       1.58500
 761      -2.02000
 762      -3.26000
 763       0.05700
 764      -2.02400
 765      -2.68400
 766       4.09000
 767      -3.01800
 768      -7.57800
 769       5.06700
 770      -3.16500
 771      -7.42200
 772       3.95900
 773      -2.18300
 774      -8.11300
 775      -7.54600
 776      -5.96300
 777       4.24900
 778      -7.18400
 779      -6.42800
 780       5.05700
 781      -7.52000
 782      -6.58400
 783       3.46600
 784      -2.30700
 785      -5.13900
 786       9.50600
 787      -1.34300
 788      -5.19900
 789       9.24600
 790      -2.80700
 791      -4.61900
 792       8.81300
 793       5.22500
 794      -8.47900
 795       2.02200
 796       5.71500
 797      -7.62000
 798       2.17100
 799       5.51200
 800      -9.14900
 801       2.70600
 802       5.93900
 803       3.55300
 804      -7.81100
 805       6.58300
 806       4.03500
 807      -7.21700
 808       5.15100
 809       4.14100
 810      -7.99500
 811      -7.49200
 812      -2.13600
 813       3.66100
 814      -8.01900
 815      -2.86000
 816       4.10600
 817      -7.91200
 818      -1.25000
 819       3.85700
 820       8.65300
 821       6.74700
 822       1.92000
 823       7.84800
 824       6.29500
 825       2.30400
 826       8.68900
 827       6.58400
 828       0.93400
 829      -3.99700
 830       8.68000
 831      -4.77700
 832      -3.36200
 833       8.64700
 834      -4.00500
 835      -4.77300
 836       9.26700
 837      -4.54600
 838       9.03900
 839       9.19300
 840       8.11800
 841       8.44100
 842       8.63900
 843       8.69700
 844       9.78900
 845       9.56000
 846       8.66800
 847      -5.90600
 848      -3.00600
 849      -5.77400
 850      -5.73900
 851      -3.83200
 852      -6.31300
 853      -6.76700
 854      -3.10300
 855      -5.27500
 856      -8.32400
 857      -5.64600
 858      -8.35600
 859      -7.56900
 860      -5.35900
 861      -7.76700
 862      -8.84900
 863      -4.84400
 864      -8.63900
 865      -7.62300
 866      -2.00400
 867       0.73000
 868      -7.21500
 869      -2.14600
 870       1.63200
 871      -7.91000
 872      -2.88400
 873       0.35200
 874      -3.11100
 875      -1.23400
 876       9.08200
 877      -2.40600
 878      -0.73900
 879       9.58900
 880      -3.73200
 881      -0.58000
 882       8.65000
 883      -8.23200
 884       5.20100
 885      -4.33400
 886      -8.63100
 887       4.66100
 888      -5.07600
 889      -7.71200
 890       5.96300
 891      -4.72000
 892      -9.04100
 893      -8.60500
 894       9.07700
 895      -8.46500
 896      -8.20700
 897       8.36300
 898      -8.51100
 899      -8.69500
 900      -9.74100
 901      -3.82300
 902       3.39900
 903       8.42800
 904      -3.84800
 905       3.28900
 906       7.43400
 907      -3.77900
 908       4.37200
 909       8.65600
 910      -3.09900
 911       7.55100
 912      -7.33000
 913      -2.29500
 914       7.04400
 915      -7.64000
 916      -3.05100
 917       7.68100
 918      -6.34000
 919       8.13600
 920      -1.73000
 921      -8.58800
 922       7.42200
 923      -1.89200
 924      -9.27000
 925       8.54200
 926      -0.82800
 927      -8.73800
 928       2.12900
 929       4.23200
 930       2.66800
 931       1.71100
 932       5.05800
 933       2.29000
 934       1.41400
 935       3.62300
 936       3.01100
 937       8.28100
 938       1.95600
 939       5.56800
 940       7.60500
 941       1.32000
 942       5.19600
 943       8.88200
 944       1.47200
 945       6.20200
 946      -4.97000
 947       3.83100
 948       1.64600
 949      -5.82900
 950       4.29700
 951       1.43800
 952      -5.12400
 953       2.84400
 954       1.67400
 955      -7.87200
 956       3.52100
 957       8.93300
 958      -7.66600
 959       3.62700
 960      -9.75600
 961      -7.09500
 962       3.84300
 963       8.39100
 964      -5.43200
 965      -8.71700
 966       0.67300
 967      -5.91000
 968      -9.34300
 969       0.05600
 970      -6.10000
 971      -8.15900
 972       1.16500
 973       5.46900
 974       6.97300
 975      -6.46600
 976       4.85500
 977       7.32200
 978      -5.75900
 979       6.35600
 980       6.75500
 981      -6.05900
 982       2.79100
 983       7.56000
 984      -0.36700
 985       2.26600
 986       7.69700
 987      -1.20700
 988       3.61200
 989       8.13100
 990      -0.39000
 991      -7.00600
 992      -6.98100
 993      -4.56000
 994      -7.79500
 995      -6.38500
 996      -4.71200
 997      -6.41400
 998      -6.96300
 999      -5.36500
1000       8.00300
1001      -1.93100
1002      -4.20900
1003       8.71400
1004      -2.11800
1005      -3.53100
1006       8.12600
1007      -1.00800
1008      -4.57500
1009       5.85100
1010      -0.80200
1011      -1.87200
1012       5.51300
1013      -1.52200
1014      -2.47900
1015       6.10100
1016      -1.20000
1017      -0.98900
1018      -0.76800
1019       0.86200
1020       8.81200
1021      -1.39700
1022       1.61000
1023       9.02500
1024      -0.79100
1025       0.67600
1026       7.83000
1027       8.97600
1028       6.60000
1029      -0.70900
1030       8.87800
1031       5.64800
1032      -0.99900
1033      -9.73500
1034       6.88800
1035      -0.82600
1036       2.09500
1037       4.96800
1038      -5.08500
1039       2.22600
1040       4.29600
1041      -4.35600
1042       2.85500
1043       5.61800
1044      -5.08000
1045       4.28100
1046       2.70800
1047      -1.24100
1048       3.51800
1049       2.08500
1050      -1.06900
1051       4.93900
1052       2.26800
1053      -1.85100
1054      -6.60400
1055       3.51900
1056       5.42500
1057      -6.94100
1058       4.45500
1059       5.52900
1060      -5.62600
1061       3.49200
1062       5.63600
1063      -0.90800
1064       5.61600
1065      -7.91200
1066      -0.83200
1067       6.13000
1068      -7.67600
1069      -0.66400
1070       4.84700
1071      -8.50200
1072       1.09500
1073      -8.16600
1074      -3.76600
1075       1.22100
1076      -9.00800
1077      -3.24200
1078       1.98600
1079      -7.82500
1080      -4.06900
1081       2.93100
1082      -4.32400
1083       7.86000
1084       3.24400
1085      -4.66100
1086       8.74800
1087       3.65200
1088      -4.45700
1089       7.18000
1090      -2.21500
1091       8.94100
1092      -2.74300
1093      -2.55800
1094       8.51000
1095      -1.90800
1096      -2.07600
1097      -9.74400
1098      -2.58000
1099       3.57300
1100       0.20400
1101      -6.44800
1102       2.94900
1103      -0.55200
1104      -6.25500
1105       3.77600
1106       0.22600
1107      -7.42700
1108       8.90100
1109      -7.25200
1110      -7.78400
1111       8.39600
1112      -7.47400
1113      -8.61800
1114       9.76300
1115      -6.80700
1116      -8.02500
1117      -7.54300
1118      -8.13600
1119       2.40600
1120      -7.99600
1121      -8.75300
1122       1.76300
1123      -7.52800
1124      -8.55300
1125       3.31500
1126       7.19800
1127      -3.38600
1128      -6.38200
1129       7.26000
1130      -2.81100
1131      -5.56600
1132       7.74700
1133      -2.98400
1134      -7.11500
1135       7.78700
1136      -4.69200
1137       7.77000
1138       8.22500
1139      -5.37400
1140       8.35600
1141       7.32100
1142      -4.01400
1143       8.33800
1144      -1.35000
1145       0.75200
1146       2.90200
1147      -2.03800
1148       0.47800
1149       3.57400
1150      -0.89700
1151      -0.62000
1152       2.53800
1153       1.35700
1154       3.24800
1155      -7.20300
1156       2.24500
1157       2.92200
1158      -7.52600
1159       1.49200
1160       3.91100
1161      -6.46700
1162       2.82800
1163       1.88000
1164       1.19400
1165       2.89400
1166       2.73000
1167       1.71700
1168       3.73200
1169       1.45800
1170       1.12900
1171       2.67100
1172      -1.84100
1173       4.25900
1174       2.21100
1175      -2.56600
1176       4.77200
1177       2.23600
1178      -1.73800
1179       3.36500
1180       6.55500
1181      -5.23800
1182      -8.74300
1183       6.96500
1184      -4.85400
1185      -7.91500
1186       7.26800
1187      -5.66000
1188      -9.30300
1189      -0.86900
1190       8.00800
1191       6.26000
1192      -0.97200
1193       7.67500
1194       5.32300
1195      -0.68000
1196       7.58200
1197       6.68000
1198       4.09600
1199      -9.36600
1200      -3.04500
1201       3.75900
1202      -8.51900
1203      -3.45800
1204       4.07300
1205      -9.28300
1206      -2.04900
1207       9.78100
1208       7.81500
1209      -3.60600
1210      -9.42100
1211       7.04700
1212      -4.05300
1213       9.83000
1214       7.70000
1215      -2.61400
1216      -6.07200
1217      -9.79300
1218      -3.68700
1219      -6.95000
1220      -9.39100
1221      -3.94600
1222      -5.33800
1223      -9.13800
1224      -3.87000
1225       8.47600
1226      -6.95200
1227       9.03300
1228       7.95300
1229      -7.47900
1230       8.36300
1231       9.38500
1232      -7.35500
1233       9.13700
1234       4.13800
1235       3.53500
1236       9.05900
1237       3.52400
1238       3.12700
1239       8.38400
1240       5.04500
1241       3.12100
1242       8.97900
1243       0.47500
1244       3.75100
1245       9.74400
1246       1.11500
1247       3.72200
1248       8.97700
1249       0.94100
1250       3.45800
1251      -9.08200
1252       5.93300
1253       1.57800
1254      -6.03700
1255       6.03800
1256       2.36900
1257      -6.63900
1258       5.03300
1259       1.16600
1260      -6.18100
1261      -5.73200
1262       5.73800
1263       9.16200
1264      -5.55900
1265       5.64900
1266      -9.51900
1267      -4.90000
1268       6.05200
1269       8.70400
1270       4.90000
1271       0.79800
1272       1.19600
1273       4.31500
1274      -0.55300
1275       0.68800
1276       5.18500
1277      -0.34600
1278       2.05500
1279      -5.42900
1280      -3.58400
1281       5.59100
1282      -6.03100
1283      -4.36800
1284       5.74300
1285      -4.54900
1286      -3.90300
1287       5.23900
1288      -1.32500
1289      -1.10800
1290      -8.07200
1291      -1.01800
1292      -0.26500
1293      -7.63100
1294      -2.10900
1295      -1.47900
1296      -7.57400
1297      -1.12600
1298      -7.87700
1299       3.52900
1300      -1.89900
1301      -8.41700
1302       3.19600
1303      -1.30600
1304      -7.58200
1305       4.46700
1306       3.51400
1307      -7.08200
1308      -4.11200
1309       3.39700
1310      -6.45600
1311      -3.34100
1312       4.07100
1313      -6.64300
1314      -4.81600
1315       8.67500
1316       4.74600
1317       6.23300
1318       9.38600
1319       5.27600
1320       5.77000
1321       8.67000
1322       3.81200
1323       5.87500
1324       7.75000
1325      -7.43900
1326      -5.22200
1327       8.27800
1328      -7.39800
1329      -6.07100
1330       6.85400
1331      -7.02000
1332      -5.36600
1333      -5.03100
1334       0.98600
1335      -7.63300
1336      -5.67000
1337       1.73100
1338      -7.44200
1339      -4.60200
1340       0.68800
1341      -6.78000
1342      -4.04100
1343       7.19500
1344       3.30600
1345      -3.10000
1346       6.98700
1347       3.57300
1348      -4.40300
1349       6.44800
1350       2.74800
1351       2.27000
1352      -8.27200
1353      -1.08600
1354       1.74400
1355      -7.44200
1356      -1.27100
1357       2.73800
1358      -8.18100
1359      -0.20700
1360      -3.63100
1361      -3.53800
1362       7.81000
1363      -4.46900
1364      -3.46100
1365       7.26900
1366      -3.35400
1367      -2.63000
1368       8.12500
1369      -9.34100
1370       5.06300
1371       3.84600
1372      -8.65900
1373       5.50700
1374       4.42700
1375      -9.59900
1376       5.68200
1377       3.10300
1378      -3.77800
1379      -7.54200
1380       6.80800
1381      -3.50000
1382      -8.49000
1383       6.65200
1384      -3.17300
1385      -6.93000
1386       6.29900
1387       2.82300
1388       9.24400
1389       5.92400
1390       2.19800
1391       8.80400
1392       6.56900
1393       2.58600
1394      -9.45000
1395       5.83800
1396      -8.94800
1397      -1.88900
1398      -5.91800
1399      -9.81600
1400      -1.46600
1401      -6.17700
1402      -8.22600
1403      -1.57400
1404      -6.53500
1405      -0.25300
1406      -8.20300
1407       7.18800
1408      -0.92100
1409      -8.91700
1410       6.98100
1411      -0.07800
1412      -8.18400
1413       8.17200
1414      -6.99700
1415       8.38000
1416      -9.48300
1417      -6.83200
1418       7.55000
1419       9.64500
1420      -6.70000
1421       9.17800
1422       9.65500
1423       1.19800
1424      -3.01700
1425      -9.24200
1426       1.74500
1427      -2.74000
1428       9.62900
1429       0.45800
1430      -3.61900
1431      -9.54300
1432       9.34300
1433      -2.73600
1434       6.57800
1435       8.87800
1436      -3.53200
1437       6.96500
1438       9.68500
1439      -2.96000
1440       5.66500
1441      -4.72900
1442       0.17200
1443       7.65500
1444      -4.89200
1445       1.15800
1446       7.63300
1447      -5.46300
1448      -0.29800
1449       7.16500
1450       3.94600
1451       2.81600
1452       4.39400
1453       4.62000
1454       3.48400
1455       4.70900
1456       3.25000
1457       3.27800
1458       3.84500
1459      -3.03700
1460       8.64800
1461       9.43300
1462      -3.53200
1463       8.58600
1464      -9.36200
1465      -2.06200
1466       8.49100
1467       9.59500
1468       4.26700
1469      -1.74400
1470       7.67100
1471       4.66000
1472      -1.67200
1473       6.75500
1474       3.28000
1475      -1.58500
1476       7.62400
1477      -0.61400
1478       8.13800
1479      -9.44800
1480      -0.23600
1481       7.66500
1482      -8.65200
1483       0.10100
1484       8.25700
1485       9.52500
1486       5.76600
1487       7.83700
1488       7.62400
1489       5.33200
1490       7.79500
1491       6.72400
1492       6.56000
1493       7.22900
1494       7.64000
1495      -9.45000
1496      -3.92900
1497       4.26700
1498      -8.82300
1499      -4.70700
1500       4.24400
1501       9.29400
1502      -4.23200
1503       4.00800
1504      -7.74600
1505       7.22700
1506      -0.59200
1507      -8.15800
1508       7.79700
1509       0.11900
1510      -6.94900
1511       7.69500
1512      -0.97500
1513       3.39000
1514      -1.73700
1515       0.00200
1516       2.45100
1517      -1.95200
1518      -0.26800
1519       3.72400
1520      -2.43700
1521       0.63300
1522      -0.28200
1523       0.48600
1524       6.23800
1525      -0.93500
1526       0.18000
1527       5.54500
1528       0.51900
1529       0.88100
1530       5.78900
1531       5.05600
1532      -2.67100
1533      -3.66700
1534       5.86500
1535      -2.40200
1536      -4.18900
1537       4.24000
1538      -2.27300
1539      -4.08700
1540      -5.54700
1541       1.12100
1542       1.61400
1543      -6.50400
1544       0.93600
1545       1.39100
1546      -4.98100
1547       0.97200
1548       0.80300
1549      -1.77200
1550      -3.58000
1551      -2.94000
1552      -2.74100
1553      -3.65400
1554      -3.17200
1555      -1.28900
1556      -4.39500
1557      -3.26100
1558       3.47600
1559      -5.60100
1560       3.33700
1561       4.03100
1562      -6.00400
1563       4.06500
1564       2.50700
1565      -5.70200
1566       3.56100
1567      -3.24900
1568      -5.98900
1569       1.96100
1570      -3.48700
1571      -6.93300
1572       2.19000
1573      -3.24800
1574      -5.87700
1575       0.96700
1576       8.15800
1577      -0.48400
1578       4.16200
1579       8.66800
1580      -0.60400
1581       3.31000
1582       7.57700
1583      -1.28300
1584       4.31900
1585      -8.43100
1586       1.39900
1587       1.47300
1588      -9.13700
1589       1.88500
1590       0.95900
1591      -8.32100
1592       1.82300
1593       2.37200
1594      -7.56600
1595      -9.31300
1596       4.77100
1597      -8.10600
1598       9.75100
1599       5.36400
1600      -6.60500
1601      -9.58500
1602       4.81000
1603       2.63700
1604      -8.05000
1605       1.54100
1606       3.42100
1607      -8.48800
1608       1.98000
1609       2.69600
1610      -7.05900
1611       1.66500
1612       7.43900
1613      -8.46000
1614       7.13700
1615       6.60900
1616      -8.62000
1617       7.67200
1618       8.08700
1619      -9.20500
1620       7.29600
1621       2.97800
1622       8.58600
1623      -9.63100
1624       2.88000
1625       9.48400
1626      -9.20200
1627       3.92100
1628       8.26900
1629      -9.53100
1630       1.36400
1631       9.51200
1632      -6.64300
1633       1.10100
1634       9.38400
1635      -5.68600
1636       1.31800
1637       8.63600
1638      -7.12200
1639      -7.54100
1640      -5.54900
1641       0.68200
1642      -6.85100
1643      -5.02500
1644       1.18000
1645      -7.70900
1646      -6.41300
1647       1.15600
1648       2.13700
1649       2.08100
1650       7.86500
1651       2.08300
1652       1.58800
1653       8.73300
1654       1.93300
1655       1.45400
1656       7.11300
1657      -1.74400
1658      -3.54800
1659       0.25700
1660      -1.97000
1661      -3.12700
1662       1.13500
1663      -2.46900
1664      -3.35100
1665      -0.40300
1666       8.73100
1667       0.38600
1668      -5.23800
1669       7.98300
1670       1.03900
1671      -5.35700
1672       9.51900
1673       0.67900
1674      -5.78000
1675       8.99100
1676       4.09300
1677       8.86100
1678       8.87400
1679       4.45700
1680       7.93700
1681      -9.70100
1682       3.91200
1683       9.02700
1684      -0.84700
1685       5.03100
1686       7.76100
1687      -0.14500
1688       4.99400
1689       7.05000
1690      -0.51900
1691       4.55700
1692       8.57800
1693       4.53100
1694      -7.52400
1695       6.36500
1696       4.82900
1697      -8.11400
1698       7.11400
1699       3.58300
1700      -7.73900
1701       6.12800
1702       9.57400
1703      -9.71100
1704      -6.89900
1705       9.36100
1706      -8.79400
1707      -7.23700
1708       8.88000
1709       9.67100
1710      -6.23500
1711      -3.62700
1712       7.20000
1713      -1.11500
1714      -3.19100
1715       6.67100
1716      -0.38700
1717      -3.92600
1718       6.58300
1719      -1.84300
1720      -3.07100
1721       9.64000
1722       6.78700
1723      -3.51500
1724       9.47300
1725       7.66800
1726      -2.44200
1727       8.88900
1728       6.58400
1729       5.43200
1730       0.46100
1731       5.40300
1732       4.98500
1733       1.23000
1734       4.94600
1735       5.63000
1736      -0.25500
1737       4.73400
1738       8.90200
1739       1.16100
1740      -9.03800
1741       9.47500
1742       0.85800
1743      -9.79900
1744       8.15600
1745       1.72800
1746      -9.38700
1747       7.28300
1748       8.81200
1749      -0.84900
1750       7.74400
1751       9.65800
1752      -0.58300
1753       7.80700
1754       8.02800
1755      -0.51600
1756       3.81600
1757      -5.25100
1758      -9.57900
1759       4.75800
1760      -5.03900
1761      -9.31800
1762       3.19500
1763      -4.95200
1764      -8.85500
1765      -6.62300
1766       7.22000
1767      -5.05100
1768      -5.78400
1769       7.10000
1770      -5.58200
1771      -6.49200
1772       7.95100
1773      -4.38200
1774      -5.84700
1775      -3.78300
1776       2.21300
1777      -5.44400
1778      -4.49700
1779       2.78600
1780      -6.40700
1781      -3.17800
1782       2.77800
1783      -8.38800
1784       0.23500
1785       9.33400
1786      -8.79900
1787       0.88700
1788       8.43400
1789      -8.22500
1790       1.21300
1791       9.47100
1792       8.13200
1793      -3.64500
1794       2.37900
1795       8.78500
1796      -2.89200
1797       2.46400
1798       7.34100
1799      -3.34200
1800       1.84900
1801      -0.54300
1802      -7.91100
1803      -6.69000
1804      -1.44900
1805      -8.31500
1806      -6.81900
1807       0.14500
1808      -8.63600
1809      -6.67200
1810      -9.18600
1811      -4.64500
1812      -1.28800
1813      -9.76400
1814      -5.30100
1815      -1.77400
1816      -8.70200
1817      -5.11200
1818      -0.54700
1819      -5.07600
1820      -8.23600
1821      -8.31000
1822      -5.88900
1823      -8.67700
1824      -7.93000
1825      -4.27900
1826      -8.47100
1827      -7.75500
1828       2.26700
1829      -2.46800
1830      -4.59200
1831       2.67100
1832      -3.37100
1833      -4.73500
1834       1.91100
1835      -2.12000
1836      -5.46000
1837       3.95700
1838       5.21500
1839      -8.62400
1840       4.12000
1841       6.15300
1842      -8.93000
1843       4.08900
1844       4.58600
1845      -9.39000
1846      -8.59400
1847       2.54000
1848       4.12000
1849      -9.16500
1850       3.34200
1851       3.94800
1852      -7.80900
1853       2.80400
1854       4.68100
1855      -7.70800
1856       6.04800
1857       6.18000
1858      -7.45600
1859       5.97500
1860       7.14500
1861      -7.93600
1862       6.99800
1863       5.96600
1864       6.07600
1865       5.32000
1866       2.14500
1867       6.42500
1868       4.47500
1869       2.55200
1870       5.85100
1871       5.15800
1872       1.18400
1873       6.11200
1874       9.55300
1875       3.92300
1876       5.83400
1877       8.59400
1878       3.96400
1879       5.95600
1880      -9.67800
1881       4.81200
1882       4.41400
1883      -5.08200
1884      -2.46700
1885       4.63200
1886      -4.21800
1887      -2.92000
1888       4.85000
1889      -5.10600
1890      -1.56700
1891       1.44500
1892       0.42200
1893      -9.44900
1894       1.48900
1895      -0.42400
1896      -8.91700
1897       0.48900
1898       0.66500
1899      -9.61200
1900      -3.42000
1901       0.12400
1902       5.12800
1903      -4.06000
1904      -0.44600
1905       4.61300
1906      -3.44300
1907      -0.13800
1908       6.09300
1909      -9.64900
1910       2.38700
1911      -6.93600
1912      -9.81300
1913       3.37200
1914      -6.99200
1915       9.74500
1916       1.95500
1917      -7.79700
1918      -8.36600
1919      -4.19600
1920      -4.50700
1921      -8.78400
1922      -3.48400
1923      -5.07200
1924      -8.73500
1925      -4.14500
1926      -3.57900
1927      -0.82200
1928       6.70900
1929      -2.99500
1930      -1.37500
1931       7.53500
1932      -3.10000
1933      -0.81800
1934       6.19900
1935      -3.85500
1936       6.71100
1937      -2.34900
1938       8.85100
1939       7.02200
1940      -1.47500
1941       8.47700
1942       5.75700
1943      -2.50100
1944       8.59500
1945       5.84600
1946       1.66800
1947      -3.17200
1948       6.05900
1949       0.83800
1950      -2.65700
1951       5.82200
1952       1.45700
1953      -4.14900
1954      -1.92000
1955       6.23600
1956       0.83000
1957      -1.28500
1958       5.87000
1959       0.14900
1960      -1.57800
1961       7.11300
1962       1.16700
1963       4.76200
1964       7.51500
1965       4.86800
1966       4.67000
1967       7.20100
1968       3.92300
1969       4.02000
1970       8.14900
1971       5.08300
1972      -5.33600
1973      -5.73300
1974      -2.53400
1975      -6.06600
1976      -5.93300
1977      -3.18800
1978      -4.81700
1979      -4.93700
1980      -2.84500
1981      -6.85800
1982       7.20100
1983       3.15800
1984      -6.80500
1985       6.42900
1986       2.52400
1987      -6.11800
1988       7.13500
1989       3.82600
1990       0.91700
1991      -0.56100
1992       1.72800
1993       0.82600
1994      -1.20300
1995       0.96700
1996       1.35300
1997       0.27900
1998       1.40600
1999       7.94900
2000       9.57100
2001      -4.86500
2002       7.81900
2003      -9.10900
2004      -4.72200
2005       8.62800
2006       9.22700
2007      -4.21600
2008       4.74900
2009       9.40000
2010      -0.21900
2011       5.65800
2012       9.13300
2013      -0.53900
2014       4.83900
2015      -9.60100
2016       0.52600
2017      -1.06400
2018      -5.67500
2019       6.25200
2020      -0.68500
2021      -6.44300
2022       6.76700
2023      -1.48900
2024      -5.02700
2025       6.88400
2026      -2.32400
2027       2.63000
2028      -5.00000
2029      -1.83400
2030       2.09100
2031      -5.68600
2032      -1.92600
2033       2.46200
2034      -4.09800
2035      -6.90100
2036      -2.89300
2037       9.70800
2038      -6.94000
2039      -2.02500
2040       9.21300
2041      -6.10400
2042      -2.89700
2043      -9.34900
2044      -5.55300
2045      -5.79300
2046      -6.93900
2047      -4.63900
2048      -5.40000
2049      -7.03600
2050      -5.63600
2051      -6.59400
2052      -7.53200
2053       6.89500
2054       2.70300
2055       9.49800
2056       7.61500
2057       3.33200
2058       9.20400
2059       6.61300
2060       2.93100
2061      -9.23200
2062      -7.35700
2063      -5.27700
2064       8.93400
2065      -7.16500
2066      -4.30600
2067       9.07800
2068      -7.76100
2069      -5.66300
2070       9.76300
2071       9.01300
2072       9.07400
2073       3.43300
2074       9.00100
2075       8.15100
2076       3.04900
2077       8.07600
2078       9.41400
2079       3.51300
2080      -4.52800
2081      -2.26900
2082      -0.61100
2083      -4.11300
2084      -1.37200
2085      -0.45700
2086      -5.19100
2087      -2.45800
2088       0.11400
2089      -2.91800
2090       1.87800
2091      -9.08400
2092      -3.17400
2093       2.56700
2094      -9.76200
2095      -3.73800
2096       1.40000
2097      -8.76900
2098       7.59100
2099       6.42600
2100      -4.97800
2101       7.62500
2102       7.33100
2103      -4.55400
2104       7.33600
2105       5.74500
2106      -4.29100
2107      -4.71400
2108       1.33200
2109      -4.66000
2110      -5.24700
2111       1.60600
2112      -3.85900
2113      -3.83400
2114       1.80600
2115      -4.65200
2116       5.20000
2117      -4.82800
2118       0.10000
2119       4.77600
2120      -4.25700
2121       0.80400
2122       5.89500
2123      -5.41200
2124       0.51900
2125       1.20000
2126       7.84000
2127       8.04700
2128       1.63000
2129       8.09500
2130       8.91300
2131       1.62100
2132       7.00300
2133       7.69900
2134       6.84300
2135      -2.39300
2136       0.38100
2137       6.89700
2138      -3.18200
2139      -0.23100
2140       7.75400
2141      -1.99700
2142       0.49700
2143       8.88700
2144      -6.01800
2145      -3.00500
2146       8.46100
2147      -6.42400
2148      -3.81400
2149       8.26900
2150      -5.33800
2151      -2.61000
2152       9.36600
2153       2.40100
2154      -0.03600
2155       9.45100
2156       3.18200
2157      -0.65500
2158       8.44000
2159       2.02700
2160      -0.09800
2161      -4.87500
2162       3.75900
2163      -6.41800
2164      -5.73300
2165       3.24900
2166      -6.36800
2167      -4.27000
2168       3.46600
2169      -5.67700
2170       1.63000
2171      -1.60600
2172      -6.94100
2173       0.81300
2174      -1.23900
2175      -6.49800
2176       1.37700
2177      -2.02900
2178      -7.81100
2179      -3.93000
2180      -6.99700
2181      -0.75300
2182      -4.29000
2183      -7.86600
2184      -0.41200
2185      -4.55400
2186      -6.62400
2187      -1.43900
2188       7.28200
2189      -6.22300
2190       2.46000
2191       7.56600
2192      -6.55800
2193       3.35800
2194       7.69800
2195      -5.33000
2196       2.28900
2197      -5.34600
2198       5.84000
2199      -7.76700
2200      -5.14600
2201       5.06600
2202      -7.16700
2203      -4.66100
2204       6.55500
2205      -7.62800
2206      -4.99200
2207      -1.00100
2208       3.44900
2209      -5.03600
2210      -0.36300
2211       2.68000
2212      -5.91100
2213      -1.33800
2214       3.65500
2215      -3.83600
2216       3.00300
2217       5.77600
2218      -4.23900
2219       2.09700
2220       5.64700
2221      -3.14500
2222       3.16400
2223       5.07100
2224       2.01000
2225      -7.61800
2226       5.97500
2227       1.10200
2228      -7.86700
2229       6.31000
2230       2.16300
2231      -6.64100
2232       6.12200
2233       0.73600
2234       4.03600
2235       5.94300
2236       0.32400
2237       3.79500
2238       5.06400
2239       0.76900
2240       3.22600
2241       6.52800
2242       4.28300
2243      -3.32400
2244       2.02100
2245       3.86000
2246      -4.16300
2247       2.36500
2248       4.85500
2249      -2.92200
2250       2.73700
2251      -2.96400
2252       3.79400
2253      -1.22200
2254      -3.06400
2255       3.82500
2256      -0.22700
2257      -2.34800
2258       3.04700
2259      -1.47100
2260      -8.93600
2261      -8.48800
2262      -3.68800
2263      -9.63900
2264      -7.77700
2265      -3.66200
2266      -8.10500
2267      -8.12000
2268      -4.10400
2269      -1.86400
2270      -5.74700
2271      -5.23100
2272      -2.37600
2273      -5.26900
2274      -5.94500
2275      -1.28000
2276      -6.44200
2277      -5.65000
2278       5.24700
2279      -9.14600
2280       8.40600
2281       5.30100
2282       9.51800
2283       8.35900
2284       4.52100
2285      -8.88000
2286       9.04000
2287       5.44500
2288      -4.90100
2289       6.51300
2290       5.20200
2291      -5.80800
2292       6.16800
2293       6.34700
2294      -4.94000
2295       6.94300
2296      -9.66700
2297      -3.51100
2298      -9.11000
2299       9.43000
2300      -2.74200
2301      -8.80900
2302      -9.03800
2303      -3.20300
2304      -9.82400
Array Handle=-996 Name:'gradients' Data Type:double
Array Dimensions:2304
Process=0	 owns array section: [1:1152] 
Process=1	 owns array section: [1153:2304] 

 global array: gradients[1:2304],  handle: -996 
   1       0.00000
   2       0.00000
   3       0.00000
   4       0.00000
   5       0.00000
   6       0.00000
   7       0.00000
   8       0.00000
   9       0.00000
  10       0.00000
  11       0.00000
  12       0.00000
  13       0.00000
  14       0.00000
  15       0.00000
  16       0.00000
  17       0.00000
  18       0.00000
  19       0.00000
  20       0.00000
  21       0.00000
  22       0.00000
  23       0.00000
  24       0.00000
  25       0.00000
  26       0.00000
  27       0.00000
  28       0.00000
  29       0.00000
  30       0.00000
  31       0.00000
  32       0.00000
  33       0.00000
  34       0.00000
  35       0.00000
  36       0.00000
  37       0.00000
  38       0.00000
  39       0.00000
  40       0.00000
  41       0.00000
  42       0.00000
  43       0.00000
  44       0.00000
  45       0.00000
  46       0.00000
  47       0.00000
  48       0.00000
  49       0.00000
  50       0.00000
  51       0.00000
  52       0.00000
  53       0.00000
  54       0.00000
  55       0.00000
  56       0.00000
  57       0.00000
  58       0.00000
  59       0.00000
  60       0.00000
  61       0.00000
  62       0.00000
  63       0.00000
  64       0.00000
  65       0.00000
  66       0.00000
  67       0.00000
  68       0.00000
  69       0.00000
  70       0.00000
  71       0.00000
  72       0.00000
  73       0.00000
  74       0.00000
  75       0.00000
  76       0.00000
  77       0.00000
  78       0.00000
  79       0.00000
  80       0.00000
  81       0.00000
  82       0.00000
  83       0.00000
  84       0.00000
  85       0.00000
  86       0.00000
  87       0.00000
  88       0.00000
  89       0.00000
  90       0.00000
  91       0.00000
  92       0.00000
  93       0.00000
  94       0.00000
  95       0.00000
  96       0.00000
  97       0.00000
  98       0.00000
  99       0.00000
 100       0.00000
 101       0.00000
 102       0.00000
 103       0.00000
 104       0.00000
 105       0.00000
 106       0.00000
 107       0.00000
 108       0.00000
 109       0.00000
 110       0.00000
 111       0.00000
 112       0.00000
 113       0.00000
 114       0.00000
 115       0.00000
 116       0.00000
 117       0.00000
 118       0.00000
 119       0.00000
 120       0.00000
 121       0.00000
 122       0.00000
 123       0.00000
 124       0.00000
 125       0.00000
 126       0.00000
 127       0.00000
 128       0.00000
 129       0.00000
 130       0.00000
 131       0.00000
 132       0.00000
 133       0.00000
 134       0.00000
 135       0.00000
 136       0.00000
 137       0.00000
 138       0.00000
 139       0.00000
 140       0.00000
 141       0.00000
 142       0.00000
 143       0.00000
 144       0.00000
 145       0.00000
 146       0.00000
 147       0.00000
 148       0.00000
 149       0.00000
 150       0.00000
 151       0.00000
 152       0.00000
 153       0.00000
 154       0.00000
 155       0.00000
 156       0.00000
 157       0.00000
 158       0.00000
 159       0.00000
 160       0.00000
 161       0.00000
 162       0.00000
 163       0.00000
 164       0.00000
 165       0.00000
 166       0.00000
 167       0.00000
 168       0.00000
 169       0.00000
 170       0.00000
 171       0.00000
 172       0.00000
 173       0.00000
 174       0.00000
 175       0.00000
 176       0.00000
 177       0.00000
 178       0.00000
 179       0.00000
 180       0.00000
 181       0.00000
 182       0.00000
 183       0.00000
 184       0.00000
 185       0.00000
 186       0.00000
 187       0.00000
 188       0.00000
 189       0.00000
 190       0.00000
 191       0.00000
 192       0.00000
 193       0.00000
 194       0.00000
 195       0.00000
 196       0.00000
 197       0.00000
 198       0.00000
 199       0.00000
 200       0.00000
 201       0.00000
 202       0.00000
 203       0.00000
 204       0.00000
 205       0.00000
 206       0.00000
 207       0.00000
 208       0.00000
 209       0.00000
 210       0.00000
 211       0.00000
 212       0.00000
 213       0.00000
 214       0.00000
 215       0.00000
 216       0.00000
 217       0.00000
 218       0.00000
 219       0.00000
 220       0.00000
 221       0.00000
 222       0.00000
 223       0.00000
 224       0.00000
 225       0.00000
 226       0.00000
 227       0.00000
 228       0.00000
 229       0.00000
 230       0.00000
 231       0.00000
 232       0.00000
 233       0.00000
 234       0.00000
 235       0.00000
 236       0.00000
 237       0.00000
 238       0.00000
 239       0.00000
 240       0.00000
 241       0.00000
 242       0.00000
 243       0.00000
 244       0.00000
 245       0.00000
 246       0.00000
 247       0.00000
 248       0.00000
 249       0.00000
 250       0.00000
 251       0.00000
 252       0.00000
 253       0.00000
 254       0.00000
 255       0.00000
 256       0.00000
 257       0.00000
 258       0.00000
 259       0.00000
 260       0.00000
 261       0.00000
 262       0.00000
 263       0.00000
 264       0.00000
 265       0.00000
 266       0.00000
 267       0.00000
 268       0.00000
 269       0.00000
 270       0.00000
 271       0.00000
 272       0.00000
 273       0.00000
 274       0.00000
 275       0.00000
 276       0.00000
 277       0.00000
 278       0.00000
 279       0.00000
 280       0.00000
 281       0.00000
 282       0.00000
 283       0.00000
 284       0.00000
 285       0.00000
 286       0.00000
 287       0.00000
 288       0.00000
 289       0.00000
 290       0.00000
 291       0.00000
 292       0.00000
 293       0.00000
 294       0.00000
 295       0.00000
 296       0.00000
 297       0.00000
 298       0.00000
 299       0.00000
 300       0.00000
 301       0.00000
 302       0.00000
 303       0.00000
 304       0.00000
 305       0.00000
 306       0.00000
 307       0.00000
 308       0.00000
 309       0.00000
 310       0.00000
 311       0.00000
 312       0.00000
 313       0.00000
 314       0.00000
 315       0.00000
 316       0.00000
 317       0.00000
 318       0.00000
 319       0.00000
 320       0.00000
 321       0.00000
 322       0.00000
 323       0.00000
 324       0.00000
 325       0.00000
 326       0.00000
 327       0.00000
 328       0.00000
 329       0.00000
 330       0.00000
 331       0.00000
 332       0.00000
 333       0.00000
 334       0.00000
 335       0.00000
 336       0.00000
 337       0.00000
 338       0.00000
 339       0.00000
 340       0.00000
 341       0.00000
 342       0.00000
 343       0.00000
 344       0.00000
 345       0.00000
 346       0.00000
 347       0.00000
 348       0.00000
 349       0.00000
 350       0.00000
 351       0.00000
 352       0.00000
 353       0.00000
 354       0.00000
 355       0.00000
 356       0.00000
 357       0.00000
 358       0.00000
 359       0.00000
 360       0.00000
 361       0.00000
 362       0.00000
 363       0.00000
 364       0.00000
 365       0.00000
 366       0.00000
 367       0.00000
 368       0.00000
 369       0.00000
 370       0.00000
 371       0.00000
 372       0.00000
 373       0.00000
 374       0.00000
 375       0.00000
 376       0.00000
 377       0.00000
 378       0.00000
 379       0.00000
 380       0.00000
 381       0.00000
 382       0.00000
 383       0.00000
 384       0.00000
 385       0.00000
 386       0.00000
 387       0.00000
 388       0.00000
 389       0.00000
 390       0.00000
 391       0.00000
 392       0.00000
 393       0.00000
 394       0.00000
 395       0.00000
 396       0.00000
 397       0.00000
 398       0.00000
 399       0.00000
 400       0.00000
 401       0.00000
 402       0.00000
 403       0.00000
 404       0.00000
 405       0.00000
 406       0.00000
 407       0.00000
 408       0.00000
 409       0.00000
 410       0.00000
 411       0.00000
 412       0.00000
 413       0.00000
 414       0.00000
 415       0.00000
 416       0.00000
 417       0.00000
 418       0.00000
 419       0.00000
 420       0.00000
 421       0.00000
 422       0.00000
 423       0.00000
 424       0.00000
 425       0.00000
 426       0.00000
 427       0.00000
 428       0.00000
 429       0.00000
 430       0.00000
 431       0.00000
 432       0.00000
 433       0.00000
 434       0.00000
 435       0.00000
 436       0.00000
 437       0.00000
 438       0.00000
 439       0.00000
 440       0.00000
 441       0.00000
 442       0.00000
 443       0.00000
 444       0.00000
 445       0.00000
 446       0.00000
 447       0.00000
 448       0.00000
 449       0.00000
 450       0.00000
 451       0.00000
 452       0.00000
 453       0.00000
 454       0.00000
 455       0.00000
 456       0.00000
 457       0.00000
 458       0.00000
 459       0.00000
 460       0.00000
 461       0.00000
 462       0.00000
 463       0.00000
 464       0.00000
 465       0.00000
 466       0.00000
 467       0.00000
 468       0.00000
 469       0.00000
 470       0.00000
 471       0.00000
 472       0.00000
 473       0.00000
 474       0.00000
 475       0.00000
 476       0.00000
 477       0.00000
 478       0.00000
 479       0.00000
 480       0.00000
 481       0.00000
 482       0.00000
 483       0.00000
 484       0.00000
 485       0.00000
 486       0.00000
 487       0.00000
 488       0.00000
 489       0.00000
 490       0.00000
 491       0.00000
 492       0.00000
 493       0.00000
 494       0.00000
 495       0.00000
 496       0.00000
 497       0.00000
 498       0.00000
 499       0.00000
 500       0.00000
 501       0.00000
 502       0.00000
 503       0.00000
 504       0.00000
 505       0.00000
 506       0.00000
 507       0.00000
 508       0.00000
 509       0.00000
 510       0.00000
 511       0.00000
 512       0.00000
 513       0.00000
 514       0.00000
 515       0.00000
 516       0.00000
 517       0.00000
 518       0.00000
 519       0.00000
 520       0.00000
 521       0.00000
 522       0.00000
 523       0.00000
 524       0.00000
 525       0.00000
 526       0.00000
 527       0.00000
 528       0.00000
 529       0.00000
 530       0.00000
 531       0.00000
 532       0.00000
 533       0.00000
 534       0.00000
 535       0.00000
 536       0.00000
 537       0.00000
 538       0.00000
 539       0.00000
 540       0.00000
 541       0.00000
 542       0.00000
 543       0.00000
 544       0.00000
 545       0.00000
 546       0.00000
 547       0.00000
 548       0.00000
 549       0.00000
 550       0.00000
 551       0.00000
 552       0.00000
 553       0.00000
 554       0.00000
 555       0.00000
 556       0.00000
 557       0.00000
 558       0.00000
 559       0.00000
 560       0.00000
 561       0.00000
 562       0.00000
 563       0.00000
 564       0.00000
 565       0.00000
 566       0.00000
 567       0.00000
 568       0.00000
 569       0.00000
 570       0.00000
 571       0.00000
 572       0.00000
 573       0.00000
 574       0.00000
 575       0.00000
 576       0.00000
 577       0.00000
 578       0.00000
 579       0.00000
 580       0.00000
 581       0.00000
 582       0.00000
 583       0.00000
 584       0.00000
 585       0.00000
 586       0.00000
 587       0.00000
 588       0.00000
 589       0.00000
 590       0.00000
 591       0.00000
 592       0.00000
 593       0.00000
 594       0.00000
 595       0.00000
 596       0.00000
 597       0.00000
 598       0.00000
 599       0.00000
 600       0.00000
 601       0.00000
 602       0.00000
 603       0.00000
 604       0.00000
 605       0.00000
 606       0.00000
 607       0.00000
 608       0.00000
 609       0.00000
 610       0.00000
 611       0.00000
 612       0.00000
 613       0.00000
 614       0.00000
 615       0.00000
 616       0.00000
 617       0.00000
 618       0.00000
 619       0.00000
 620       0.00000
 621       0.00000
 622       0.00000
 623       0.00000
 624       0.00000
 625       0.00000
 626       0.00000
 627       0.00000
 628       0.00000
 629       0.00000
 630       0.00000
 631       0.00000
 632       0.00000
 633       0.00000
 634       0.00000
 635       0.00000
 636       0.00000
 637       0.00000
 638       0.00000
 639       0.00000
 640       0.00000
 641       0.00000
 642       0.00000
 643       0.00000
 644       0.00000
 645       0.00000
 646       0.00000
 647       0.00000
 648       0.00000
 649       0.00000
 650       0.00000
 651       0.00000
 652       0.00000
 653       0.00000
 654       0.00000
 655       0.00000
 656       0.00000
 657       0.00000
 658       0.00000
 659       0.00000
 660       0.00000
 661       0.00000
 662       0.00000
 663       0.00000
 664       0.00000
 665       0.00000
 666       0.00000
 667       0.00000
 668       0.00000
 669       0.00000
 670       0.00000
 671       0.00000
 672       0.00000
 673       0.00000
 674       0.00000
 675       0.00000
 676       0.00000
 677       0.00000
 678       0.00000
 679       0.00000
 680       0.00000
 681       0.00000
 682       0.00000
 683       0.00000
 684       0.00000
 685       0.00000
 686       0.00000
 687       0.00000
 688       0.00000
 689       0.00000
 690       0.00000
 691       0.00000
 692       0.00000
 693       0.00000
 694       0.00000
 695       0.00000
 696       0.00000
 697       0.00000
 698       0.00000
 699       0.00000
 700       0.00000
 701       0.00000
 702       0.00000
 703       0.00000
 704       0.00000
 705       0.00000
 706       0.00000
 707       0.00000
 708       0.00000
 709       0.00000
 710       0.00000
 711       0.00000
 712       0.00000
 713       0.00000
 714       0.00000
 715       0.00000
 716       0.00000
 717       0.00000
 718       0.00000
 719       0.00000
 720       0.00000
 721       0.00000
 722       0.00000
 723       0.00000
 724       0.00000
 725       0.00000
 726       0.00000
 727       0.00000
 728       0.00000
 729       0.00000
 730       0.00000
 731       0.00000
 732       0.00000
 733       0.00000
 734       0.00000
 735       0.00000
 736       0.00000
 737       0.00000
 738       0.00000
 739       0.00000
 740       0.00000
 741       0.00000
 742       0.00000
 743       0.00000
 744       0.00000
 745       0.00000
 746       0.00000
 747       0.00000
 748       0.00000
 749       0.00000
 750       0.00000
 751       0.00000
 752       0.00000
 753       0.00000
 754       0.00000
 755       0.00000
 756       0.00000
 757       0.00000
 758       0.00000
 759       0.00000
 760       0.00000
 761       0.00000
 762       0.00000
 763       0.00000
 764       0.00000
 765       0.00000
 766       0.00000
 767       0.00000
 768       0.00000
 769       0.00000
 770       0.00000
 771       0.00000
 772       0.00000
 773       0.00000
 774       0.00000
 775       0.00000
 776       0.00000
 777       0.00000
 778       0.00000
 779       0.00000
 780       0.00000
 781       0.00000
 782       0.00000
 783       0.00000
 784       0.00000
 785       0.00000
 786       0.00000
 787       0.00000
 788       0.00000
 789       0.00000
 790       0.00000
 791       0.00000
 792       0.00000
 793       0.00000
 794       0.00000
 795       0.00000
 796       0.00000
 797       0.00000
 798       0.00000
 799       0.00000
 800       0.00000
 801       0.00000
 802       0.00000
 803       0.00000
 804       0.00000
 805       0.00000
 806       0.00000
 807       0.00000
 808       0.00000
 809       0.00000
 810       0.00000
 811       0.00000
 812       0.00000
 813       0.00000
 814       0.00000
 815       0.00000
 816       0.00000
 817       0.00000
 818       0.00000
 819       0.00000
 820       0.00000
 821       0.00000
 822       0.00000
 823       0.00000
 824       0.00000
 825       0.00000
 826       0.00000
 827       0.00000
 828       0.00000
 829       0.00000
 830       0.00000
 831       0.00000
 832       0.00000
 833       0.00000
 834       0.00000
 835       0.00000
 836       0.00000
 837       0.00000
 838       0.00000
 839       0.00000
 840       0.00000
 841       0.00000
 842       0.00000
 843       0.00000
 844       0.00000
 845       0.00000
 846       0.00000
 847       0.00000
 848       0.00000
 849       0.00000
 850       0.00000
 851       0.00000
 852       0.00000
 853       0.00000
 854       0.00000
 855       0.00000
 856       0.00000
 857       0.00000
 858       0.00000
 859       0.00000
 860       0.00000
 861       0.00000
 862       0.00000
 863       0.00000
 864       0.00000
 865       0.00000
 866       0.00000
 867       0.00000
 868       0.00000
 869       0.00000
 870       0.00000
 871       0.00000
 872       0.00000
 873       0.00000
 874       0.00000
 875       0.00000
 876       0.00000
 877       0.00000
 878       0.00000
 879       0.00000
 880       0.00000
 881       0.00000
 882       0.00000
 883       0.00000
 884       0.00000
 885       0.00000
 886       0.00000
 887       0.00000
 888       0.00000
 889       0.00000
 890       0.00000
 891       0.00000
 892       0.00000
 893       0.00000
 894       0.00000
 895       0.00000
 896       0.00000
 897       0.00000
 898       0.00000
 899       0.00000
 900       0.00000
 901       0.00000
 902       0.00000
 903       0.00000
 904       0.00000
 905       0.00000
 906       0.00000
 907       0.00000
 908       0.00000
 909       0.00000
 910       0.00000
 911       0.00000
 912       0.00000
 913       0.00000
 914       0.00000
 915       0.00000
 916       0.00000
 917       0.00000
 918       0.00000
 919       0.00000
 920       0.00000
 921       0.00000
 922       0.00000
 923       0.00000
 924       0.00000
 925       0.00000
 926       0.00000
 927       0.00000
 928       0.00000
 929       0.00000
 930       0.00000
 931       0.00000
 932       0.00000
 933       0.00000
 934       0.00000
 935       0.00000
 936       0.00000
 937       0.00000
 938       0.00000
 939       0.00000
 940       0.00000
 941       0.00000
 942       0.00000
 943       0.00000
 944       0.00000
 945       0.00000
 946       0.00000
 947       0.00000
 948       0.00000
 949       0.00000
 950       0.00000
 951       0.00000
 952       0.00000
 953       0.00000
 954       0.00000
 955       0.00000
 956       0.00000
 957       0.00000
 958       0.00000
 959       0.00000
 960       0.00000
 961       0.00000
 962       0.00000
 963       0.00000
 964       0.00000
 965       0.00000
 966       0.00000
 967       0.00000
 968       0.00000
 969       0.00000
 970       0.00000
 971       0.00000
 972       0.00000
 973       0.00000
 974       0.00000
 975       0.00000
 976       0.00000
 977       0.00000
 978       0.00000
 979       0.00000
 980       0.00000
 981       0.00000
 982       0.00000
 983       0.00000
 984       0.00000
 985       0.00000
 986       0.00000
 987       0.00000
 988       0.00000
 989       0.00000
 990       0.00000
 991       0.00000
 992       0.00000
 993       0.00000
 994       0.00000
 995       0.00000
 996       0.00000
 997       0.00000
 998       0.00000
 999       0.00000
1000       0.00000
1001       0.00000
1002       0.00000
1003       0.00000
1004       0.00000
1005       0.00000
1006       0.00000
1007       0.00000
1008       0.00000
1009       0.00000
1010       0.00000
1011       0.00000
1012       0.00000
1013       0.00000
1014       0.00000
1015       0.00000
1016       0.00000
1017       0.00000
1018       0.00000
1019       0.00000
1020       0.00000
1021       0.00000
1022       0.00000
1023       0.00000
1024       0.00000
1025       0.00000
1026       0.00000
1027       0.00000
1028       0.00000
1029       0.00000
1030       0.00000
1031       0.00000
1032       0.00000
1033       0.00000
1034       0.00000
1035       0.00000
1036       0.00000
1037       0.00000
1038       0.00000
1039       0.00000
1040       0.00000
1041       0.00000
1042       0.00000
1043       0.00000
1044       0.00000
1045       0.00000
1046       0.00000
1047       0.00000
1048       0.00000
1049       0.00000
1050       0.00000
1051       0.00000
1052       0.00000
1053       0.00000
1054       0.00000
1055       0.00000
1056       0.00000
1057       0.00000
1058       0.00000
1059       0.00000
1060       0.00000
1061       0.00000
1062       0.00000
1063       0.00000
1064       0.00000
1065       0.00000
1066       0.00000
1067       0.00000
1068       0.00000
1069       0.00000
1070       0.00000
1071       0.00000
1072       0.00000
1073       0.00000
1074       0.00000
1075       0.00000
1076       0.00000
1077       0.00000
1078       0.00000
1079       0.00000
1080       0.00000
1081       0.00000
1082       0.00000
1083       0.00000
1084       0.00000
1085       0.00000
1086       0.00000
1087       0.00000
1088       0.00000
1089       0.00000
1090       0.00000
1091       0.00000
1092       0.00000
1093       0.00000
1094       0.00000
1095       0.00000
1096       0.00000
1097       0.00000
1098       0.00000
1099       0.00000
1100       0.00000
1101       0.00000
1102       0.00000
1103       0.00000
1104       0.00000
1105       0.00000
1106       0.00000
1107       0.00000
1108       0.00000
1109       0.00000
1110       0.00000
1111       0.00000
1112       0.00000
1113       0.00000
1114       0.00000
1115       0.00000
1116       0.00000
1117       0.00000
1118       0.00000
1119       0.00000
1120       0.00000
1121       0.00000
1122       0.00000
1123       0.00000
1124       0.00000
1125       0.00000
1126       0.00000
1127       0.00000
1128       0.00000
1129       0.00000
1130       0.00000
1131       0.00000
1132       0.00000
1133       0.00000
1134       0.00000
1135       0.00000
1136       0.00000
1137       0.00000
1138       0.00000
1139       0.00000
1140       0.00000
1141       0.00000
1142       0.00000
1143       0.00000
1144       0.00000
1145       0.00000
1146       0.00000
1147       0.00000
1148       0.00000
1149       0.00000
1150       0.00000
1151       0.00000
1152       0.00000
1153       0.00000
1154       0.00000
1155       0.00000
1156       0.00000
1157       0.00000
1158       0.00000
1159       0.00000
1160       0.00000
1161       0.00000
1162       0.00000
1163       0.00000
1164       0.00000
1165       0.00000
1166       0.00000
1167       0.00000
1168       0.00000
1169       0.00000
1170       0.00000
1171       0.00000
1172       0.00000
1173       0.00000
1174       0.00000
1175       0.00000
1176       0.00000
1177       0.00000
1178       0.00000
1179       0.00000
1180       0.00000
1181       0.00000
1182       0.00000
1183       0.00000
1184       0.00000
1185       0.00000
1186       0.00000
1187       0.00000
1188       0.00000
1189       0.00000
1190       0.00000
1191       0.00000
1192       0.00000
1193       0.00000
1194       0.00000
1195       0.00000
1196       0.00000
1197       0.00000
1198       0.00000
1199       0.00000
1200       0.00000
1201       0.00000
1202       0.00000
1203       0.00000
1204       0.00000
1205       0.00000
1206       0.00000
1207       0.00000
1208       0.00000
1209       0.00000
1210       0.00000
1211       0.00000
1212       0.00000
1213       0.00000
1214       0.00000
1215       0.00000
1216       0.00000
1217       0.00000
1218       0.00000
1219       0.00000
1220       0.00000
1221       0.00000
1222       0.00000
1223       0.00000
1224       0.00000
1225       0.00000
1226       0.00000
1227       0.00000
1228       0.00000
1229       0.00000
1230       0.00000
1231       0.00000
1232       0.00000
1233       0.00000
1234       0.00000
1235       0.00000
1236       0.00000
1237       0.00000
1238       0.00000
1239       0.00000
1240       0.00000
1241       0.00000
1242       0.00000
1243       0.00000
1244       0.00000
1245       0.00000
1246       0.00000
1247       0.00000
1248       0.00000
1249       0.00000
1250       0.00000
1251       0.00000
1252       0.00000
1253       0.00000
1254       0.00000
1255       0.00000
1256       0.00000
1257       0.00000
1258       0.00000
1259       0.00000
1260       0.00000
1261       0.00000
1262       0.00000
1263       0.00000
1264       0.00000
1265       0.00000
1266       0.00000
1267       0.00000
1268       0.00000
1269       0.00000
1270       0.00000
1271       0.00000
1272       0.00000
1273       0.00000
1274       0.00000
1275       0.00000
1276       0.00000
1277       0.00000
1278       0.00000
1279       0.00000
1280       0.00000
1281       0.00000
1282       0.00000
1283       0.00000
1284       0.00000
1285       0.00000
1286       0.00000
1287       0.00000
1288       0.00000
1289       0.00000
1290       0.00000
1291       0.00000
1292       0.00000
1293       0.00000
1294       0.00000
1295       0.00000
1296       0.00000
1297       0.00000
1298       0.00000
1299       0.00000
1300       0.00000
1301       0.00000
1302       0.00000
1303       0.00000
1304       0.00000
1305       0.00000
1306       0.00000
1307       0.00000
1308       0.00000
1309       0.00000
1310       0.00000
1311       0.00000
1312       0.00000
1313       0.00000
1314       0.00000
1315       0.00000
1316       0.00000
1317       0.00000
1318       0.00000
1319       0.00000
1320       0.00000
1321       0.00000
1322       0.00000
1323       0.00000
1324       0.00000
1325       0.00000
1326       0.00000
1327       0.00000
1328       0.00000
1329       0.00000
1330       0.00000
1331       0.00000
1332       0.00000
1333       0.00000
1334       0.00000
1335       0.00000
1336       0.00000
1337       0.00000
1338       0.00000
1339       0.00000
1340       0.00000
1341       0.00000
1342       0.00000
1343       0.00000
1344       0.00000
1345       0.00000
1346       0.00000
1347       0.00000
1348       0.00000
1349       0.00000
1350       0.00000
1351       0.00000
1352       0.00000
1353       0.00000
1354       0.00000
1355       0.00000
1356       0.00000
1357       0.00000
1358       0.00000
1359       0.00000
1360       0.00000
1361       0.00000
1362       0.00000
1363       0.00000
1364       0.00000
1365       0.00000
1366       0.00000
1367       0.00000
1368       0.00000
1369       0.00000
1370       0.00000
1371       0.00000
1372       0.00000
1373       0.00000
1374       0.00000
1375       0.00000
1376       0.00000
1377       0.00000
1378       0.00000
1379       0.00000
1380       0.00000
1381       0.00000
1382       0.00000
1383       0.00000
1384       0.00000
1385       0.00000
1386       0.00000
1387       0.00000
1388       0.00000
1389       0.00000
1390       0.00000
1391       0.00000
1392       0.00000
1393       0.00000
1394       0.00000
1395       0.00000
1396       0.00000
1397       0.00000
1398       0.00000
1399       0.00000
1400       0.00000
1401       0.00000
1402       0.00000
1403       0.00000
1404       0.00000
1405       0.00000
1406       0.00000
1407       0.00000
1408       0.00000
1409       0.00000
1410       0.00000
1411       0.00000
1412       0.00000
1413       0.00000
1414       0.00000
1415       0.00000
1416       0.00000
1417       0.00000
1418       0.00000
1419       0.00000
1420       0.00000
1421       0.00000
1422       0.00000
1423       0.00000
1424       0.00000
1425       0.00000
1426       0.00000
1427       0.00000
1428       0.00000
1429       0.00000
1430       0.00000
1431       0.00000
1432       0.00000
1433       0.00000
1434       0.00000
1435       0.00000
1436       0.00000
1437       0.00000
1438       0.00000
1439       0.00000
1440       0.00000
1441       0.00000
1442       0.00000
1443       0.00000
1444       0.00000
1445       0.00000
1446       0.00000
1447       0.00000
1448       0.00000
1449       0.00000
1450       0.00000
1451       0.00000
1452       0.00000
1453       0.00000
1454       0.00000
1455       0.00000
1456       0.00000
1457       0.00000
1458       0.00000
1459       0.00000
1460       0.00000
1461       0.00000
1462       0.00000
1463       0.00000
1464       0.00000
1465       0.00000
1466       0.00000
1467       0.00000
1468       0.00000
1469       0.00000
1470       0.00000
1471       0.00000
1472       0.00000
1473       0.00000
1474       0.00000
1475       0.00000
1476       0.00000
1477       0.00000
1478       0.00000
1479       0.00000
1480       0.00000
1481       0.00000
1482       0.00000
1483       0.00000
1484       0.00000
1485       0.00000
1486       0.00000
1487       0.00000
1488       0.00000
1489       0.00000
1490       0.00000
1491       0.00000
1492       0.00000
1493       0.00000
1494       0.00000
1495       0.00000
1496       0.00000
1497       0.00000
1498       0.00000
1499       0.00000
1500       0.00000
1501       0.00000
1502       0.00000
1503       0.00000
1504       0.00000
1505       0.00000
1506       0.00000
1507       0.00000
1508       0.00000
1509       0.00000
1510       0.00000
1511       0.00000
1512       0.00000
1513       0.00000
1514       0.00000
1515       0.00000
1516       0.00000
1517       0.00000
1518       0.00000
1519       0.00000
1520       0.00000
1521       0.00000
1522       0.00000
1523       0.00000
1524       0.00000
1525       0.00000
1526       0.00000
1527       0.00000
1528       0.00000
1529       0.00000
1530       0.00000
1531       0.00000
1532       0.00000
1533       0.00000
1534       0.00000
1535       0.00000
1536       0.00000
1537       0.00000
1538       0.00000
1539       0.00000
1540       0.00000
1541       0.00000
1542       0.00000
1543       0.00000
1544       0.00000
1545       0.00000
1546       0.00000
1547       0.00000
1548       0.00000
1549       0.00000
1550       0.00000
1551       0.00000
1552       0.00000
1553       0.00000
1554       0.00000
1555       0.00000
1556       0.00000
1557       0.00000
1558       0.00000
1559       0.00000
1560       0.00000
1561       0.00000
1562       0.00000
1563       0.00000
1564       0.00000
1565       0.00000
1566       0.00000
1567       0.00000
1568       0.00000
1569       0.00000
1570       0.00000
1571       0.00000
1572       0.00000
1573       0.00000
1574       0.00000
1575       0.00000
1576       0.00000
1577       0.00000
1578       0.00000
1579       0.00000
1580       0.00000
1581       0.00000
1582       0.00000
1583       0.00000
1584       0.00000
1585       0.00000
1586       0.00000
1587       0.00000
1588       0.00000
1589       0.00000
1590       0.00000
1591       0.00000
1592       0.00000
1593       0.00000
1594       0.00000
1595       0.00000
1596       0.00000
1597       0.00000
1598       0.00000
1599       0.00000
1600       0.00000
1601       0.00000
1602       0.00000
1603       0.00000
1604       0.00000
1605       0.00000
1606       0.00000
1607       0.00000
1608       0.00000
1609       0.00000
1610       0.00000
1611       0.00000
1612       0.00000
1613       0.00000
1614       0.00000
1615       0.00000
1616       0.00000
[...]
 531       0.41000
 532      -0.82000
 533       0.41000
 534       0.41000
 535      -0.82000
 536       0.41000
 537       0.41000
 538      -0.82000
 539       0.41000
 540       0.41000
 541      -0.82000
 542       0.41000
 543       0.41000
 544      -0.82000
 545       0.41000
 546       0.41000
 547      -0.82000
 548       0.41000
 549       0.41000
 550      -0.82000
 551       0.41000
 552       0.41000
 553      -0.82000
 554       0.41000
 555       0.41000
 556      -0.82000
 557       0.41000
 558       0.41000
 559      -0.82000
 560       0.41000
 561       0.41000
 562      -0.82000
 563       0.41000
 564       0.41000
 565      -0.82000
 566       0.41000
 567       0.41000
 568      -0.82000
 569       0.41000
 570       0.41000
 571      -0.82000
 572       0.41000
 573       0.41000
 574      -0.82000
 575       0.41000
 576       0.41000
 577      -0.82000
 578       0.41000
 579       0.41000
 580      -0.82000
 581       0.41000
 582       0.41000
 583      -0.82000
 584       0.41000
 585       0.41000
 586      -0.82000
 587       0.41000
 588       0.41000
 589      -0.82000
 590       0.41000
 591       0.41000
 592      -0.82000
 593       0.41000
 594       0.41000
 595      -0.82000
 596       0.41000
 597       0.41000
 598      -0.82000
 599       0.41000
 600       0.41000
 601      -0.82000
 602       0.41000
 603       0.41000
 604      -0.82000
 605       0.41000
 606       0.41000
 607      -0.82000
 608       0.41000
 609       0.41000
 610      -0.82000
 611       0.41000
 612       0.41000
 613      -0.82000
 614       0.41000
 615       0.41000
 616      -0.82000
 617       0.41000
 618       0.41000
 619      -0.82000
 620       0.41000
 621       0.41000
 622      -0.82000
 623       0.41000
 624       0.41000
 625      -0.82000
 626       0.41000
 627       0.41000
 628      -0.82000
 629       0.41000
 630       0.41000
 631      -0.82000
 632       0.41000
 633       0.41000
 634      -0.82000
 635       0.41000
 636       0.41000
 637      -0.82000
 638       0.41000
 639       0.41000
 640      -0.82000
 641       0.41000
 642       0.41000
 643      -0.82000
 644       0.41000
 645       0.41000
 646      -0.82000
 647       0.41000
 648       0.41000
 649      -0.82000
 650       0.41000
 651       0.41000
 652      -0.82000
 653       0.41000
 654       0.41000
 655      -0.82000
 656       0.41000
 657       0.41000
 658      -0.82000
 659       0.41000
 660       0.41000
 661      -0.82000
 662       0.41000
 663       0.41000
 664      -0.82000
 665       0.41000
 666       0.41000
 667      -0.82000
 668       0.41000
 669       0.41000
 670      -0.82000
 671       0.41000
 672       0.41000
 673      -0.82000
 674       0.41000
 675       0.41000
 676      -0.82000
 677       0.41000
 678       0.41000
 679      -0.82000
 680       0.41000
 681       0.41000
 682      -0.82000
 683       0.41000
 684       0.41000
 685      -0.82000
 686       0.41000
 687       0.41000
 688      -0.82000
 689       0.41000
 690       0.41000
 691      -0.82000
 692       0.41000
 693       0.41000
 694      -0.82000
 695       0.41000
 696       0.41000
 697      -0.82000
 698       0.41000
 699       0.41000
 700      -0.82000
 701       0.41000
 702       0.41000
 703      -0.82000
 704       0.41000
 705       0.41000
 706      -0.82000
 707       0.41000
 708       0.41000
 709      -0.82000
 710       0.41000
 711       0.41000
 712      -0.82000
 713       0.41000
 714       0.41000
 715      -0.82000
 716       0.41000
 717       0.41000
 718      -0.82000
 719       0.41000
 720       0.41000
 721      -0.82000
 722       0.41000
 723       0.41000
 724      -0.82000
 725       0.41000
 726       0.41000
 727      -0.82000
 728       0.41000
 729       0.41000
 730      -0.82000
 731       0.41000
 732       0.41000
 733      -0.82000
 734       0.41000
 735       0.41000
 736      -0.82000
 737       0.41000
 738       0.41000
 739      -0.82000
 740       0.41000
 741       0.41000
 742      -0.82000
 743       0.41000
 744       0.41000
 745      -0.82000
 746       0.41000
 747       0.41000
 748      -0.82000
 749       0.41000
 750       0.41000
 751      -0.82000
 752       0.41000
 753       0.41000
 754      -0.82000
 755       0.41000
 756       0.41000
 757      -0.82000
 758       0.41000
 759       0.41000
 760      -0.82000
 761       0.41000
 762       0.41000
 763      -0.82000
 764       0.41000
 765       0.41000
 766      -0.82000
 767       0.41000
 768       0.41000
 rtdb_nametest.db                                                                                                                                                                                                                                                         
 resolved rtdb_name/home/marat/codes/nwchem-dev/src/smd/test/spce-fragment/perm/test.db                                                                                                                                                                                            
 rtdb handle is                    0
 got new rtdb handle                    0
 Goodbye from task_smd
 done with task_smd_fragment_energy                    0
 rtdb_nametest.db                                                                                                                                                                                                                                                         
 resolved rtdb_name/home/marat/codes/nwchem-dev/src/smd/test/spce-fragment/perm/test.db                                                                                                                                                                                            
 rtdb handle is                    0
 got new rtdb handle                    0
 Goodbye from task_smd
 done with task_smd_fragment_energy                    1

 Task  times  cpu:        4.7s     wall:        5.3s
 Summary of allocated global arrays
-----------------------------------
  array 0 => double precision fragment_charges(768),  handle: -1000 
  array 1 => double precision fragment_charges0(768),  handle: -999 
  array 2 => double precision fragment_energies(768),  handle: -998 
  array 3 => double precision coordinates(2304),  handle: -997 
  array 4 => double precision gradients(2304),  handle: -996 



                         GA Statistics for process    0
                         ------------------------------

       create   destroy   get      put      acc     scatter   gather  read&inc
calls:  338      333     6277      945     2954        0        0        0     
number of processes/call 1.01e+00 1.03e+00 1.01e+00 0.00e+00 0.00e+00
bytes total:             1.48e+06 4.33e+05 6.95e+05 0.00e+00 0.00e+00 0.00e+00
bytes remote:            6.22e+04 3.75e+04 1.68e+04 0.00e+00 0.00e+00 0.00e+00
Max memory consumed for GA by this process: 78920 bytes
MA_summarize_allocated_blocks: starting scan ...
heap block 'smd:rtdb_handle', handle 74, address 0x2ae08d13d9a0:
	type of elements:		integer
	number of elements:		1
	address of client space:	0x2ae08d13d9f8
	index for client space:		5892969827566
	total number of bytes:		104
heap block 'gradients', handle 45, address 0x2ae08d15ad88:
	type of elements:		integer
	number of elements:		1
	address of client space:	0x2ae08d15ade0
	index for client space:		5892969842539
	total number of bytes:		104
heap block 'coordinates', handle 44, address 0x2ae08d15ad20:
	type of elements:		integer
	number of elements:		1
	address of client space:	0x2ae08d15ad78
	index for client space:		5892969842526
	total number of bytes:		104
heap block 'energy', handle 43, address 0x2ae08d15acb8:
	type of elements:		integer
	number of elements:		1
	address of client space:	0x2ae08d15ad10
	index for client space:		5892969842513
	total number of bytes:		104
heap block 'charge0', handle 42, address 0x2ae08d15ac50:
	type of elements:		integer
	number of elements:		1
	address of client space:	0x2ae08d15aca8
	index for client space:		5892969842500
	total number of bytes:		104
heap block 'charge', handle 41, address 0x2ae08d15abe8:
	type of elements:		integer
	number of elements:		1
	address of client space:	0x2ae08d15ac40
	index for client space:		5892969842487
	total number of bytes:		104
heap block 'mass', handle 40, address 0x2ae08d159388:
	type of elements:		double precision
	number of elements:		768
	address of client space:	0x2ae08d1593e0
	index for client space:		5892969841711
	total number of bytes:		6240
heap block 'coords', handle 39, address 0x2ae08d154b28:
	type of elements:		double precision
	number of elements:		2304
	address of client space:	0x2ae08d154b80
	index for client space:		5892969839395
	total number of bytes:		18528
heap block 'charge', handle 38, address 0x2ae08d1532c8:
	type of elements:		double precision
	number of elements:		768
	address of client space:	0x2ae08d153320
	index for client space:		5892969838615
	total number of bytes:		6240
heap block 'force', handle 37, address 0x2ae08d14ea68:
	type of elements:		double precision
	number of elements:		2304
	address of client space:	0x2ae08d14eac0
	index for client space:		5892969836299
	total number of bytes:		18528
heap block 'type:id', handle 36, address 0x2ae08d14d208:
	type of elements:		integer
	number of elements:		768
	address of client space:	0x2ae08d14d260
	index for client space:		5892969835515
	total number of bytes:		6240
heap block 'lat:rcell', handle 35, address 0x2ae08d14d160:
	type of elements:		double precision
	number of elements:		9
	address of client space:	0x2ae08d14d1b8
	index for client space:		5892969835498
	total number of bytes:		168
heap block 'lat:cell', handle 34, address 0x2ae08d14d0b8:
	type of elements:		double precision
	number of elements:		9
	address of client space:	0x2ae08d14d110
	index for client space:		5892969835477
	total number of bytes:		168
heap block 'lat:fconst', handle 33, address 0x2ae08d14d048:
	type of elements:		double precision
	number of elements:		2
	address of client space:	0x2ae08d14d0a0
	index for client space:		5892969835463
	total number of bytes:		112
heap block 'param:resname', handle 32, address 0x2ae08d14cf30:
	type of elements:		byte
	number of elements:		192
	address of client space:	0x2ae08d14cf84
	index for client space:		47143758683397
	total number of bytes:		280
heap block 'param:mass', handle 29, address 0x2ae08d14cea0:
	type of elements:		double precision
	number of elements:		6
	address of client space:	0x2ae08d14cef8
	index for client space:		5892969835410
	total number of bytes:		144
heap block 'param:charge', handle 6, address 0x2ae08d14ce10:
	type of elements:		double precision
	number of elements:		6
	address of client space:	0x2ae08d14ce68
	index for client space:		5892969835392
	total number of bytes:		144
heap block 'param:typename', handle 5, address 0x2ae08d14ccf8:
	type of elements:		byte
	number of elements:		192
	address of client space:	0x2ae08d14cd4c
	index for client space:		47143758682829
	total number of bytes:		280
heap block 'param:atomname', handle 4, address 0x2ae08d14cbe0:
	type of elements:		byte
	number of elements:		192
	address of client space:	0x2ae08d14cc34
	index for client space:		47143758682549
	total number of bytes:		280
heap block 'atom:formal_charge', handle 3, address 0x2ae08d14b380:
	type of elements:		double precision
	number of elements:		768
	address of client space:	0x2ae08d14b3d8
	index for client space:		5892969834542
	total number of bytes:		6240
heap block 'atom:resid', handle 2, address 0x2ae08d149b20:
	type of elements:		integer
	number of elements:		768
	address of client space:	0x2ae08d149b78
	index for client space:		5892969833758
	total number of bytes:		6240
heap block 'atom:resname', handle 1, address 0x2ae08d143ac8:
	type of elements:		byte
	number of elements:		24576
	address of client space:	0x2ae08d143b1c
	index for client space:		47143758645405
	total number of bytes:		24664
heap block 'atom:name', handle 0, address 0x2ae08d13da70:
	type of elements:		byte
	number of elements:		24576
	address of client space:	0x2ae08d13dac4
	index for client space:		47143758620741
	total number of bytes:		24664
heap block 'atom:iconst', handle 31, address 0x2ae08d13da08:
	type of elements:		integer
	number of elements:		1
	address of client space:	0x2ae08d13da60
	index for client space:		5892969827579
	total number of bytes:		104
heap block 'smd:verlet', handle 28, address 0x2ae08d13d938:
	type of elements:		double precision
	number of elements:		1
	address of client space:	0x2ae08d13d990
	index for client space:		5892969827557
	total number of bytes:		104
heap block 'smd:fragment_istart', handle 27, address 0x2ae08d13d8d0:
	type of elements:		integer
	number of elements:		1
	address of client space:	0x2ae08d13d928
	index for client space:		5892969827540
	total number of bytes:		104
heap block 'smd:paramfile', handle 26, address 0x2ae08d13d858:
	type of elements:		byte
	number of elements:		32
	address of client space:	0x2ae08d13d8ac
	index for client space:		47143758620205
	total number of bytes:		120
heap block 'smd:veloc:output', handle 25, address 0x2ae08d13d7e0:
	type of elements:		byte
	number of elements:		32
	address of client space:	0x2ae08d13d834
	index for client space:		47143758620085
	total number of bytes:		120
heap block 'smd:fragment_iend', handle 24, address 0x2ae08d13d778:
	type of elements:		integer
	number of elements:		1
	address of client space:	0x2ae08d13d7d0
	index for client space:		5892969827497
	total number of bytes:		104
heap block 'smd:lat_c', handle 23, address 0x2ae08d13d700:
	type of elements:		double precision
	number of elements:		3
	address of client space:	0x2ae08d13d758
	index for client space:		5892969827486
	total number of bytes:		120
heap block 'smd:lat_b', handle 22, address 0x2ae08d13d688:
	type of elements:		double precision
	number of elements:		3
	address of client space:	0x2ae08d13d6e0
	index for client space:		5892969827471
	total number of bytes:		120
heap block 'smd:lat_a', handle 21, address 0x2ae08d13d610:
	type of elements:		double precision
	number of elements:		3
	address of client space:	0x2ae08d13d668
	index for client space:		5892969827456
	total number of bytes:		120
heap block 'smd:ewald', handle 20, address 0x2ae08d13d5a8:
	type of elements:		double precision
	number of elements:		1
	address of client space:	0x2ae08d13d600
	index for client space:		5892969827443
	total number of bytes:		104
heap block 'smd:temp_target', handle 19, address 0x2ae08d13d540:
	type of elements:		double precision
	number of elements:		1
	address of client space:	0x2ae08d13d598
	index for client space:		5892969827430
	total number of bytes:		104
heap block 'smd:nprint', handle 18, address 0x2ae08d13d4d8:
	type of elements:		integer
	number of elements:		1
	address of client space:	0x2ae08d13d530
	index for client space:		5892969827413
	total number of bytes:		104
heap block 'smd:kvec', handle 17, address 0x2ae08d13d460:
	type of elements:		integer
	number of elements:		3
	address of client space:	0x2ae08d13d4b8
	index for client space:		5892969827398
	total number of bytes:		120
heap block 'smd:ndata', handle 16, address 0x2ae08d13d3f8:
	type of elements:		integer
	number of elements:		1
	address of client space:	0x2ae08d13d450
	index for client space:		5892969827385
	total number of bytes:		104
heap block 'smd:step', handle 15, address 0x2ae08d13d390:
	type of elements:		double precision
	number of elements:		1
	address of client space:	0x2ae08d13d3e8
	index for client space:		5892969827376
	total number of bytes:		104
heap block 'smd:theory', handle 14, address 0x2ae08d13d318:
	type of elements:		byte
	number of elements:		32
	address of client space:	0x2ae08d13d36c
	index for client space:		47143758618861
	total number of bytes:		120
heap block 'smd:fragment_nproc', handle 13, address 0x2ae08d13d2b0:
	type of elements:		integer
	number of elements:		1
	address of client space:	0x2ae08d13d308
	index for client space:		5892969827344
	total number of bytes:		104
heap block 'smd:nobq', handle 12, address 0x2ae08d13d248:
	type of elements:		logical
	number of elements:		1
	address of client space:	0x2ae08d13d2a0
	index for client space:		5892969827339
	total number of bytes:		104
heap block 'smd:veloc:input', handle 11, address 0x2ae08d13d1d0:
	type of elements:		byte
	number of elements:		32
	address of client space:	0x2ae08d13d224
	index for client space:		47143758618533
	total number of bytes:		120
heap block 'smd:nequil', handle 10, address 0x2ae08d13d168:
	type of elements:		integer
	number of elements:		1
	address of client space:	0x2ae08d13d1c0
	index for client space:		5892969827303
	total number of bytes:		104
heap block 'smd:coordfile', handle 9, address 0x2ae08d13d0f0:
	type of elements:		byte
	number of elements:		32
	address of client space:	0x2ae08d13d144
	index for client space:		47143758618309
	total number of bytes:		120
heap block 'smd:rcut', handle 8, address 0x2ae08d13d088:
	type of elements:		double precision
	number of elements:		1
	address of client space:	0x2ae08d13d0e0
	index for client space:		5892969827279
	total number of bytes:		104
heap block 'smd:rtdb_name', handle 7, address 0x2ae08d13d010:
	type of elements:		byte
	number of elements:		32
	address of client space:	0x2ae08d13d064
	index for client space:		47143758618085
	total number of bytes:		120
MA_summarize_allocated_blocks: scan completed: 46 heap blocks, 0 stack blocks
MA usage statistics:

	allocation statistics:
					      heap	     stack
					      ----	     -----
	current number of blocks	        46	         0
	maximum number of blocks	        71	        48
	current total bytes		    122336	         0
	maximum total bytes		   2385416	  22510112
	maximum total K-bytes		      2386	     22511
	maximum total M-bytes		         3	        23


                                NWChem Input Module
                                -------------------






                                  ACKNOWLEDGEMENT
                                  ---------------

            Please use the following acknowledgement where appropriate 
            for results obtained with NWChem:

            High Performance Computational Chemistry Group, "NWChem, A
            Computational Chemistry Package for Parallel Computers, 
            Version 5.1.1" (2008), Pacific Northwest National Laboratory,
            Richland, Washington 99352-0999, USA.


                                     CITATION
                                     --------

          Please use the following citation when publishing results
          obtained with NWChem:

          E. J. Bylaska, W. A. de Jong, N. Govind, K. Kowalski, T. P. Straatsma,
          M. Valiev, H. J. J. Van Dam, D. Wang, E. Apra, T. L. Windus, J. Hammond,
          J. Autschbach, P. Nichols, S. Hirata, M. T. Hackler, Y. Zhao, P.-D. Fan,
          R. J. Harrison, M. Dupuis, D. M. A. Smith, J. Nieplocha, V. Tipparaju,
          M. Krishnan, A. Vazquez-Mayagoitia, L. Jensen, M. Swart, Q. Wu,
          T. Van Voorhis, A. A. Auer, M. Nooijen, L. D. Crosby, E. Brown, 
          G. Cisneros, G. I. Fann, H. Fruchtl, J. Garza, K. Hirao,
          R. Kendall, J. A. Nichols, K. Tsemekhman, K. Wolinski, J. Anchell, 
          D. Bernholdt, P. Borowski, T. Clark, D. Clerc, H. Dachsel, M. Deegan, 
          K. Dyall, D. Elwood, E. Glendening, M. Gutowski, A. Hess, J. Jaffe, 
          B. Johnson, J. Ju, R. Kobayashi, R. Kutteh, Z. Lin, R. Littlefield, 
          X. Long, B. Meng, T. Nakajima, S. Niu, L. Pollack, M. Rosing, 
          G. Sandrone, M. Stave, H. Taylor, G. Thomas, J. van Lenthe, 
          A. Wong, and Z. Zhang,
          "NWChem, A Computational Chemistry Package for Parallel Computers, 
          Version 5.1.1" (2008),
                      Pacific Northwest National Laboratory,
                      Richland, Washington 99352-0999, USA.



 Total times  cpu:        4.7s     wall:        5.4s
