 argument  1 = /home/edo/park/nwchem.git/QA/tests/dft_he2+/dft_he2+.nw



============================== echo of input deck ==============================
echo

title "he2+ hcth functional"

start he2+

geometry units angstrom print
he 0.   0.58 0.
symmetry c2v
end

basis "ao basis"
he library "DZVP (DFT Orbital)"
he p
 0.183 1.
end

basis "cd basis"
he library DGauss_A2_DFT_Coulomb_Fitting
end

charge +1.0

dft
mult 2
#grid lebedev 100 8
grid medium
convergence energy 1d-10
XC hcth
end

task dft gradient

title "he2+ Becke 1997 functional"
dft
XC becke97-1
end

task dft gradient

title "XC perdew91 "
dft
XC xperdew91 perdew91
end

task dft gradient


title "XC pbe96 "
dft
XC xpbe96 cpbe96
end

task dft gradient

title "XC b3lyp "
dft
XC b3lyp
end

task dft gradient

title "XC ft97 "
dft
XC ft97
end

task dft gradient

title "XC BOP "
dft
XC bop
end

task dft gradient

title "XC TPSS03 "
dft
XC xtpss03 ctpss03
end

task dft gradient

title "XC PKZB "
dft
XC xpkzb99 cpkzb99
end

task dft gradient
================================================================================


                                         
                                         


              Northwest Computational Chemistry Package (NWChem) 6.8
              ------------------------------------------------------


                    Environmental Molecular Sciences Laboratory
                       Pacific Northwest National Laboratory
                                Richland, WA 99352

                              Copyright (c) 1994-2015
                       Pacific Northwest National Laboratory
                            Battelle Memorial Institute

             NWChem is an open-source computational chemistry package
                        distributed under the terms of the
                      Educational Community License (ECL) 2.0
             A copy of the license is included with this distribution
                              in the LICENSE.TXT file

                                  ACKNOWLEDGMENT
                                  --------------

            This software and its documentation were developed at the
            EMSL at Pacific Northwest National Laboratory, a multiprogram
            national laboratory, operated for the U.S. Department of Energy
            by Battelle under Contract Number DE-AC05-76RL01830. Support
            for this work was provided by the Department of Energy Office
            of Biological and Environmental Research, Office of Basic
            Energy Sciences, and the Office of Advanced Scientific Computing.


           Job information
           ---------------

    hostname        = lagrange
    program         = /home/edo/park/nwchem.git/bin/LINUX64/nwchem
    date            = Sun Nov 19 10:39:54 2017

    compiled        = Sun_Nov_19_10:35:16_2017
    source          = /home/edo/park/nwchem.git
    nwchem branch   = Development
    nwchem revision = N/A
    ga revision     = N/A
    input           = /home/edo/park/nwchem.git/QA/tests/dft_he2+/dft_he2+.nw
    prefix          = he2+.
    data base       = ./he2+.db
    status          = startup
    nproc           =        2
    time left       =     -1s



           Memory information
           ------------------

    heap     =   13107200 doubles =    100.0 Mbytes
    stack    =   13107197 doubles =    100.0 Mbytes
    global   =   26214400 doubles =    200.0 Mbytes (distinct from heap & stack)
    total    =   52428797 doubles =    400.0 Mbytes
    verify   = yes
    hardfail = no 


           Directory information
           ---------------------

  0 permanent = .
  0 scratch   = .




                                NWChem Input Module
                                -------------------


                               he2+ hcth functional
                               --------------------

 Scaling coordinates for geometry "geometry" by  1.889725989
 (inverse scale =  0.529177249)



                             Geometry "geometry" -> ""
                             -------------------------

 Output coordinates in angstroms (scale by  1.889725989 to convert to a.u.)

  No.       Tag          Charge          X              Y              Z
 ---- ---------------- ---------- -------------- -------------- --------------
    1 he                   2.0000     0.00000000     0.58000000     0.00000000
    2 he                   2.0000     0.00000000    -0.58000000     0.00000000

      Atomic Mass 
      ----------- 

      he                 4.002600


 Effective nuclear repulsion energy (a.u.)       1.8247491345

            Nuclear Dipole moment (a.u.) 
            ----------------------------
        X                 Y               Z
 ---------------- ---------------- ----------------
     0.0000000000     0.0000000000     0.0000000000

      Symmetry information
      --------------------

 Group name             C2v       
 Group number             16
 Group order               4
 No. of unique centers     1

      Symmetry unique atoms

     1

                      Basis "ao basis" -> "" (cartesian)
                      -----
  he (Helium)
  -----------
            Exponent  Coefficients 
       -------------- ---------------------------------------------------------
  1 S  2.21388030E+02  0.002749
  1 S  3.32619660E+01  0.020866
  1 S  7.56165490E+00  0.097059
  1 S  2.08559900E+00  0.280729
  1 S  6.14339200E-01  0.474222

  2 S  1.82921200E-01  1.000000

  3 P  1.83000000E-01  1.000000



 Summary of "ao basis" -> "" (cartesian)
 ------------------------------------------------------------------------------
       Tag                 Description            Shells   Functions and Types
 ---------------- ------------------------------  ------  ---------------------
 he               modified:DZVP (DFT Orbital)        3        5   2s1p


                      Basis "cd basis" -> "" (cartesian)
                      -----
  he (Helium)
  -----------
            Exponent  Coefficients 
       -------------- ---------------------------------------------------------
  1 S  5.40000000E+01  1.000000

  2 S  9.00000000E+00  1.000000

  3 S  3.60000000E-01  1.000000

  4 S  1.80000000E+00  1.000000

  5 P  1.80000000E+00  1.000000

  6 D  1.80000000E+00  1.000000



 Summary of "cd basis" -> "" (cartesian)
 ------------------------------------------------------------------------------
       Tag                 Description            Shells   Functions and Types
 ---------------- ------------------------------  ------  ---------------------
 he               DGauss A2 DFT Coulomb Fitting      6       13   4s1p1d



                                 NWChem DFT Module
                                 -----------------


                               he2+ hcth functional




 Summary of "ao basis" -> "ao basis" (cartesian)
 ------------------------------------------------------------------------------
       Tag                 Description            Shells   Functions and Types
 ---------------- ------------------------------  ------  ---------------------
 he               modified:DZVP (DFT Orbital)        3        5   2s1p


      Symmetry analysis of basis
      --------------------------

        a1          4
        a2          1
        b1          1
        b2          4

  Caching 1-el integrals 
  itol2e modified to match energy
  convergence criterion.
  tol_rho modified to match energy
  convergence criterion.

            General Information
            -------------------
          SCF calculation type: DFT
          Wavefunction type:  spin polarized.
          No. of atoms     :     2
          No. of electrons :     3
           Alpha electrons :     2
            Beta electrons :     1
          Charge           :     1
          Spin multiplicity:     2
          Use of symmetry is: on ; symmetry adaption is: on 
          Maximum number of iterations:  30
          AO basis - number of functions:    10
                     number of shells:     6
          A Charge density fitting basis will be used.
          CD basis - number of functions:    26
                     number of shells:    12
          Convergence on energy requested:  1.00D-10
          Convergence on density requested:  1.00D-05
          Convergence on gradient requested:  5.00D-04

              XC Information
              --------------
                        HCTH  Method XC Functional
                         HCTH  Exchange Functional  1.000          
                      HCTH  Correlation Functional  1.000          

             Grid Information
             ----------------
          Grid used for XC integration:  medium    
          Radial quadrature: Mura-Knowles        
          Angular quadrature: Lebedev. 
          Tag              B.-S. Rad. Rad. Pts. Rad. Cut. Ang. Pts.
          ---              ---------- --------- --------- ---------
          he                  0.35       49           6.0       434
          Grid pruning is: on 
          Number of quadrature shells:    49
          Spatial weights used:  Erf1

          Convergence Information
          -----------------------
          Convergence aids based upon iterative change in 
          total energy or number of iterations. 
          Levelshifting, if invoked, occurs when the 
          HOMO/LUMO gap drops below (HL_TOL):  1.00D-02
          DIIS, if invoked, will attempt to extrapolate 
          using up to (NFOCK): 10 stored Fock matrices.

                    Damping( 0%)  Levelshifting(0.5)       DIIS
                  --------------- ------------------- ---------------
          dE  on:    start            ASAP                start   
          dE off:    2 iters         30 iters            30 iters 


      Screening Tolerance Information
      -------------------------------
          Density screening/tol_rho:  1.00D-13
          AO Gaussian exp screening on grid/accAOfunc:  23
          CD Gaussian exp screening on grid/accCDfunc:  20
          XC Gaussian exp screening on grid/accXCfunc:  20
          Schwarz screening/accCoul:  1.00D-11


      Superposition of Atomic Density Guess
      -------------------------------------

 Sum of atomic energies:          -5.72112150

 Renormalizing density from       4.00 to      3

      Non-variational initial energy
      ------------------------------

 Total energy =      -4.625399
 1-e energy   =      -8.548265
 2-e energy   =       2.098116
 HOMO         =      -1.163870
 LUMO         =      -0.036107


   Symmetry analysis of molecular orbitals - initial alpha
   -------------------------------------------------------


 !! scf_movecs_sym_adapt:    4 vectors were symmetry contaminated

  Symmetry fudging

 !! scf_movecs_sym_adapt:    4 vectors were symmetry contaminated

  Numbering of irreducible representations: 

     1 a1          2 a2          3 b1          4 b2      

  Orbital symmetries:

     1 a1          2 b2          3 b1          4 a1          5 a1      
     6 b2          7 a2          8 b2          9 a1         10 b2      


   Symmetry analysis of molecular orbitals - initial beta
   ------------------------------------------------------


 !! scf_movecs_sym_adapt:    4 vectors were symmetry contaminated

  Symmetry fudging

 !! scf_movecs_sym_adapt:    4 vectors were symmetry contaminated

  Numbering of irreducible representations: 

     1 a1          2 a2          3 b1          4 b2      

  Orbital symmetries:

     1 a1          2 b2          3 b1          4 a1          5 a1      
     6 b2          7 a2          8 b2          9 a1         10 b2      

   Time after variat. SCF:      0.1

      3 Center 2 Electron Integral Information
      ----------------------------------------
          Maximum number of 3-center 2e- integrals is:            2600.
            This is reduced with Schwarz screening to:            1950.
            Incore requires a per proc buffer size of:            1301.
          Minimum dble words available (all nodes) is:        26212708
                   This is reduced (for later use) to:        26054624
                      proc 0 Suggested buffer size is:            1301
                         Max Suggested buffer size is:            1301
                              no. integral batches is:            1000

           0.001 MW buffer allocated for incore 3-center 
          2e- integral storage on stack. 
   Time prior to 1st pass:      0.1

 Grid_pts file          = ./he2+.gridpts.0
 Record size in doubles =  12289        No. of grid_pts per rec  =   3070
 Max. records in memory =      5        Max. recs in file   =    487191


           Memory utilization after 1st SCF pass: 
           Heap Space remaining (MW):       13.04            13044104
          Stack Space remaining (MW):       13.10            13104636

   convergence    iter        energy       DeltaE   RMS-Dens  Diis-err    time
 ---------------- ----- ----------------- --------- --------- ---------  ------
 d= 0,ls=0.0,diis     1     -5.0324812593 -6.86D+00  3.49D-02  2.52D-02     0.1
                                                     3.35D-03  1.13D-03
 d= 0,ls=0.0,diis     2     -5.0401915941 -7.71D-03  2.39D-03  2.80D-04     0.2
                                                     1.64D-03  3.46D-04
 d= 0,ls=0.0,diis     3     -5.0403830142 -1.91D-04  2.95D-04  1.63D-06     0.2
                                                     2.81D-05  4.70D-08

 !! scf_movecs_sym_adapt:    2 vectors were symmetry contaminated

  Symmetry fudging
 d= 0,ls=0.0,diis     4     -5.0403835616 -5.47D-07  8.22D-07  2.32D-11     0.2
                                                     2.20D-07  8.19D-12

 !! scf_movecs_sym_adapt:    2 vectors were symmetry contaminated

  Symmetry fudging

 !! scf_movecs_sym_adapt:    4 vectors were symmetry contaminated

  Symmetry fudging
 d= 0,ls=0.0,diis     5     -5.0403835616 -9.21D-12  1.37D-08  1.08D-15     0.2
                                                     3.31D-09  1.37D-15


         Total DFT energy =       -5.040383561567
      One electron energy =       -8.751365780154
           Coulomb energy =        3.570163288906
    Exchange-Corr. energy =       -1.683930204801
 Nuclear repulsion energy =        1.824749134482

 Numeric. integr. density =        2.999999845580

     Total iterative time =      0.1s



                  Occupations of the irreducible representations
                  ----------------------------------------------

                     irrep           alpha         beta
                     --------     --------     --------
                     a1                1.0          1.0
                     a2                0.0          0.0
                     b1                0.0          0.0
                     b2                1.0          0.0


                    DFT Final Alpha Molecular Orbital Analysis
                    ------------------------------------------

 Vector    1  Occ=1.000000D+00  E=-1.373582D+00  Symmetry=a1
              MO Center=  1.5D-27, -1.2D-16,  1.1D-15, r^2= 5.5D-01
   Bfn.  Coefficient  Atom+Function         Bfn.  Coefficient  Atom+Function  
  ----- ------------  ---------------      ----- ------------  ---------------
     1      0.601389  1 He s                  6      0.601389  2 He s          
     2      0.064647  1 He s                  7      0.064647  2 He s          

 Vector    2  Occ=1.000000D+00  E=-1.118796D+00  Symmetry=b2
              MO Center= -3.2D-23, -8.4D-18,  7.6D-16, r^2= 6.5D-01
   Bfn.  Coefficient  Atom+Function         Bfn.  Coefficient  Atom+Function  
  ----- ------------  ---------------      ----- ------------  ---------------
     1      0.696184  1 He s                  6     -0.696184  2 He s          
     2      0.147031  1 He s                  7     -0.147031  2 He s          

 Vector    3  Occ=0.000000D+00  E=-1.637941D-01  Symmetry=a1
              MO Center= -1.4D-50,  0.0D+00,  1.0D-14, r^2= 2.1D+00
   Bfn.  Coefficient  Atom+Function         Bfn.  Coefficient  Atom+Function  
  ----- ------------  ---------------      ----- ------------  ---------------
     5      0.551445  1 He pz                10      0.551445  2 He pz         

 Vector    4  Occ=0.000000D+00  E=-1.637941D-01  Symmetry=b1
              MO Center= -1.5D-27,  2.3D-40,  2.7D-51, r^2= 2.1D+00
   Bfn.  Coefficient  Atom+Function         Bfn.  Coefficient  Atom+Function  
  ----- ------------  ---------------      ----- ------------  ---------------
     3      0.551445  1 He px                 8      0.551445  2 He px         

 Vector    5  Occ=0.000000D+00  E=-4.905715D-02  Symmetry=a1
              MO Center=  4.2D-38, -1.2D-14, -3.9D-15, r^2= 3.1D+00
   Bfn.  Coefficient  Atom+Function         Bfn.  Coefficient  Atom+Function  
  ----- ------------  ---------------      ----- ------------  ---------------
     4      0.682762  1 He py                 9     -0.682762  2 He py         
     2      0.634970  1 He s                  7      0.634970  2 He s          
     1     -0.274343  1 He s                  6     -0.274343  2 He s          

 Vector    6  Occ=0.000000D+00  E=-2.381552D-02  Symmetry=b2
              MO Center= -3.8D-38,  1.3D-14, -6.6D-17, r^2= 3.5D+00
   Bfn.  Coefficient  Atom+Function         Bfn.  Coefficient  Atom+Function  
  ----- ------------  ---------------      ----- ------------  ---------------
     2      1.675959  1 He s                  7     -1.675959  2 He s          
     4     -1.624851  1 He py                 9     -1.624851  2 He py         
     1      0.327631  1 He s                  6     -0.327631  2 He s          

 Vector    7  Occ=0.000000D+00  E= 7.384174D-02  Symmetry=b2
              MO Center=  8.1D-66,  0.0D+00,  5.8D-15, r^2= 2.9D+00
   Bfn.  Coefficient  Atom+Function         Bfn.  Coefficient  Atom+Function  
  ----- ------------  ---------------      ----- ------------  ---------------
     5      1.185520  1 He pz                10     -1.185520  2 He pz         

 Vector    8  Occ=0.000000D+00  E= 7.384174D-02  Symmetry=a2
              MO Center=  3.2D-23, -1.1D-46,  4.4D-60, r^2= 2.9D+00
   Bfn.  Coefficient  Atom+Function         Bfn.  Coefficient  Atom+Function  
  ----- ------------  ---------------      ----- ------------  ---------------
     3      1.185520  1 He px                 8     -1.185520  2 He px         

 Vector    9  Occ=0.000000D+00  E= 1.808215D-01  Symmetry=a1
              MO Center= -2.5D-50, -3.2D-15, -7.3D-15, r^2= 1.4D+00
   Bfn.  Coefficient  Atom+Function         Bfn.  Coefficient  Atom+Function  
  ----- ------------  ---------------      ----- ------------  ---------------
     1      0.685191  1 He s                  6      0.685191  2 He s          
     4      0.525577  1 He py                 9     -0.525577  2 He py         
     2     -0.481482  1 He s                  7     -0.481482  2 He s          

 Vector   10  Occ=0.000000D+00  E= 6.145825D-01  Symmetry=b2
              MO Center=  1.7D-34,  3.3D-15, -6.5D-15, r^2= 2.6D+00
   Bfn.  Coefficient  Atom+Function         Bfn.  Coefficient  Atom+Function  
  ----- ------------  ---------------      ----- ------------  ---------------
     2      6.281085  1 He s                  7     -6.281085  2 He s          
     4     -3.076854  1 He py                 9     -3.076854  2 He py         
     1     -0.700430  1 He s                  6      0.700430  2 He s          


                     DFT Final Beta Molecular Orbital Analysis
                     -----------------------------------------

 Vector    1  Occ=1.000000D+00  E=-1.265415D+00  Symmetry=a1
              MO Center=  3.5D-32, -5.9D-16,  1.5D-15, r^2= 5.7D-01
   Bfn.  Coefficient  Atom+Function         Bfn.  Coefficient  Atom+Function  
  ----- ------------  ---------------      ----- ------------  ---------------
     1      0.569135  1 He s                  6      0.569135  2 He s          
     2      0.093837  1 He s                  7      0.093837  2 He s          
     4     -0.028745  1 He py                 9      0.028745  2 He py         

 Vector    2  Occ=0.000000D+00  E=-9.868974D-01  Symmetry=b2
              MO Center= -2.9D-48,  3.8D-16,  6.4D-16, r^2= 6.9D-01
   Bfn.  Coefficient  Atom+Function         Bfn.  Coefficient  Atom+Function  
  ----- ------------  ---------------      ----- ------------  ---------------
     1      0.665089  1 He s                  6     -0.665089  2 He s          
     2      0.267150  1 He s                  7     -0.267150  2 He s          
     4     -0.030454  1 He py                 9     -0.030454  2 He py         

 Vector    3  Occ=0.000000D+00  E=-1.509704D-01  Symmetry=b1
              MO Center= -3.5D-32,  5.2D-65,  7.1D-78, r^2= 2.1D+00
   Bfn.  Coefficient  Atom+Function         Bfn.  Coefficient  Atom+Function  
  ----- ------------  ---------------      ----- ------------  ---------------
     3      0.551445  1 He px                 8      0.551445  2 He px         

 Vector    4  Occ=0.000000D+00  E=-1.509704D-01  Symmetry=a1
              MO Center= -6.4D-76,  0.0D+00, -2.4D-14, r^2= 2.1D+00
   Bfn.  Coefficient  Atom+Function         Bfn.  Coefficient  Atom+Function  
  ----- ------------  ---------------      ----- ------------  ---------------
     5      0.551445  1 He pz                10      0.551445  2 He pz         

 Vector    5  Occ=0.000000D+00  E=-6.107728D-03  Symmetry=a1
              MO Center=  4.2D-53, -4.0D-28,  3.3D-14, r^2= 3.1D+00
   Bfn.  Coefficient  Atom+Function         Bfn.  Coefficient  Atom+Function  
  ----- ------------  ---------------      ----- ------------  ---------------
     4      0.697702  1 He py                 9     -0.697702  2 He py         
     2      0.619935  1 He s                  7      0.619935  2 He s          
     1     -0.263421  1 He s                  6     -0.263421  2 He s          

 Vector    6  Occ=0.000000D+00  E= 3.713832D-02  Symmetry=b2
              MO Center=  2.1D-48,  2.2D-16, -1.9D-13, r^2= 3.4D+00
   Bfn.  Coefficient  Atom+Function         Bfn.  Coefficient  Atom+Function  
  ----- ------------  ---------------      ----- ------------  ---------------
     4     -1.559111  1 He py                 9     -1.559111  2 He py         
     2      1.548131  1 He s                  7     -1.548131  2 He s          
     1      0.365488  1 He s                  6     -0.365488  2 He s          

 Vector    7  Occ=0.000000D+00  E= 9.932024D-02  Symmetry=a2
              MO Center= -4.4D-48,  2.1D-66,  3.6D-79, r^2= 2.9D+00
   Bfn.  Coefficient  Atom+Function         Bfn.  Coefficient  Atom+Function  
  ----- ------------  ---------------      ----- ------------  ---------------
     3      1.185520  1 He px                 8     -1.185520  2 He px         

 Vector    8  Occ=0.000000D+00  E= 9.932024D-02  Symmetry=b2
              MO Center= -2.3D-73,  0.0D+00,  1.8D-13, r^2= 2.9D+00
   Bfn.  Coefficient  Atom+Function         Bfn.  Coefficient  Atom+Function  
  ----- ------------  ---------------      ----- ------------  ---------------
     5      1.185520  1 He pz                10     -1.185520  2 He pz         

 Vector    9  Occ=0.000000D+00  E= 2.227341D-01  Symmetry=a1
              MO Center= -2.4D-39, -1.3D-16, -1.1D-14, r^2= 1.3D+00
   Bfn.  Coefficient  Atom+Function         Bfn.  Coefficient  Atom+Function  
  ----- ------------  ---------------      ----- ------------  ---------------
     1      0.716320  1 He s                  6      0.716320  2 He s          
     4      0.505098  1 He py                 9     -0.505098  2 He py         
     2     -0.496050  1 He s                  7     -0.496050  2 He s          

 Vector   10  Occ=0.000000D+00  E= 6.701031D-01  Symmetry=b2
              MO Center= -1.6D-48, -2.0D-15,  1.8D-15, r^2= 2.6D+00
   Bfn.  Coefficient  Atom+Function         Bfn.  Coefficient  Atom+Function  
  ----- ------------  ---------------      ----- ------------  ---------------
     2      6.309866  1 He s                  7     -6.309866  2 He s          
     4     -3.110533  1 He py                 9     -3.110533  2 He py         
     1     -0.711823  1 He s                  6      0.711823  2 He s          


   alpha - beta orbital overlaps 
   ----------------------------- 


   alpha      1      2      3      4      5      6      7      8      9     10
    beta      1      2      4      3      5      6      8      7      9     10
 overlap   0.999  0.999  1.000  1.000  0.999  0.999  1.000  1.000  0.999  0.999


     --------------------------
     Expectation value of S2:  
     --------------------------
      <S2> =      0.7518 (Exact =     0.7500)


 center of mass
 --------------
 x =   0.00000000 y =   0.00000000 z =   0.00000000

 moments of inertia (a.u.)
 ------------------
           9.616695067604           0.000000000000           0.000000000000
           0.000000000000           0.000000000000           0.000000000000
           0.000000000000           0.000000000000           9.616695067604

     Multipole analysis of the density
     ---------------------------------

     L   x y z        total         alpha         beta         nuclear
     -   - - -        -----         -----         ----         -------
     0   0 0 0      1.000000     -2.000000     -1.000000      4.000000

     1   1 0 0      0.000000      0.000000      0.000000      0.000000
     1   0 1 0      0.000000      0.000000      0.000000      0.000000
     1   0 0 1     -0.000000     -0.000000     -0.000000      0.000000

     2   2 0 0     -0.946344     -0.593661     -0.352683      0.000000
     2   1 1 0      0.000000      0.000000      0.000000      0.000000
     2   1 0 1      0.000000      0.000000      0.000000      0.000000
     2   0 2 0      0.415981     -3.068654     -1.320589      4.805224
     2   0 1 1      0.000000      0.000000     -0.000000      0.000000
     2   0 0 2     -0.946344     -0.593661     -0.352683      0.000000


            General Information
            -------------------
          SCF calculation type: DFT
          Wavefunction type:  spin polarized.
          No. of atoms     :     2
          No. of electrons :     3
           Alpha electrons :     2
            Beta electrons :     1
          Charge           :     1
          Spin multiplicity:     2
          Use of symmetry is: on ; symmetry adaption is: on 
          Maximum number of iterations:  30
          AO basis - number of functions:    10
                     number of shells:     6
          A Charge density fitting basis will be used.
          CD basis - number of functions:    26
                     number of shells:    12
          Convergence on energy requested:  1.00D-10
          Convergence on density requested:  1.00D-05
          Convergence on gradient requested:  5.00D-04

              XC Information
              --------------
                        HCTH  Method XC Functional
                         HCTH  Exchange Functional  1.000          
                      HCTH  Correlation Functional  1.000          

             Grid Information
             ----------------
          Grid used for XC integration:  medium    
          Radial quadrature: Mura-Knowles        
          Angular quadrature: Lebedev. 
          Tag              B.-S. Rad. Rad. Pts. Rad. Cut. Ang. Pts.
          ---              ---------- --------- --------- ---------
          he                  0.35       49           6.0       434
          Grid pruning is: on 
          Number of quadrature shells:    49
          Spatial weights used:  Erf1

          Convergence Information
          -----------------------
          Convergence aids based upon iterative change in 
          total energy or number of iterations. 
          Levelshifting, if invoked, occurs when the 
          HOMO/LUMO gap drops below (HL_TOL):  1.00D-02
          DIIS, if invoked, will attempt to extrapolate 
          using up to (NFOCK): 10 stored Fock matrices.

                    Damping( 0%)  Levelshifting(0.5)       DIIS
                  --------------- ------------------- ---------------
          dE  on:    start            ASAP                start   
          dE off:    2 iters         30 iters            30 iters 


      Screening Tolerance Information
      -------------------------------
          Density screening/tol_rho:  1.00D-13
          AO Gaussian exp screening on grid/accAOfunc:  23
          CD Gaussian exp screening on grid/accCDfunc:  20
          XC Gaussian exp screening on grid/accXCfunc:  20
          Schwarz screening/accCoul:  1.00D-11

  int_init: cando_txs set to always be  F
  intd_init: cando_txs set to always be  F


                            NWChem DFT Gradient Module
                            --------------------------


                               he2+ hcth functional



  charge          =   1.00
  wavefunction    = open shell

  Using symmetry


                         DFT ENERGY GRADIENTS

    atom               coordinates                        gradient
                 x          y          z           x          y          z
   1 he      0.000000   1.096041   0.000000    0.000000  -0.017101   0.000000
   2 he      0.000000  -1.096041   0.000000    0.000000   0.017101   0.000000

                 ----------------------------------------
                 |  Time  |  1-e(secs)   |  2-e(secs)   |
                 ----------------------------------------
                 |  CPU   |       0.00   |       0.00   |
                 ----------------------------------------
                 |  WALL  |       0.00   |       0.00   |
                 ----------------------------------------

 Task  times  cpu:        0.2s     wall:        0.2s


                                NWChem Input Module
                                -------------------


                            he2+ Becke 1997 functional
                            --------------------------

                                 NWChem DFT Module
                                 -----------------


                            he2+ Becke 1997 functional




 Summary of "ao basis" -> "ao basis" (cartesian)
 ------------------------------------------------------------------------------
       Tag                 Description            Shells   Functions and Types
 ---------------- ------------------------------  ------  ---------------------
 he               modified:DZVP (DFT Orbital)        3        5   2s1p


      Symmetry analysis of basis
      --------------------------

        a1          4
        a2          1
        b1          1
        b2          4

  Caching 1-el integrals 

            General Information
            -------------------
          SCF calculation type: DFT
          Wavefunction type:  spin polarized.
          No. of atoms     :     2
          No. of electrons :     3
           Alpha electrons :     2
            Beta electrons :     1
          Charge           :     1
          Spin multiplicity:     2
          Use of symmetry is: on ; symmetry adaption is: on 
          Maximum number of iterations:  30
          AO basis - number of functions:    10
                     number of shells:     6
          A Charge density fitting basis will be used.
          CD basis - number of functions:    26
                     number of shells:    12
          Convergence on energy requested:  1.00D-10
          Convergence on density requested:  1.00D-05
          Convergence on gradient requested:  5.00D-04

              XC Information
              --------------
                  Becke 1997-1 Method XC Potential
                     Hartree-Fock (Exact) Exchange  0.210          
                  Becke 1997-1 Exchange Functional  1.000          
                Becke 1997-1 Correlation Potential  1.000          

             Grid Information
             ----------------
          Grid used for XC integration:  medium    
          Radial quadrature: Mura-Knowles        
          Angular quadrature: Lebedev. 
          Tag              B.-S. Rad. Rad. Pts. Rad. Cut. Ang. Pts.
          ---              ---------- --------- --------- ---------
          he                  0.35       49           6.0       434
          Grid pruning is: on 
          Number of quadrature shells:    49
          Spatial weights used:  Erf1

          Convergence Information
          -----------------------
          Convergence aids based upon iterative change in 
          total energy or number of iterations. 
          Levelshifting, if invoked, occurs when the 
          HOMO/LUMO gap drops below (HL_TOL):  1.00D-02
          DIIS, if invoked, will attempt to extrapolate 
          using up to (NFOCK): 10 stored Fock matrices.

                    Damping( 0%)  Levelshifting(0.5)       DIIS
                  --------------- ------------------- ---------------
          dE  on:    start            ASAP                start   
          dE off:    2 iters         30 iters            30 iters 


      Screening Tolerance Information
      -------------------------------
          Density screening/tol_rho:  1.00D-13
          AO Gaussian exp screening on grid/accAOfunc:  23
          CD Gaussian exp screening on grid/accCDfunc:  20
          XC Gaussian exp screening on grid/accXCfunc:  20
          Schwarz screening/accCoul:  1.00D-11


 Loading old vectors from job with title :

he2+ hcth functional


   Symmetry analysis of molecular orbitals - initial alpha
   -------------------------------------------------------

  Numbering of irreducible representations: 

     1 a1          2 a2          3 b1          4 b2      

  Orbital symmetries:

     1 a1          2 b2          3 a1          4 b1          5 a1      
     6 b2          7 b2          8 a2          9 a1         10 b2      


   Symmetry analysis of molecular orbitals - initial beta
   ------------------------------------------------------

  Numbering of irreducible representations: 

     1 a1          2 a2          3 b1          4 b2      

  Orbital symmetries:

     1 a1          2 b2          3 b1          4 a1          5 a1      
     6 b2          7 a2          8 b2          9 a1         10 b2      

   Time after variat. SCF:      0.3

      3 Center 2 Electron Integral Information
      ----------------------------------------
          Maximum number of 3-center 2e- integrals is:            2600.
            This is reduced with Schwarz screening to:            1950.
            Incore requires a per proc buffer size of:            1301.
          Minimum dble words available (all nodes) is:        26212708
                   This is reduced (for later use) to:        26037264
                      proc 0 Suggested buffer size is:            1301
                         Max Suggested buffer size is:            1301
                              no. integral batches is:            1000

           0.001 MW buffer allocated for incore 3-center 
          2e- integral storage on stack. 
   Time prior to 1st pass:      0.3

 #quartets = 1.560D+02 #integrals = 4.020D+02 #direct =  0.0% #cached =100.0%


 Integral file          = ./he2+.aoints.0
 Record size in doubles =  65536        No. of integs per rec  =  43688
 Max. records in memory =      2        Max. records in file   =  91355
 No. of bits per label  =      8        No. of bits per value  =     64


File balance: exchanges=     0  moved=     0  time=   0.0


 Grid_pts file          = ./he2+.gridpts.0
 Record size in doubles =  12289        No. of grid_pts per rec  =   3070
 Max. records in memory =      5        Max. recs in file   =    487191


 !! scf_movecs_sym_adapt:    4 vectors were symmetry contaminated

  Symmetry fudging

 !! scf_movecs_sym_adapt:    4 vectors were symmetry contaminated


 !! scf_movecs_sym_adapt:    2 vectors were symmetry contaminated

  Symmetry fudging

 !! scf_movecs_sym_adapt:    2 vectors were symmetry contaminated


           Memory utilization after 1st SCF pass: 
           Heap Space remaining (MW):       12.91            12913016
          Stack Space remaining (MW):       13.10            13104636

   convergence    iter        energy       DeltaE   RMS-Dens  Diis-err    time
 ---------------- ----- ----------------- --------- --------- ---------  ------
 d= 0,ls=0.0,diis     1     -5.0143529551 -6.84D+00  2.17D-03  2.27D-05     0.3
                                                     2.11D-03  5.83D-04

 !! scf_movecs_sym_adapt:    4 vectors were symmetry contaminated

  Symmetry fudging

 !! scf_movecs_sym_adapt:    2 vectors were symmetry contaminated


 !! scf_movecs_sym_adapt:    2 vectors were symmetry contaminated

  Symmetry fudging

 !! scf_movecs_sym_adapt:    2 vectors were symmetry contaminated

 d= 0,ls=0.0,diis     2     -5.0145605833 -2.08D-04  4.27D-04  5.73D-06     0.3
                                                     1.39D-04  2.37D-06

 !! scf_movecs_sym_adapt:    4 vectors were symmetry contaminated

  Symmetry fudging

 !! scf_movecs_sym_adapt:    2 vectors were symmetry contaminated


 !! scf_movecs_sym_adapt:    2 vectors were symmetry contaminated

  Symmetry fudging
 d= 0,ls=0.0,diis     3     -5.0145635187 -2.94D-06  7.88D-06  2.71D-10     0.4
                                                     2.55D-05  6.94D-08

 !! scf_movecs_sym_adapt:    2 vectors were symmetry contaminated

  Symmetry fudging

 !! scf_movecs_sym_adapt:    2 vectors were symmetry contaminated

 d= 0,ls=0.0,diis     4     -5.0145635432 -2.44D-08  2.14D-06  3.28D-11     0.4
                                                     5.50D-07  3.80D-11

 !! scf_movecs_sym_adapt:    4 vectors were symmetry contaminated

  Symmetry fudging
 d= 0,ls=0.0,diis     5     -5.0145635432 -2.59D-11  6.79D-08  1.64D-14     0.4
                                                     1.18D-08  1.71D-14


         Total DFT energy =       -5.014563543190
      One electron energy =       -8.747860626173
           Coulomb energy =        3.563716122859
    Exchange-Corr. energy =       -1.655168174358
 Nuclear repulsion energy =        1.824749134482

 Numeric. integr. density =        2.999999838760

     Total iterative time =      0.1s



                  Occupations of the irreducible representations
                  ----------------------------------------------

                     irrep           alpha         beta
                     --------     --------     --------
                     a1                1.0          1.0
                     a2                0.0          0.0
                     b1                0.0          0.0
                     b2                1.0          0.0


                    DFT Final Alpha Molecular Orbital Analysis
                    ------------------------------------------

 Vector    1  Occ=1.000000D+00  E=-1.466839D+00  Symmetry=a1
              MO Center=  9.3D-27,  4.5D-16, -1.2D-17, r^2= 5.5D-01
   Bfn.  Coefficient  Atom+Function         Bfn.  Coefficient  Atom+Function  
  ----- ------------  ---------------      ----- ------------  ---------------
     1      0.602241  1 He s                  6      0.602241  2 He s          
     2      0.063758  1 He s                  7      0.063758  2 He s          

 Vector    2  Occ=1.000000D+00  E=-1.203024D+00  Symmetry=b2
              MO Center= -1.9D-22, -9.2D-17, -2.3D-17, r^2= 6.4D-01
   Bfn.  Coefficient  Atom+Function         Bfn.  Coefficient  Atom+Function  
  ----- ------------  ---------------      ----- ------------  ---------------
     1      0.697150  1 He s                  6     -0.697150  2 He s          
     2      0.153662  1 He s                  7     -0.153662  2 He s          

 Vector    3  Occ=0.000000D+00  E=-1.324374D-01  Symmetry=b1
              MO Center= -9.3D-27, -4.2D-36, -6.3D-49, r^2= 2.1D+00
   Bfn.  Coefficient  Atom+Function         Bfn.  Coefficient  Atom+Function  
  ----- ------------  ---------------      ----- ------------  ---------------
     3      0.551445  1 He px                 8      0.551445  2 He px         

 Vector    4  Occ=0.000000D+00  E=-1.324374D-01  Symmetry=a1
              MO Center= -4.4D-54,  0.0D+00, -3.1D-15, r^2= 2.1D+00
   Bfn.  Coefficient  Atom+Function         Bfn.  Coefficient  Atom+Function  
  ----- ------------  ---------------      ----- ------------  ---------------
     5      0.551445  1 He pz                10      0.551445  2 He pz         

 Vector    5  Occ=0.000000D+00  E=-1.320907D-02  Symmetry=a1
              MO Center= -1.5D-34, -3.3D-16,  1.5D-15, r^2= 3.1D+00
   Bfn.  Coefficient  Atom+Function         Bfn.  Coefficient  Atom+Function  
  ----- ------------  ---------------      ----- ------------  ---------------
     4      0.690152  1 He py                 9     -0.690152  2 He py         
     2      0.628103  1 He s                  7      0.628103  2 He s          
     1     -0.264190  1 He s                  6     -0.264190  2 He s          

 Vector    6  Occ=0.000000D+00  E= 1.366014D-02  Symmetry=b2
              MO Center= -1.5D-37, -1.0D-15, -2.4D-15, r^2= 3.5D+00
   Bfn.  Coefficient  Atom+Function         Bfn.  Coefficient  Atom+Function  
  ----- ------------  ---------------      ----- ------------  ---------------
     2      1.680611  1 He s                  7     -1.680611  2 He s          
     4     -1.627370  1 He py                 9     -1.627370  2 He py         
     1      0.324742  1 He s                  6     -0.324742  2 He s          

 Vector    7  Occ=0.000000D+00  E= 1.102319D-01  Symmetry=a2
              MO Center=  1.9D-22, -3.5D-47, -5.3D-60, r^2= 2.9D+00
   Bfn.  Coefficient  Atom+Function         Bfn.  Coefficient  Atom+Function  
  ----- ------------  ---------------      ----- ------------  ---------------
     3      1.185520  1 He px                 8     -1.185520  2 He px         

 Vector    8  Occ=0.000000D+00  E= 1.102319D-01  Symmetry=b2
              MO Center= -7.6D-68,  0.0D+00,  1.4D-15, r^2= 2.9D+00
   Bfn.  Coefficient  Atom+Function         Bfn.  Coefficient  Atom+Function  
  ----- ------------  ---------------      ----- ------------  ---------------
     5      1.185520  1 He pz                10     -1.185520  2 He pz         

 Vector    9  Occ=0.000000D+00  E= 2.141895D-01  Symmetry=a1
              MO Center= -1.3D-32, -4.1D-16,  1.5D-15, r^2= 1.4D+00
   Bfn.  Coefficient  Atom+Function         Bfn.  Coefficient  Atom+Function  
  ----- ------------  ---------------      ----- ------------  ---------------
     1      0.688424  1 He s                  6      0.688424  2 He s          
     4      0.515837  1 He py                 9     -0.515837  2 He py         
     2     -0.490523  1 He s                  7     -0.490523  2 He s          

 Vector   10  Occ=0.000000D+00  E= 6.566061D-01  Symmetry=b2
              MO Center= -2.8D-39, -8.9D-16,  1.0D-15, r^2= 2.6D+00
   Bfn.  Coefficient  Atom+Function         Bfn.  Coefficient  Atom+Function  
  ----- ------------  ---------------      ----- ------------  ---------------
     2      6.279683  1 He s                  7     -6.279683  2 He s          
     4     -3.075520  1 He py                 9     -3.075520  2 He py         
     1     -0.700815  1 He s                  6      0.700815  2 He s          


                     DFT Final Beta Molecular Orbital Analysis
                     -----------------------------------------

 Vector    1  Occ=1.000000D+00  E=-1.309591D+00  Symmetry=a1
              MO Center= -2.8D-26, -8.3D-16,  4.7D-17, r^2= 5.7D-01
   Bfn.  Coefficient  Atom+Function         Bfn.  Coefficient  Atom+Function  
  ----- ------------  ---------------      ----- ------------  ---------------
     1      0.560414  1 He s                  6      0.560414  2 He s          
     2      0.100471  1 He s                  7      0.100471  2 He s          
     4     -0.033599  1 He py                 9      0.033599  2 He py         

 Vector    2  Occ=0.000000D+00  E=-9.332258D-01  Symmetry=b2
              MO Center=  8.6D-21,  8.8D-16,  2.4D-17, r^2= 7.0D-01
   Bfn.  Coefficient  Atom+Function         Bfn.  Coefficient  Atom+Function  
  ----- ------------  ---------------      ----- ------------  ---------------
     1      0.651821  1 He s                  6     -0.651821  2 He s          
     2      0.321783  1 He s                  7     -0.321783  2 He s          
     4     -0.047091  1 He py                 9     -0.047091  2 He py         

 Vector    3  Occ=0.000000D+00  E=-1.209521D-01  Symmetry=b1
              MO Center=  2.8D-26, -2.2D-36,  5.5D-50, r^2= 2.1D+00
   Bfn.  Coefficient  Atom+Function         Bfn.  Coefficient  Atom+Function  
  ----- ------------  ---------------      ----- ------------  ---------------
     3      0.551445  1 He px                 8      0.551445  2 He px         

 Vector    4  Occ=0.000000D+00  E=-1.209521D-01  Symmetry=a1
              MO Center=  2.8D-51,  0.0D+00,  2.3D-15, r^2= 2.1D+00
   Bfn.  Coefficient  Atom+Function         Bfn.  Coefficient  Atom+Function  
  ----- ------------  ---------------      ----- ------------  ---------------
     5      0.551445  1 He pz                10      0.551445  2 He pz         

 Vector    5  Occ=0.000000D+00  E= 3.724781D-02  Symmetry=a1
              MO Center= -2.4D-34, -2.2D-16, -1.2D-15, r^2= 3.1D+00
   Bfn.  Coefficient  Atom+Function         Bfn.  Coefficient  Atom+Function  
  ----- ------------  ---------------      ----- ------------  ---------------
     4      0.708444  1 He py                 9     -0.708444  2 He py         
     2      0.609004  1 He s                  7      0.609004  2 He s          
     1     -0.248617  1 He s                  6     -0.248617  2 He s          

 Vector    6  Occ=0.000000D+00  E= 8.416220D-02  Symmetry=b2
              MO Center= -1.5D-16,  8.9D-16,  7.7D-15, r^2= 3.4D+00
   Bfn.  Coefficient  Atom+Function         Bfn.  Coefficient  Atom+Function  
  ----- ------------  ---------------      ----- ------------  ---------------
     2      1.641930  1 He s                  7     -1.641930  2 He s          
     4     -1.603910  1 He py                 9     -1.603910  2 He py         
     1      0.363694  1 He s                  6     -0.363694  2 He s          

 Vector    7  Occ=0.000000D+00  E= 1.368048D-01  Symmetry=a2
              MO Center=  1.5D-16, -2.2D-32,  1.8D-46, r^2= 2.9D+00
   Bfn.  Coefficient  Atom+Function         Bfn.  Coefficient  Atom+Function  
  ----- ------------  ---------------      ----- ------------  ---------------
     3      1.185520  1 He px                 8     -1.185520  2 He px         

 Vector    8  Occ=0.000000D+00  E= 1.368048D-01  Symmetry=b2
              MO Center= -2.7D-61,  0.0D+00, -7.0D-15, r^2= 2.9D+00
   Bfn.  Coefficient  Atom+Function         Bfn.  Coefficient  Atom+Function  
  ----- ------------  ---------------      ----- ------------  ---------------
     5      1.185520  1 He pz                10     -1.185520  2 He pz         

 Vector    9  Occ=0.000000D+00  E= 2.694079D-01  Symmetry=a1
              MO Center= -8.7D-34, -1.9D-16, -1.2D-15, r^2= 1.3D+00
   Bfn.  Coefficient  Atom+Function         Bfn.  Coefficient  Atom+Function  
  ----- ------------  ---------------      ----- ------------  ---------------
     1      0.728385  1 He s                  6      0.728385  2 He s          
     2     -0.508144  1 He s                  7     -0.508144  2 He s          
     4      0.489607  1 He py                 9     -0.489607  2 He py         

 Vector   10  Occ=0.000000D+00  E= 7.144601D-01  Symmetry=b2
              MO Center=  6.5D-33, -2.2D-15, -6.8D-16, r^2= 2.6D+00
   Bfn.  Coefficient  Atom+Function         Bfn.  Coefficient  Atom+Function  
  ----- ------------  ---------------      ----- ------------  ---------------
     2      6.283550  1 He s                  7     -6.283550  2 He s          
     4     -3.087463  1 He py                 9     -3.087463  2 He py         
     1     -0.724894  1 He s                  6      0.724894  2 He s          


   alpha - beta orbital overlaps 
   ----------------------------- 


   alpha      1      2      3      4      5      6      7      8      9     10
    beta      1      2      3      4      5      6      7      8      9     10
 overlap   0.998  0.998  1.000  1.000  0.999  0.999  1.000  1.000  0.998  0.999


     --------------------------
     Expectation value of S2:  
     --------------------------
      <S2> =      0.7531 (Exact =     0.7500)


 center of mass
 --------------
 x =   0.00000000 y =   0.00000000 z =   0.00000000

 moments of inertia (a.u.)
 ------------------
           9.616695067604           0.000000000000           0.000000000000
           0.000000000000           0.000000000000           0.000000000000
           0.000000000000           0.000000000000           9.616695067604

     Multipole analysis of the density
     ---------------------------------

     L   x y z        total         alpha         beta         nuclear
     -   - - -        -----         -----         ----         -------
     0   0 0 0      1.000000     -2.000000     -1.000000      4.000000

     1   1 0 0      0.000000      0.000000      0.000000      0.000000
     1   0 1 0      0.000000      0.000000      0.000000      0.000000
     1   0 0 1     -0.000000      0.000000     -0.000000      0.000000

     2   2 0 0     -0.955430     -0.591338     -0.364092      0.000000
     2   1 1 0      0.000000      0.000000      0.000000      0.000000
     2   1 0 1      0.000000      0.000000      0.000000      0.000000
     2   0 2 0      0.430374     -3.060785     -1.314064      4.805224
     2   0 1 1     -0.000000     -0.000000     -0.000000      0.000000
     2   0 0 2     -0.955430     -0.591338     -0.364092      0.000000


 Parallel integral file used       2 records with       0 large values


            General Information
            -------------------
          SCF calculation type: DFT
          Wavefunction type:  spin polarized.
          No. of atoms     :     2
          No. of electrons :     3
           Alpha electrons :     2
            Beta electrons :     1
          Charge           :     1
          Spin multiplicity:     2
          Use of symmetry is: on ; symmetry adaption is: on 
          Maximum number of iterations:  30
          AO basis - number of functions:    10
                     number of shells:     6
          A Charge density fitting basis will be used.
          CD basis - number of functions:    26
                     number of shells:    12
          Convergence on energy requested:  1.00D-10
          Convergence on density requested:  1.00D-05
          Convergence on gradient requested:  5.00D-04

              XC Information
              --------------
                  Becke 1997-1 Method XC Potential
                     Hartree-Fock (Exact) Exchange  0.210          
                  Becke 1997-1 Exchange Functional  1.000          
                Becke 1997-1 Correlation Potential  1.000          

             Grid Information
             ----------------
          Grid used for XC integration:  medium    
          Radial quadrature: Mura-Knowles        
          Angular quadrature: Lebedev. 
          Tag              B.-S. Rad. Rad. Pts. Rad. Cut. Ang. Pts.
          ---              ---------- --------- --------- ---------
          he                  0.35       49           6.0       434
          Grid pruning is: on 
          Number of quadrature shells:    49
          Spatial weights used:  Erf1

          Convergence Information
          -----------------------
          Convergence aids based upon iterative change in 
          total energy or number of iterations. 
          Levelshifting, if invoked, occurs when the 
          HOMO/LUMO gap drops below (HL_TOL):  1.00D-02
          DIIS, if invoked, will attempt to extrapolate 
          using up to (NFOCK): 10 stored Fock matrices.

                    Damping( 0%)  Levelshifting(0.5)       DIIS
                  --------------- ------------------- ---------------
          dE  on:    start            ASAP                start   
          dE off:    2 iters         30 iters            30 iters 


      Screening Tolerance Information
      -------------------------------
          Density screening/tol_rho:  1.00D-13
          AO Gaussian exp screening on grid/accAOfunc:  23
          CD Gaussian exp screening on grid/accCDfunc:  20
          XC Gaussian exp screening on grid/accXCfunc:  20
          Schwarz screening/accCoul:  1.00D-11

  int_init: cando_txs set to always be  F
  intd_init: cando_txs set to always be  F


                            NWChem DFT Gradient Module
                            --------------------------


                            he2+ Becke 1997 functional



  charge          =   1.00
  wavefunction    = open shell

  Using symmetry


                         DFT ENERGY GRADIENTS

    atom               coordinates                        gradient
                 x          y          z           x          y          z
   1 he      0.000000   1.096041   0.000000    0.000000  -0.007365  -0.000000
   2 he      0.000000  -1.096041   0.000000    0.000000   0.007365  -0.000000

                 ----------------------------------------
                 |  Time  |  1-e(secs)   |  2-e(secs)   |
                 ----------------------------------------
                 |  CPU   |       0.00   |       0.00   |
                 ----------------------------------------
                 |  WALL  |       0.00   |       0.00   |
                 ----------------------------------------

 Task  times  cpu:        0.1s     wall:        0.2s


                                NWChem Input Module
                                -------------------


                                    XC perdew91
                                    -----------
  perdew91 is a nonlocal functional; adding pw91lda local functional. 

                                 NWChem DFT Module
                                 -----------------


                                    XC perdew91




 Summary of "ao basis" -> "ao basis" (cartesian)
 ------------------------------------------------------------------------------
       Tag                 Description            Shells   Functions and Types
 ---------------- ------------------------------  ------  ---------------------
 he               modified:DZVP (DFT Orbital)        3        5   2s1p


      Symmetry analysis of basis
      --------------------------

        a1          4
        a2          1
        b1          1
        b2          4

  Caching 1-el integrals 

            General Information
            -------------------
          SCF calculation type: DFT
          Wavefunction type:  spin polarized.
          No. of atoms     :     2
          No. of electrons :     3
           Alpha electrons :     2
            Beta electrons :     1
          Charge           :     1
          Spin multiplicity:     2
          Use of symmetry is: on ; symmetry adaption is: on 
          Maximum number of iterations:  30
          AO basis - number of functions:    10
                     number of shells:     6
          A Charge density fitting basis will be used.
          CD basis - number of functions:    26
                     number of shells:    12
          Convergence on energy requested:  1.00D-10
          Convergence on density requested:  1.00D-05
          Convergence on gradient requested:  5.00D-04

              XC Information
              --------------
                 Perdew 1991   Exchange Functional  1.000          
                Perdew 1991 Correlation Functional  1.000 non-local
            Perdew 1991 LDA Correlation Functional  1.000 local    

             Grid Information
             ----------------
          Grid used for XC integration:  medium    
          Radial quadrature: Mura-Knowles        
          Angular quadrature: Lebedev. 
          Tag              B.-S. Rad. Rad. Pts. Rad. Cut. Ang. Pts.
          ---              ---------- --------- --------- ---------
          he                  0.35       49           6.0       434
          Grid pruning is: on 
          Number of quadrature shells:    49
          Spatial weights used:  Erf1

          Convergence Information
          -----------------------
          Convergence aids based upon iterative change in 
          total energy or number of iterations. 
          Levelshifting, if invoked, occurs when the 
          HOMO/LUMO gap drops below (HL_TOL):  1.00D-02
          DIIS, if invoked, will attempt to extrapolate 
          using up to (NFOCK): 10 stored Fock matrices.

                    Damping( 0%)  Levelshifting(0.5)       DIIS
                  --------------- ------------------- ---------------
          dE  on:    start            ASAP                start   
          dE off:    2 iters         30 iters            30 iters 


      Screening Tolerance Information
      -------------------------------
          Density screening/tol_rho:  1.00D-13
          AO Gaussian exp screening on grid/accAOfunc:  23
          CD Gaussian exp screening on grid/accCDfunc:  20
          XC Gaussian exp screening on grid/accXCfunc:  20
          Schwarz screening/accCoul:  1.00D-11


 Loading old vectors from job with title :

he2+ Becke 1997 functional


   Symmetry analysis of molecular orbitals - initial alpha
   -------------------------------------------------------

  Numbering of irreducible representations: 

     1 a1          2 a2          3 b1          4 b2      

  Orbital symmetries:

     1 a1          2 b2          3 b1          4 a1          5 a1      
     6 b2          7 a2          8 b2          9 a1         10 b2      


   Symmetry analysis of molecular orbitals - initial beta
   ------------------------------------------------------

  Numbering of irreducible representations: 

     1 a1          2 a2          3 b1          4 b2      

  Orbital symmetries:

     1 a1          2 b2          3 b1          4 a1          5 a1      
     6 b2          7 a2          8 b2          9 a1         10 b2      

   Time after variat. SCF:      0.4

      3 Center 2 Electron Integral Information
      ----------------------------------------
          Maximum number of 3-center 2e- integrals is:            2600.
            This is reduced with Schwarz screening to:            1950.
            Incore requires a per proc buffer size of:            1301.
          Minimum dble words available (all nodes) is:        26212708
                   This is reduced (for later use) to:        26037264
                      proc 0 Suggested buffer size is:            1301
                         Max Suggested buffer size is:            1301
                              no. integral batches is:            1000

           0.001 MW buffer allocated for incore 3-center 
          2e- integral storage on stack. 
   Time prior to 1st pass:      0.4

 Grid_pts file          = ./he2+.gridpts.0
 Record size in doubles =  12289        No. of grid_pts per rec  =   3070
 Max. records in memory =      5        Max. recs in file   =    487191


 !! scf_movecs_sym_adapt:    4 vectors were symmetry contaminated

  Symmetry fudging

 !! scf_movecs_sym_adapt:    2 vectors were symmetry contaminated


 !! scf_movecs_sym_adapt:    4 vectors were symmetry contaminated

  Symmetry fudging

           Memory utilization after 1st SCF pass: 
           Heap Space remaining (MW):       13.04            13044104
          Stack Space remaining (MW):       13.10            13104636

   convergence    iter        energy       DeltaE   RMS-Dens  Diis-err    time
 ---------------- ----- ----------------- --------- --------- ---------  ------
 d= 0,ls=0.0,diis     1     -5.0129994978 -6.84D+00  2.26D-03  4.21D-04     0.5
                                                     1.67D-03  3.06D-04

 !! scf_movecs_sym_adapt:    2 vectors were symmetry contaminated

  Symmetry fudging

 !! scf_movecs_sym_adapt:    4 vectors were symmetry contaminated

  Symmetry fudging
 d= 0,ls=0.0,diis     2     -5.0132799514 -2.80D-04  5.19D-05  2.03D-07     0.5
                                                     2.64D-04  6.24D-06

 !! scf_movecs_sym_adapt:    2 vectors were symmetry contaminated

  Symmetry fudging

 !! scf_movecs_sym_adapt:    4 vectors were symmetry contaminated

  Symmetry fudging

 !! scf_movecs_sym_adapt:    2 vectors were symmetry contaminated

 d= 0,ls=0.0,diis     3     -5.0132822537 -2.30D-06  5.81D-05  8.25D-08     0.5
                                                     1.25D-05  2.45D-08

 !! scf_movecs_sym_adapt:    2 vectors were symmetry contaminated

  Symmetry fudging

 !! scf_movecs_sym_adapt:    4 vectors were symmetry contaminated

  Symmetry fudging
 d= 0,ls=0.0,diis     4     -5.0132822853 -3.16D-08  1.53D-06  6.82D-12     0.5
                                                     1.50D-07  2.55D-12

 !! scf_movecs_sym_adapt:    4 vectors were symmetry contaminated

  Symmetry fudging

 !! scf_movecs_sym_adapt:    2 vectors were symmetry contaminated

 d= 0,ls=0.0,diis     5     -5.0132822853 -3.59D-12  9.00D-09  1.05D-15     0.5
                                                     2.34D-09  7.44D-16


         Total DFT energy =       -5.013282285320
      One electron energy =       -8.746565666176
           Coulomb energy =        3.558503941603
    Exchange-Corr. energy =       -1.649969695230
 Nuclear repulsion energy =        1.824749134482

 Numeric. integr. density =        2.999999837406

     Total iterative time =      0.1s



                  Occupations of the irreducible representations
                  ----------------------------------------------

                     irrep           alpha         beta
                     --------     --------     --------
                     a1                1.0          1.0
                     a2                0.0          0.0
                     b1                0.0          0.0
                     b2                1.0          0.0


                    DFT Final Alpha Molecular Orbital Analysis
                    ------------------------------------------

 Vector    1  Occ=1.000000D+00  E=-1.374920D+00  Symmetry=a1
              MO Center= -7.8D-27,  1.0D-16, -3.7D-19, r^2= 5.5D-01
   Bfn.  Coefficient  Atom+Function         Bfn.  Coefficient  Atom+Function  
  ----- ------------  ---------------      ----- ------------  ---------------
     1      0.596771  1 He s                  6      0.596771  2 He s          
     2      0.069131  1 He s                  7      0.069131  2 He s          

 Vector    2  Occ=1.000000D+00  E=-1.117518D+00  Symmetry=b2
              MO Center=  5.0D-21,  1.7D-16,  7.6D-18, r^2= 6.5D-01
   Bfn.  Coefficient  Atom+Function         Bfn.  Coefficient  Atom+Function  
  ----- ------------  ---------------      ----- ------------  ---------------
     1      0.692439  1 He s                  6     -0.692439  2 He s          
     2      0.158566  1 He s                  7     -0.158566  2 He s          

 Vector    3  Occ=0.000000D+00  E=-1.795870D-01  Symmetry=b1
              MO Center=  7.8D-27,  2.6D-39,  2.9D-50, r^2= 2.1D+00
   Bfn.  Coefficient  Atom+Function         Bfn.  Coefficient  Atom+Function  
  ----- ------------  ---------------      ----- ------------  ---------------
     3      0.551445  1 He px                 8      0.551445  2 He px         

 Vector    4  Occ=0.000000D+00  E=-1.795870D-01  Symmetry=a1
              MO Center=  6.3D-52,  0.0D+00,  9.4D-17, r^2= 2.1D+00
   Bfn.  Coefficient  Atom+Function         Bfn.  Coefficient  Atom+Function  
  ----- ------------  ---------------      ----- ------------  ---------------
     5      0.551445  1 He pz                10      0.551445  2 He pz         

 Vector    5  Occ=0.000000D+00  E=-5.764211D-02  Symmetry=a1
              MO Center=  3.7D-39, -3.2D-15, -9.6D-17, r^2= 3.1D+00
   Bfn.  Coefficient  Atom+Function         Bfn.  Coefficient  Atom+Function  
  ----- ------------  ---------------      ----- ------------  ---------------
     4      0.677481  1 He py                 9     -0.677481  2 He py         
     2      0.639601  1 He s                  7      0.639601  2 He s          
     1     -0.282963  1 He s                  6     -0.282963  2 He s          

 Vector    6  Occ=0.000000D+00  E=-2.586989D-02  Symmetry=b2
              MO Center= -1.2D-16,  3.0D-15, -1.0D-15, r^2= 3.5D+00
   Bfn.  Coefficient  Atom+Function         Bfn.  Coefficient  Atom+Function  
  ----- ------------  ---------------      ----- ------------  ---------------
     4     -1.559169  1 He py                 9     -1.559169  2 He py         
     2      1.542993  1 He s                  7     -1.542993  2 He s          
     1      0.345771  1 He s                  6     -0.345771  2 He s          

 Vector    7  Occ=0.000000D+00  E= 6.682919D-02  Symmetry=a2
              MO Center=  1.2D-16, -1.3D-32, -1.4D-47, r^2= 2.9D+00
   Bfn.  Coefficient  Atom+Function         Bfn.  Coefficient  Atom+Function  
  ----- ------------  ---------------      ----- ------------  ---------------
     3      1.185520  1 He px                 8     -1.185520  2 He px         

 Vector    8  Occ=0.000000D+00  E= 6.682919D-02  Symmetry=b2
              MO Center=  1.5D-62,  0.0D+00,  1.4D-15, r^2= 2.9D+00
   Bfn.  Coefficient  Atom+Function         Bfn.  Coefficient  Atom+Function  
  ----- ------------  ---------------      ----- ------------  ---------------
     5      1.185520  1 He pz                10     -1.185520  2 He pz         

 Vector    9  Occ=0.000000D+00  E= 1.598700D-01  Symmetry=a1
              MO Center=  6.5D-33,  4.4D-16,  3.1D-18, r^2= 1.4D+00
   Bfn.  Coefficient  Atom+Function         Bfn.  Coefficient  Atom+Function  
  ----- ------------  ---------------      ----- ------------  ---------------
     1      0.685722  1 He s                  6      0.685722  2 He s          
     4      0.532330  1 He py                 9     -0.532330  2 He py         
     2     -0.474681  1 He s                  7     -0.474681  2 He s          

 Vector   10  Occ=0.000000D+00  E= 6.066272D-01  Symmetry=b2
              MO Center= -2.7D-33, -8.9D-16, -4.0D-16, r^2= 2.6D+00
   Bfn.  Coefficient  Atom+Function         Bfn.  Coefficient  Atom+Function  
  ----- ------------  ---------------      ----- ------------  ---------------
     2      6.314785  1 He s                  7     -6.314785  2 He s          
     4     -3.110653  1 He py                 9     -3.110653  2 He py         
     1     -0.695404  1 He s                  6      0.695404  2 He s          


                     DFT Final Beta Molecular Orbital Analysis
                     -----------------------------------------

 Vector    1  Occ=1.000000D+00  E=-1.260433D+00  Symmetry=a1
              MO Center=  5.4D-30, -1.3D-36, -1.4D-18, r^2= 5.7D-01
   Bfn.  Coefficient  Atom+Function         Bfn.  Coefficient  Atom+Function  
  ----- ------------  ---------------      ----- ------------  ---------------
     1      0.567862  1 He s                  6      0.567862  2 He s          
     2      0.094153  1 He s                  7      0.094153  2 He s          
     4     -0.030780  1 He py                 9      0.030780  2 He py         

 Vector    2  Occ=0.000000D+00  E=-9.804358D-01  Symmetry=b2
              MO Center=  2.4D-21, -2.7D-16, -6.8D-19, r^2= 6.9D-01
   Bfn.  Coefficient  Atom+Function         Bfn.  Coefficient  Atom+Function  
  ----- ------------  ---------------      ----- ------------  ---------------
     1      0.666005  1 He s                  6     -0.666005  2 He s          
     2      0.262082  1 He s                  7     -0.262082  2 He s          
     4     -0.028464  1 He py                 9     -0.028464  2 He py         

 Vector    3  Occ=0.000000D+00  E=-1.588956D-01  Symmetry=b1
              MO Center= -5.4D-30, -1.1D-37, -1.0D-52, r^2= 2.1D+00
   Bfn.  Coefficient  Atom+Function         Bfn.  Coefficient  Atom+Function  
  ----- ------------  ---------------      ----- ------------  ---------------
     3      0.551445  1 He px                 8      0.551445  2 He px         

 Vector    4  Occ=0.000000D+00  E=-1.588956D-01  Symmetry=a1
              MO Center=  4.0D-52,  0.0D+00,  2.0D-16, r^2= 2.1D+00
   Bfn.  Coefficient  Atom+Function         Bfn.  Coefficient  Atom+Function  
  ----- ------------  ---------------      ----- ------------  ---------------
     5      0.551445  1 He pz                10      0.551445  2 He pz         

 Vector    5  Occ=0.000000D+00  E=-7.387363D-03  Symmetry=a1
              MO Center=  8.8D-39, -9.8D-15, -1.2D-16, r^2= 3.1D+00
   Bfn.  Coefficient  Atom+Function         Bfn.  Coefficient  Atom+Function  
  ----- ------------  ---------------      ----- ------------  ---------------
     4      0.698129  1 He py                 9     -0.698129  2 He py         
     2      0.619599  1 He s                  7      0.619599  2 He s          
     1     -0.262026  1 He s                  6     -0.262026  2 He s          

 Vector    6  Occ=0.000000D+00  E= 3.292939D-02  Symmetry=b2
              MO Center=  1.9D-37,  9.5D-15, -9.0D-16, r^2= 3.4D+00
   Bfn.  Coefficient  Atom+Function         Bfn.  Coefficient  Atom+Function  
  ----- ------------  ---------------      ----- ------------  ---------------
     2      1.597020  1 He s                  7     -1.597020  2 He s          
     4     -1.583252  1 He py                 9     -1.583252  2 He py         
     1      0.359518  1 He s                  6     -0.359518  2 He s          

 Vector    7  Occ=0.000000D+00  E= 9.927822D-02  Symmetry=a2
              MO Center= -2.4D-21, -1.8D-44, -1.9D-59, r^2= 2.9D+00
   Bfn.  Coefficient  Atom+Function         Bfn.  Coefficient  Atom+Function  
  ----- ------------  ---------------      ----- ------------  ---------------
     3      1.185520  1 He px                 8     -1.185520  2 He px         

 Vector    8  Occ=0.000000D+00  E= 9.927822D-02  Symmetry=b2
              MO Center= -1.2D-67,  0.0D+00,  1.5D-15, r^2= 2.9D+00
   Bfn.  Coefficient  Atom+Function         Bfn.  Coefficient  Atom+Function  
  ----- ------------  ---------------      ----- ------------  ---------------
     5      1.185520  1 He pz                10     -1.185520  2 He pz         

 Vector    9  Occ=0.000000D+00  E= 2.100044D-01  Symmetry=a1
              MO Center=  2.9D-33, -3.3D-16, -7.7D-17, r^2= 1.3D+00
   Bfn.  Coefficient  Atom+Function         Bfn.  Coefficient  Atom+Function  
  ----- ------------  ---------------      ----- ------------  ---------------
     1      0.717840  1 He s                  6      0.717840  2 He s          
     4      0.504387  1 He py                 9     -0.504387  2 He py         
     2     -0.496410  1 He s                  7     -0.496410  2 He s          

 Vector   10  Occ=0.000000D+00  E= 6.606204D-01  Symmetry=b2
              MO Center= -2.6D-38,  1.8D-15, -5.9D-16, r^2= 2.6D+00
   Bfn.  Coefficient  Atom+Function         Bfn.  Coefficient  Atom+Function  
  ----- ------------  ---------------      ----- ------------  ---------------
     2      6.297882  1 He s                  7     -6.297882  2 He s          
     4     -3.098334  1 He py                 9     -3.098334  2 He py         
     1     -0.714003  1 He s                  6      0.714003  2 He s          


   alpha - beta orbital overlaps 
   ----------------------------- 


   alpha      1      2      3      4      5      6      7      8      9     10
    beta      1      2      3      4      5      6      7      8      9     10
 overlap   0.999  0.999  1.000  1.000  0.999  1.000  1.000  1.000  0.999  1.000


     --------------------------
     Expectation value of S2:  
     --------------------------
      <S2> =      0.7515 (Exact =     0.7500)


 center of mass
 --------------
 x =   0.00000000 y =   0.00000000 z =   0.00000000

 moments of inertia (a.u.)
 ------------------
           9.616695067604           0.000000000000           0.000000000000
           0.000000000000           0.000000000000           0.000000000000
           0.000000000000           0.000000000000           9.616695067604

     Multipole analysis of the density
     ---------------------------------

     L   x y z        total         alpha         beta         nuclear
     -   - - -        -----         -----         ----         -------
     0   0 0 0      1.000000     -2.000000     -1.000000      4.000000

     1   1 0 0      0.000000      0.000000      0.000000      0.000000
     1   0 1 0      0.000000      0.000000      0.000000      0.000000
     1   0 0 1     -0.000000     -0.000000      0.000000      0.000000

     2   2 0 0     -0.957499     -0.603187     -0.354312      0.000000
     2   1 1 0      0.000000      0.000000      0.000000      0.000000
     2   1 0 1      0.000000      0.000000      0.000000      0.000000
     2   0 2 0      0.409094     -3.079525     -1.316605      4.805224
     2   0 1 1     -0.000000     -0.000000     -0.000000      0.000000
     2   0 0 2     -0.957499     -0.603187     -0.354312      0.000000


            General Information
            -------------------
          SCF calculation type: DFT
          Wavefunction type:  spin polarized.
          No. of atoms     :     2
          No. of electrons :     3
           Alpha electrons :     2
            Beta electrons :     1
          Charge           :     1
          Spin multiplicity:     2
          Use of symmetry is: on ; symmetry adaption is: on 
          Maximum number of iterations:  30
          AO basis - number of functions:    10
                     number of shells:     6
          A Charge density fitting basis will be used.
          CD basis - number of functions:    26
                     number of shells:    12
          Convergence on energy requested:  1.00D-10
          Convergence on density requested:  1.00D-05
          Convergence on gradient requested:  5.00D-04

              XC Information
              --------------
                 Perdew 1991   Exchange Functional  1.000          
                Perdew 1991 Correlation Functional  1.000 non-local
            Perdew 1991 LDA Correlation Functional  1.000 local    

             Grid Information
             ----------------
          Grid used for XC integration:  medium    
          Radial quadrature: Mura-Knowles        
          Angular quadrature: Lebedev. 
          Tag              B.-S. Rad. Rad. Pts. Rad. Cut. Ang. Pts.
          ---              ---------- --------- --------- ---------
          he                  0.35       49           6.0       434
          Grid pruning is: on 
          Number of quadrature shells:    49
          Spatial weights used:  Erf1

          Convergence Information
          -----------------------
          Convergence aids based upon iterative change in 
          total energy or number of iterations. 
          Levelshifting, if invoked, occurs when the 
          HOMO/LUMO gap drops below (HL_TOL):  1.00D-02
          DIIS, if invoked, will attempt to extrapolate 
          using up to (NFOCK): 10 stored Fock matrices.

                    Damping( 0%)  Levelshifting(0.5)       DIIS
                  --------------- ------------------- ---------------
          dE  on:    start            ASAP                start   
          dE off:    2 iters         30 iters            30 iters 


      Screening Tolerance Information
      -------------------------------
          Density screening/tol_rho:  1.00D-13
          AO Gaussian exp screening on grid/accAOfunc:  23
          CD Gaussian exp screening on grid/accCDfunc:  20
          XC Gaussian exp screening on grid/accXCfunc:  20
          Schwarz screening/accCoul:  1.00D-11

  int_init: cando_txs set to always be  F
  intd_init: cando_txs set to always be  F


                            NWChem DFT Gradient Module
                            --------------------------


                                    XC perdew91



  charge          =   1.00
  wavefunction    = open shell

  Using symmetry


                         DFT ENERGY GRADIENTS

    atom               coordinates                        gradient
                 x          y          z           x          y          z
   1 he      0.000000   1.096041   0.000000    0.000000  -0.014022   0.000000
   2 he      0.000000  -1.096041   0.000000    0.000000   0.014022   0.000000

                 ----------------------------------------
                 |  Time  |  1-e(secs)   |  2-e(secs)   |
                 ----------------------------------------
                 |  CPU   |       0.00   |       0.00   |
                 ----------------------------------------
                 |  WALL  |       0.00   |       0.00   |
                 ----------------------------------------

 Task  times  cpu:        0.1s     wall:        0.1s


                                NWChem Input Module
                                -------------------


                                     XC pbe96
                                     --------
  pbe96 is a nonlocal functional; adding pw91lda local functional. 

                                 NWChem DFT Module
                                 -----------------


                                     XC pbe96




 Summary of "ao basis" -> "ao basis" (cartesian)
 ------------------------------------------------------------------------------
       Tag                 Description            Shells   Functions and Types
 ---------------- ------------------------------  ------  ---------------------
 he               modified:DZVP (DFT Orbital)        3        5   2s1p


      Symmetry analysis of basis
      --------------------------

        a1          4
        a2          1
        b1          1
        b2          4

  Caching 1-el integrals 

            General Information
            -------------------
          SCF calculation type: DFT
          Wavefunction type:  spin polarized.
          No. of atoms     :     2
          No. of electrons :     3
           Alpha electrons :     2
            Beta electrons :     1
          Charge           :     1
          Spin multiplicity:     2
          Use of symmetry is: on ; symmetry adaption is: on 
          Maximum number of iterations:  30
          AO basis - number of functions:    10
                     number of shells:     6
          A Charge density fitting basis will be used.
          CD basis - number of functions:    26
                     number of shells:    12
          Convergence on energy requested:  1.00D-10
          Convergence on density requested:  1.00D-05
          Convergence on gradient requested:  5.00D-04

              XC Information
              --------------
          PerdewBurkeErnzerhof Exchange Functional  1.000          
            Perdew 1991 LDA Correlation Functional  1.000 local    
           PerdewBurkeErnz. Correlation Functional  1.000 non-local

             Grid Information
             ----------------
          Grid used for XC integration:  medium    
          Radial quadrature: Mura-Knowles        
          Angular quadrature: Lebedev. 
          Tag              B.-S. Rad. Rad. Pts. Rad. Cut. Ang. Pts.
          ---              ---------- --------- --------- ---------
          he                  0.35       49           6.0       434
          Grid pruning is: on 
          Number of quadrature shells:    49
          Spatial weights used:  Erf1

          Convergence Information
          -----------------------
          Convergence aids based upon iterative change in 
          total energy or number of iterations. 
          Levelshifting, if invoked, occurs when the 
[...]
                                                     1.12D-05  2.08D-08

 !! scf_movecs_sym_adapt:    4 vectors were symmetry contaminated

  Symmetry fudging

 !! scf_movecs_sym_adapt:    4 vectors were symmetry contaminated

  Symmetry fudging

 !! scf_movecs_sym_adapt:    2 vectors were symmetry contaminated

 d= 0,ls=0.0,diis     4     -5.0136919293 -4.36D-08  1.02D-06  9.80D-12     1.4
                                                     6.40D-07  4.50D-11

 !! scf_movecs_sym_adapt:    4 vectors were symmetry contaminated

  Symmetry fudging

 !! scf_movecs_sym_adapt:    2 vectors were symmetry contaminated


 !! scf_movecs_sym_adapt:    4 vectors were symmetry contaminated

  Symmetry fudging

 !! scf_movecs_sym_adapt:    2 vectors were symmetry contaminated

 d= 0,ls=0.0,diis     5     -5.0136919294 -1.86D-11  2.72D-08  2.34D-15     1.4
                                                     2.87D-09  1.01D-15


         Total DFT energy =       -5.013691929367
      One electron energy =       -8.748432011361
           Coulomb energy =        3.563062387366
    Exchange-Corr. energy =       -1.653071439854
 Nuclear repulsion energy =        1.824749134482

 Numeric. integr. density =        2.999999841787

     Total iterative time =      0.1s



                  Occupations of the irreducible representations
                  ----------------------------------------------

                     irrep           alpha         beta
                     --------     --------     --------
                     a1                1.0          1.0
                     a2                0.0          0.0
                     b1                0.0          0.0
                     b2                1.0          0.0


                    DFT Final Alpha Molecular Orbital Analysis
                    ------------------------------------------

 Vector    1  Occ=1.000000D+00  E=-1.363872D+00  Symmetry=a1
              MO Center=  3.3D-27,  7.8D-16,  7.4D-16, r^2= 5.5D-01
   Bfn.  Coefficient  Atom+Function         Bfn.  Coefficient  Atom+Function  
  ----- ------------  ---------------      ----- ------------  ---------------
     1      0.598200  1 He s                  6      0.598200  2 He s          
     2      0.068851  1 He s                  7      0.068851  2 He s          

 Vector    2  Occ=1.000000D+00  E=-1.108505D+00  Symmetry=b2
              MO Center= -8.9D-21, -7.6D-16,  6.3D-16, r^2= 6.5D-01
   Bfn.  Coefficient  Atom+Function         Bfn.  Coefficient  Atom+Function  
  ----- ------------  ---------------      ----- ------------  ---------------
     1      0.691950  1 He s                  6     -0.691950  2 He s          
     2      0.161808  1 He s                  7     -0.161808  2 He s          

 Vector    3  Occ=0.000000D+00  E=-1.545163D-01  Symmetry=b1
              MO Center= -3.3D-27, -9.6D-38,  1.3D-48, r^2= 2.1D+00
   Bfn.  Coefficient  Atom+Function         Bfn.  Coefficient  Atom+Function  
  ----- ------------  ---------------      ----- ------------  ---------------
     3      0.551445  1 He px                 8      0.551445  2 He px         

 Vector    4  Occ=0.000000D+00  E=-1.545163D-01  Symmetry=a1
              MO Center= -2.2D-51,  0.0D+00, -7.6D-15, r^2= 2.1D+00
   Bfn.  Coefficient  Atom+Function         Bfn.  Coefficient  Atom+Function  
  ----- ------------  ---------------      ----- ------------  ---------------
     5      0.551445  1 He pz                10      0.551445  2 He pz         

 Vector    5  Occ=0.000000D+00  E=-3.626311D-02  Symmetry=a1
              MO Center= -2.0D-34,  1.1D-16,  2.8D-15, r^2= 3.1D+00
   Bfn.  Coefficient  Atom+Function         Bfn.  Coefficient  Atom+Function  
  ----- ------------  ---------------      ----- ------------  ---------------
     4      0.680763  1 He py                 9     -0.680763  2 He py         
     2      0.636566  1 He s                  7      0.636566  2 He s          
     1     -0.279721  1 He s                  6     -0.279721  2 He s          

 Vector    6  Occ=0.000000D+00  E=-7.486792D-03  Symmetry=b2
              MO Center=  2.0D-36, -5.0D-29, -8.0D-15, r^2= 3.5D+00
   Bfn.  Coefficient  Atom+Function         Bfn.  Coefficient  Atom+Function  
  ----- ------------  ---------------      ----- ------------  ---------------
     2      1.623679  1 He s                  7     -1.623679  2 He s          
     4     -1.598831  1 He py                 9     -1.598831  2 He py         
     1      0.337021  1 He s                  6     -0.337021  2 He s          

 Vector    7  Occ=0.000000D+00  E= 8.582153D-02  Symmetry=a2
              MO Center=  8.9D-21, -2.1D-44,  2.9D-55, r^2= 2.9D+00
   Bfn.  Coefficient  Atom+Function         Bfn.  Coefficient  Atom+Function  
  ----- ------------  ---------------      ----- ------------  ---------------
     3      1.185520  1 He px                 8     -1.185520  2 He px         

 Vector    8  Occ=0.000000D+00  E= 8.582153D-02  Symmetry=b2
              MO Center=  3.8D-65,  0.0D+00,  6.5D-15, r^2= 2.9D+00
   Bfn.  Coefficient  Atom+Function         Bfn.  Coefficient  Atom+Function  
  ----- ------------  ---------------      ----- ------------  ---------------
     5      1.185520  1 He pz                10     -1.185520  2 He pz         

 Vector    9  Occ=0.000000D+00  E= 1.997051D-01  Symmetry=a1
              MO Center= -5.8D-35, -8.3D-17,  4.1D-15, r^2= 1.4D+00
   Bfn.  Coefficient  Atom+Function         Bfn.  Coefficient  Atom+Function  
  ----- ------------  ---------------      ----- ------------  ---------------
     1      0.685807  1 He s                  6      0.685807  2 He s          
     4      0.528215  1 He py                 9     -0.528215  2 He py         
     2     -0.478784  1 He s                  7     -0.478784  2 He s          

 Vector   10  Occ=0.000000D+00  E= 6.349094D-01  Symmetry=b2
              MO Center=  1.0D-37,  2.4D-15,  8.7D-16, r^2= 2.6D+00
   Bfn.  Coefficient  Atom+Function         Bfn.  Coefficient  Atom+Function  
  ----- ------------  ---------------      ----- ------------  ---------------
     2      6.294439  1 He s                  7     -6.294439  2 He s          
     4     -3.090455  1 He py                 9     -3.090455  2 He py         
     1     -0.700171  1 He s                  6      0.700171  2 He s          


                     DFT Final Beta Molecular Orbital Analysis
                     -----------------------------------------

 Vector    1  Occ=1.000000D+00  E=-1.263241D+00  Symmetry=a1
              MO Center=  5.0D-26,  1.4D-16, -8.6D-17, r^2= 5.7D-01
   Bfn.  Coefficient  Atom+Function         Bfn.  Coefficient  Atom+Function  
  ----- ------------  ---------------      ----- ------------  ---------------
     1      0.571664  1 He s                  6      0.571664  2 He s          
     2      0.091313  1 He s                  7      0.091313  2 He s          
     4     -0.028513  1 He py                 9      0.028513  2 He py         

 Vector    2  Occ=0.000000D+00  E=-1.001057D+00  Symmetry=b2
              MO Center= -6.3D-23,  1.1D-17, -1.4D-16, r^2= 6.7D-01
   Bfn.  Coefficient  Atom+Function         Bfn.  Coefficient  Atom+Function  
  ----- ------------  ---------------      ----- ------------  ---------------
     1      0.673834  1 He s                  6     -0.673834  2 He s          
     2      0.236982  1 He s                  7     -0.236982  2 He s          

 Vector    3  Occ=0.000000D+00  E=-1.423050D-01  Symmetry=b1
              MO Center= -5.0D-26, -1.9D-39, -4.2D-52, r^2= 2.1D+00
   Bfn.  Coefficient  Atom+Function         Bfn.  Coefficient  Atom+Function  
  ----- ------------  ---------------      ----- ------------  ---------------
     3      0.551445  1 He px                 8      0.551445  2 He px         

 Vector    4  Occ=0.000000D+00  E=-1.423050D-01  Symmetry=a1
              MO Center= -6.8D-61,  0.0D+00, -5.0D-16, r^2= 2.1D+00
   Bfn.  Coefficient  Atom+Function         Bfn.  Coefficient  Atom+Function  
  ----- ------------  ---------------      ----- ------------  ---------------
     5      0.551445  1 He pz                10      0.551445  2 He pz         

 Vector    5  Occ=0.000000D+00  E= 1.341542D-04  Symmetry=a1
              MO Center=  2.9D-35, -6.7D-15, -2.1D-15, r^2= 3.1D+00
   Bfn.  Coefficient  Atom+Function         Bfn.  Coefficient  Atom+Function  
  ----- ------------  ---------------      ----- ------------  ---------------
     4      0.704550  1 He py                 9     -0.704550  2 He py         
     2      0.613197  1 He s                  7      0.613197  2 He s          
     1     -0.252539  1 He s                  6     -0.252539  2 He s          

 Vector    6  Occ=0.000000D+00  E= 3.213524D-02  Symmetry=b2
              MO Center= -7.8D-17,  6.8D-15,  7.3D-15, r^2= 3.5D+00
   Bfn.  Coefficient  Atom+Function         Bfn.  Coefficient  Atom+Function  
  ----- ------------  ---------------      ----- ------------  ---------------
     2      1.699504  1 He s                  7     -1.699504  2 He s          
     4     -1.634449  1 He py                 9     -1.634449  2 He py         
     1      0.341405  1 He s                  6     -0.341405  2 He s          

 Vector    7  Occ=0.000000D+00  E= 1.105384D-01  Symmetry=a2
              MO Center=  7.8D-17, -6.1D-33,  4.5D-47, r^2= 2.9D+00
   Bfn.  Coefficient  Atom+Function         Bfn.  Coefficient  Atom+Function  
  ----- ------------  ---------------      ----- ------------  ---------------
     3      1.185520  1 He px                 8     -1.185520  2 He px         

 Vector    8  Occ=0.000000D+00  E= 1.105384D-01  Symmetry=b2
              MO Center=  1.8D-61,  0.0D+00, -6.0D-15, r^2= 2.9D+00
   Bfn.  Coefficient  Atom+Function         Bfn.  Coefficient  Atom+Function  
  ----- ------------  ---------------      ----- ------------  ---------------
     5      1.185520  1 He pz                10     -1.185520  2 He pz         

 Vector    9  Occ=0.000000D+00  E= 2.361846D-01  Symmetry=a1
              MO Center=  3.0D-35, -3.5D-18,  2.6D-15, r^2= 1.3D+00
   Bfn.  Coefficient  Atom+Function         Bfn.  Coefficient  Atom+Function  
  ----- ------------  ---------------      ----- ------------  ---------------
     1      0.718222  1 He s                  6      0.718222  2 He s          
     2     -0.504819  1 He s                  7     -0.504819  2 He s          
     4      0.495515  1 He py                 9     -0.495515  2 He py         

 Vector   10  Occ=0.000000D+00  E= 6.805295D-01  Symmetry=b2
              MO Center= -1.6D-33,  1.3D-15, -1.2D-15, r^2= 2.5D+00
   Bfn.  Coefficient  Atom+Function         Bfn.  Coefficient  Atom+Function  
  ----- ------------  ---------------      ----- ------------  ---------------
     2      6.272002  1 He s                  7     -6.272002  2 He s          
     4     -3.071676  1 He py                 9     -3.071676  2 He py         
     1     -0.715547  1 He s                  6      0.715547  2 He s          


   alpha - beta orbital overlaps 
   ----------------------------- 


   alpha      1      2      3      4      5      6      7      8      9     10
    beta      1      2      3      4      5      6      7      8      9     10
 overlap   0.999  1.000  1.000  1.000  0.999  1.000  1.000  1.000  0.998  1.000


     --------------------------
     Expectation value of S2:  
     --------------------------
      <S2> =      0.7513 (Exact =     0.7500)


 center of mass
 --------------
 x =   0.00000000 y =   0.00000000 z =   0.00000000

 moments of inertia (a.u.)
 ------------------
           9.616695067604           0.000000000000           0.000000000000
           0.000000000000           0.000000000000           0.000000000000
           0.000000000000           0.000000000000           9.616695067604

     Multipole analysis of the density
     ---------------------------------

     L   x y z        total         alpha         beta         nuclear
     -   - - -        -----         -----         ----         -------
     0   0 0 0      1.000000     -2.000000     -1.000000      4.000000

     1   1 0 0      0.000000      0.000000      0.000000      0.000000
     1   0 1 0     -0.000000     -0.000000      0.000000      0.000000
     1   0 0 1     -0.000000     -0.000000      0.000000      0.000000

     2   2 0 0     -0.951451     -0.602038     -0.349413      0.000000
     2   1 1 0      0.000000      0.000000      0.000000      0.000000
     2   1 0 1      0.000000      0.000000      0.000000      0.000000
     2   0 2 0      0.400599     -3.084870     -1.319755      4.805224
     2   0 1 1     -0.000000     -0.000000     -0.000000      0.000000
     2   0 0 2     -0.951451     -0.602038     -0.349413      0.000000


            General Information
            -------------------
          SCF calculation type: DFT
          Wavefunction type:  spin polarized.
          No. of atoms     :     2
          No. of electrons :     3
           Alpha electrons :     2
            Beta electrons :     1
          Charge           :     1
          Spin multiplicity:     2
          Use of symmetry is: on ; symmetry adaption is: on 
          Maximum number of iterations:  30
          AO basis - number of functions:    10
                     number of shells:     6
          A Charge density fitting basis will be used.
          CD basis - number of functions:    26
                     number of shells:    12
          Convergence on energy requested:  1.00D-10
          Convergence on density requested:  1.00D-05
          Convergence on gradient requested:  5.00D-04

              XC Information
              --------------
                  PKZB metaGGA Exchange Functional  1.000          
             PKZB99 metaGGA Correlation Functional  1.000          

             Grid Information
             ----------------
          Grid used for XC integration:  medium    
          Radial quadrature: Mura-Knowles        
          Angular quadrature: Lebedev. 
          Tag              B.-S. Rad. Rad. Pts. Rad. Cut. Ang. Pts.
          ---              ---------- --------- --------- ---------
          he                  0.35       49           6.0       434
          Grid pruning is: on 
          Number of quadrature shells:    49
          Spatial weights used:  Erf1

          Convergence Information
          -----------------------
          Convergence aids based upon iterative change in 
          total energy or number of iterations. 
          Levelshifting, if invoked, occurs when the 
          HOMO/LUMO gap drops below (HL_TOL):  1.00D-02
          DIIS, if invoked, will attempt to extrapolate 
          using up to (NFOCK): 10 stored Fock matrices.

                    Damping( 0%)  Levelshifting(0.5)       DIIS
                  --------------- ------------------- ---------------
          dE  on:    start            ASAP                start   
          dE off:    2 iters         30 iters            30 iters 


      Screening Tolerance Information
      -------------------------------
          Density screening/tol_rho:  1.00D-13
          AO Gaussian exp screening on grid/accAOfunc:  23
          CD Gaussian exp screening on grid/accCDfunc:  20
          XC Gaussian exp screening on grid/accXCfunc:  20
          Schwarz screening/accCoul:  1.00D-11

  int_init: cando_txs set to always be  F
  intd_init: cando_txs set to always be  F


                            NWChem DFT Gradient Module
                            --------------------------


                                      XC PKZB



  charge          =   1.00
  wavefunction    = open shell

  Using symmetry


                         DFT ENERGY GRADIENTS

    atom               coordinates                        gradient
                 x          y          z           x          y          z
   1 he      0.000000   1.096041   0.000000    0.000000  -0.020834  -0.000000
   2 he      0.000000  -1.096041   0.000000    0.000000   0.020834  -0.000000

                 ----------------------------------------
                 |  Time  |  1-e(secs)   |  2-e(secs)   |
                 ----------------------------------------
                 |  CPU   |       0.00   |       0.00   |
                 ----------------------------------------
                 |  WALL  |       0.00   |       0.00   |
                 ----------------------------------------

 Task  times  cpu:        0.2s     wall:        0.2s


                                NWChem Input Module
                                -------------------


 Summary of allocated global arrays
-----------------------------------
  No active global arrays



                         GA Statistics for process    0
                         ------------------------------

       create   destroy   get      put      acc     scatter   gather  read&inc
calls: 3402     3402     2.65e+04 1.08e+04 8804        0        0     2056     
number of processes/call 1.07e+00 1.06e+00 1.10e+00 0.00e+00 0.00e+00
bytes total:             6.71e+06 2.79e+06 3.07e+06 0.00e+00 0.00e+00 1.64e+04
bytes remote:            8.97e+05 5.90e+05 4.60e+05 0.00e+00 0.00e+00 0.00e+00
Max memory consumed for GA by this process: 52000 bytes

MA_summarize_allocated_blocks: starting scan ...
MA_summarize_allocated_blocks: scan completed: 0 heap blocks, 0 stack blocks
MA usage statistics:

	allocation statistics:
					      heap	     stack
					      ----	     -----
	current number of blocks	         0	         0
	maximum number of blocks	        28	        58
	current total bytes		         0	         0
	maximum total bytes		   1552904	  22510280
	maximum total K-bytes		      1553	     22511
	maximum total M-bytes		         2	        23


                                     CITATION
                                     --------
                Please cite the following reference when publishing
                           results obtained with NWChem:

                 M. Valiev, E.J. Bylaska, N. Govind, K. Kowalski,
              T.P. Straatsma, H.J.J. van Dam, D. Wang, J. Nieplocha,
                        E. Apra, T.L. Windus, W.A. de Jong
                 "NWChem: a comprehensive and scalable open-source
                  solution for large scale molecular simulations"
                      Comput. Phys. Commun. 181, 1477 (2010)
                           doi:10.1016/j.cpc.2010.04.018

                                      AUTHORS
                                      -------
          E. Apra, E. J. Bylaska, W. A. de Jong, N. Govind, K. Kowalski,
       T. P. Straatsma, M. Valiev, H. J. J. van Dam, D. Wang, T. L. Windus,
        J. Hammond, J. Autschbach, K. Bhaskaran-Nair, J. Brabec, K. Lopata,
    S. A. Fischer, S. Krishnamoorthy, M. Jacquelin, W. Ma, M. Klemm, O. Villa,
      Y. Chen, V. Anisimov, F. Aquino, S. Hirata, M. T. Hackler, V. Konjkov,
      T. Risthaus, M. Malagoli, A. Marenich, A. Otero-de-la-Roza, J. Mullin,
        P. Nichols, R. Peverati, J. Pittner, Y. Zhao, P.-D. Fan, A. Fonari,
       M. Williamson, R. J. Harrison, J. R. Rehr, M. Dupuis, D. Silverstein,
    D. M. A. Smith, J. Nieplocha, V. Tipparaju, M. Krishnan, B. E. Van Kuiken,
        A. Vazquez-Mayagoitia, L. Jensen, M. Swart, Q. Wu, T. Van Voorhis,
     A. A. Auer, M. Nooijen, L. D. Crosby, E. Brown, G. Cisneros, G. I. Fann,
   H. Fruchtl, J. Garza, K. Hirao, R. A. Kendall, J. A. Nichols, K. Tsemekhman,
    K. Wolinski, J. Anchell, D. E. Bernholdt, P. Borowski, T. Clark, D. Clerc,
   H. Dachsel, M. J. O. Deegan, K. Dyall, D. Elwood, E. Glendening, M. Gutowski,
   A. C. Hess, J. Jaffe, B. G. Johnson, J. Ju, R. Kobayashi, R. Kutteh, Z. Lin,
   R. Littlefield, X. Long, B. Meng, T. Nakajima, S. Niu, L. Pollack, M. Rosing,
   K. Glaesemann, G. Sandrone, M. Stave, H. Taylor, G. Thomas, J. H. van Lenthe,
                               A. T. Wong, Z. Zhang.

 Total times  cpu:        1.2s     wall:        1.4s
