 argument  1 = /Users/edo/nwchem/nwchem-adft/QA/tests/dft_he2+/dft_he2+.nw



============================== echo of input deck ==============================
echo

title "he2+ hcth functional"

start he2+

geometry units angstrom print
he 0.   0.58 0.
symmetry c2v
end

basis "ao basis"
he library "DZVP (DFT Orbital)"
he p
 0.183 1.
end

basis "cd basis"
he library DGauss_A2_DFT_Coulomb_Fitting
end

charge +1.0

dft
mult 2
#grid lebedev 100 8
grid medium
convergence energy 1d-10
XC hcth
end

task dft gradient

title "he2+ hcth147 functional"
set dft:use_hcth147 t
dft
XC hcth147
end

task dft gradient

title "he2+ hcth147@tz2p functional"
dft
XC hcth147@tz2p
end

task dft gradient

title "he2+ Becke 1997 functional"
dft
XC becke97-1
end

task dft gradient

title "XC perdew91 "
dft
XC xperdew91 perdew91
end

task dft gradient


title "XC pbe96 "
dft
XC xpbe96 cpbe96
end

task dft gradient

title "XC b3lyp "
dft
XC b3lyp
end

task dft gradient

#title "XC ft97 "
#dft
#XC ft97
#end
#
#task dft gradient

title "XC BOP "
dft
XC bop
end

task dft gradient

title "XC TPSS03 "
dft
XC xtpss03 ctpss03
end

task dft gradient

title "XC PKZB "
dft
XC xpkzb99 cpkzb99
end

task dft gradient
================================================================================


                                         
                                         


             Northwest Computational Chemistry Package (NWChem) 7.0.1
             --------------------------------------------------------


                    Environmental Molecular Sciences Laboratory
                       Pacific Northwest National Laboratory
                                Richland, WA 99352

                              Copyright (c) 1994-2020
                       Pacific Northwest National Laboratory
                            Battelle Memorial Institute

             NWChem is an open-source computational chemistry package
                        distributed under the terms of the
                      Educational Community License (ECL) 2.0
             A copy of the license is included with this distribution
                              in the LICENSE.TXT file

                                  ACKNOWLEDGMENT
                                  --------------

            This software and its documentation were developed at the
            EMSL at Pacific Northwest National Laboratory, a multiprogram
            national laboratory, operated for the U.S. Department of Energy
            by Battelle under Contract Number DE-AC05-76RL01830. Support
            for this work was provided by the Department of Energy Office
            of Biological and Environmental Research, Office of Basic
            Energy Sciences, and the Office of Advanced Scientific Computing.


           Job information
           ---------------

    hostname        = WD86392
    program         = /Users/edo/nwchem/nwchem-adft/bin/MACX64/nwchem
    date            = Wed Aug  3 15:37:12 2022

    compiled        = Wed_Aug_03_15:36:55_2022
    source          = /Users/edo/nwchem/nwchem-adft
    nwchem branch   = 7.0.0
    nwchem revision = nwchem_on_git-4028-gaef13b7ed3
    ga revision     = 5.8.1
    use scalapack   = T
    input           = /Users/edo/nwchem/nwchem-adft/QA/tests/dft_he2+/dft_he2+.nw
    prefix          = he2+.
    data base       = ./he2+.db
    status          = startup
    nproc           =        2
    time left       =     -1s



           Memory information
           ------------------

    heap     =   26214396 doubles =    200.0 Mbytes
    stack    =   26214401 doubles =    200.0 Mbytes
    global   =   52428800 doubles =    400.0 Mbytes (distinct from heap & stack)
    total    =  104857597 doubles =    800.0 Mbytes
    verify   = yes
    hardfail = no 


           Directory information
           ---------------------

  0 permanent = .
  0 scratch   = .




                                NWChem Input Module
                                -------------------


                               he2+ hcth functional
                               --------------------

 Scaling coordinates for geometry "geometry" by  1.889725989
 (inverse scale =  0.529177249)



                             Geometry "geometry" -> ""
                             -------------------------

 Output coordinates in angstroms (scale by  1.889725989 to convert to a.u.)

  No.       Tag          Charge          X              Y              Z
 ---- ---------------- ---------- -------------- -------------- --------------
    1 he                   2.0000     0.00000000     0.58000000     0.00000000
    2 he                   2.0000     0.00000000    -0.58000000     0.00000000

      Atomic Mass 
      ----------- 

      he                 4.002600


 Effective nuclear repulsion energy (a.u.)       1.8247491345

            Nuclear Dipole moment (a.u.) 
            ----------------------------
        X                 Y               Z
 ---------------- ---------------- ----------------
     0.0000000000     0.0000000000     0.0000000000

      Symmetry information
      --------------------

 Group name             C2v       
 Group number             16
 Group order               4
 No. of unique centers     1

      Symmetry unique atoms

     1

                      Basis "ao basis" -> "" (cartesian)
                      -----
  he (Helium)
  -----------
            Exponent  Coefficients 
       -------------- ---------------------------------------------------------
  1 S  2.21388030E+02  0.002749
  1 S  3.32619660E+01  0.020866
  1 S  7.56165490E+00  0.097059
  1 S  2.08559900E+00  0.280729
  1 S  6.14339200E-01  0.474222

  2 S  1.82921200E-01  1.000000

  3 P  1.83000000E-01  1.000000



 Summary of "ao basis" -> "" (cartesian)
 ------------------------------------------------------------------------------
       Tag                 Description            Shells   Functions and Types
 ---------------- ------------------------------  ------  ---------------------
 he               modified:DZVP (DFT Orbital)        3        5   2s1p


                      Basis "cd basis" -> "" (cartesian)
                      -----
  he (Helium)
  -----------
            Exponent  Coefficients 
       -------------- ---------------------------------------------------------
  1 S  5.40000000E+01  1.000000

  2 S  9.00000000E+00  1.000000

  3 S  3.60000000E-01  1.000000

  4 S  1.80000000E+00  1.000000

  5 P  1.80000000E+00  1.000000

  6 D  1.80000000E+00  1.000000



 Summary of "cd basis" -> "" (cartesian)
 ------------------------------------------------------------------------------
       Tag                 Description            Shells   Functions and Types
 ---------------- ------------------------------  ------  ---------------------
 he               DGauss A2 DFT Coulomb Fitting      6       13   4s1p1d



                                 NWChem DFT Module
                                 -----------------


                               he2+ hcth functional




 Summary of "ao basis" -> "ao basis" (cartesian)
 ------------------------------------------------------------------------------
       Tag                 Description            Shells   Functions and Types
 ---------------- ------------------------------  ------  ---------------------
 he               modified:DZVP (DFT Orbital)        3        5   2s1p


      Symmetry analysis of basis
      --------------------------

        a1          4
        a2          1
        b1          1
        b2          4

  Caching 1-el integrals 
  itol2e modified to match energy
  convergence criterion.
  tol_rho modified to match energy
  convergence criterion.

            General Information
            -------------------
          SCF calculation type: DFT
          Wavefunction type:  spin polarized.
          No. of atoms     :     2
          No. of electrons :     3
           Alpha electrons :     2
            Beta electrons :     1
          Charge           :     1
          Spin multiplicity:     2
          Use of symmetry is: on ; symmetry adaption is: on 
          Maximum number of iterations:  50
          AO basis - number of functions:    10
                     number of shells:     6
          A Charge density fitting basis will be used.
          CD basis - number of functions:    26
                     number of shells:    12
          Convergence on energy requested:  1.00D-10
          Convergence on density requested:  1.00D-05
          Convergence on gradient requested:  5.00D-04

              XC Information
              --------------
                        HCTH  Method XC Functional
                         HCTH  Exchange Functional  1.000          
                      HCTH  Correlation Functional  1.000          

             Grid Information
             ----------------
          Grid used for XC integration:  medium    
          Radial quadrature: Mura-Knowles        
          Angular quadrature: Lebedev. 
          Tag              B.-S. Rad. Rad. Pts. Rad. Cut. Ang. Pts.
          ---              ---------- --------- --------- ---------
          he                  0.35       49           6.0       434
          Grid pruning is: on 
          Number of quadrature shells:    49
          Spatial weights used:  Erf1

          Convergence Information
          -----------------------
          Convergence aids based upon iterative change in 
          total energy or number of iterations. 
          Levelshifting, if invoked, occurs when the 
          HOMO/LUMO gap drops below (HL_TOL):  1.00D-02
          DIIS, if invoked, will attempt to extrapolate 
          using up to (NFOCK): 10 stored Fock matrices.

                    Damping( 0%)  Levelshifting(0.5)       DIIS
                  --------------- ------------------- ---------------
          dE  on:    start            ASAP                start   
          dE off:    2 iters         50 iters            50 iters 


      Screening Tolerance Information
      -------------------------------
          Density screening/tol_rho:  1.00D-13
          AO Gaussian exp screening on grid/accAOfunc:  23
          CD Gaussian exp screening on grid/accCDfunc:  20
          XC Gaussian exp screening on grid/accXCfunc:  20
          Schwarz screening/accCoul:  1.00D-11


      Superposition of Atomic Density Guess
      -------------------------------------

 Sum of atomic energies:          -5.72112150

 Renormalizing density from       4.00 to      3

      Non-variational initial energy
      ------------------------------

 Total energy =      -4.625399
 1-e energy   =      -8.548265
 2-e energy   =       2.098116
 HOMO         =      -1.163870
 LUMO         =      -0.036107


   Symmetry analysis of molecular orbitals - initial alpha
   -------------------------------------------------------


 !! scf_movecs_sym_adapt:    4 vectors were symmetry contaminated

  Symmetry fudging

 !! scf_movecs_sym_adapt:    4 vectors were symmetry contaminated

  Numbering of irreducible representations: 

     1 a1          2 a2          3 b1          4 b2      

  Orbital symmetries:

     1 a1          2 b2          3 b1          4 a1          5 a1      
     6 b2          7 a2          8 b2          9 a1         10 b2      


   Symmetry analysis of molecular orbitals - initial beta
   ------------------------------------------------------


 !! scf_movecs_sym_adapt:    4 vectors were symmetry contaminated

  Symmetry fudging

 !! scf_movecs_sym_adapt:    4 vectors were symmetry contaminated

  Numbering of irreducible representations: 

     1 a1          2 a2          3 b1          4 b2      

  Orbital symmetries:

     1 a1          2 b2          3 b1          4 a1          5 a1      
     6 b2          7 a2          8 b2          9 a1         10 b2      

   Time after variat. SCF:      0.0

      3 Center 2 Electron Integral Information
      ----------------------------------------
          Maximum number of 3-center 2e- integrals is:            2600.
            This is reduced with Schwarz screening to:            1950.
            Incore requires a per proc buffer size of:            1301.
          Minimum dble words available (all nodes) is:        52427100
                   This is reduced (for later use) to:        52269016
                      proc 0 Suggested buffer size is:            1301
                         Max Suggested buffer size is:            1301
                              no. integral batches is:            1000

           0.001 MW buffer allocated for incore 3-center 
          2e- integral storage on stack. 
   Time prior to 1st pass:      0.0

 Grid_pts file          = ./he2+.gridpts.0
 Record size in doubles =  12289        No. of grid_pts per rec  =   3070
 Max. records in memory =      5        Max. recs in file   = 506625431


           Memory utilization after 1st SCF pass: 
           Heap Space remaining (MW):        0.00                  58
          Stack Space remaining (MW):       26.21            26211836

   convergence    iter        energy       DeltaE   RMS-Dens  Diis-err    time
 ---------------- ----- ----------------- --------- --------- ---------  ------
 d= 0,ls=0.0,diis     1     -5.0324604029 -6.86D+00  3.49D-02  2.52D-02     0.1
                                                     3.35D-03  1.13D-03
 d= 0,ls=0.0,diis     2     -5.0401725128 -7.71D-03  2.39D-03  2.80D-04     0.1
                                                     1.64D-03  3.46D-04
 d= 0,ls=0.0,diis     3     -5.0403640357 -1.92D-04  2.95D-04  1.63D-06     0.1
                                                     2.80D-05  4.67D-08

 !! scf_movecs_sym_adapt:    2 vectors were symmetry contaminated

  Symmetry fudging
 d= 0,ls=0.0,diis     4     -5.0403645829 -5.47D-07  8.13D-07  2.32D-11     0.1
                                                     2.21D-07  8.27D-12

 !! scf_movecs_sym_adapt:    4 vectors were symmetry contaminated

  Symmetry fudging

 !! scf_movecs_sym_adapt:    2 vectors were symmetry contaminated

  Symmetry fudging
 d= 0,ls=0.0,diis     5     -5.0403645829 -9.24D-12  1.36D-08  1.05D-15     0.1
                                                     3.24D-09  1.32D-15


         Total DFT energy =       -5.040364582930
      One electron energy =       -8.751366654125
           Coulomb energy =        3.570196125816
    Exchange-Corr. energy =       -1.683943189103
 Nuclear repulsion energy =        1.824749134482

 Numeric. integr. density =        2.999999845618

     Total iterative time =      0.0s



                  Occupations of the irreducible representations
                  ----------------------------------------------

                     irrep           alpha         beta
                     --------     --------     --------
                     a1                1.0          1.0
                     a2                0.0          0.0
                     b1                0.0          0.0
                     b2                1.0          0.0


                    DFT Final Alpha Molecular Orbital Analysis
                    ------------------------------------------

 Vector    1  Occ=1.000000D+00  E=-1.370042D+00  Symmetry=a1
              MO Center=  3.3D-21, -3.1D-16, -1.7D-16, r^2= 5.5D-01
   Bfn.  Coefficient  Atom+Function         Bfn.  Coefficient  Atom+Function  
  ----- ------------  ---------------      ----- ------------  ---------------
     1      0.601404  1 He s                  6      0.601404  2 He s          
     2      0.064641  1 He s                  7      0.064641  2 He s          

 Vector    2  Occ=1.000000D+00  E=-1.115265D+00  Symmetry=b2
              MO Center= -1.2D-20,  5.6D-17, -1.2D-16, r^2= 6.5D-01
   Bfn.  Coefficient  Atom+Function         Bfn.  Coefficient  Atom+Function  
  ----- ------------  ---------------      ----- ------------  ---------------
     1      0.696179  1 He s                  6     -0.696179  2 He s          
     2      0.146921  1 He s                  7     -0.146921  2 He s          

 Vector    3  Occ=0.000000D+00  E=-1.603398D-01  Symmetry=a1
              MO Center=  9.5D-50, -5.3D-18,  7.9D-17, r^2= 2.1D+00
   Bfn.  Coefficient  Atom+Function         Bfn.  Coefficient  Atom+Function  
  ----- ------------  ---------------      ----- ------------  ---------------
     5      0.551445  1 He pz                10      0.551445  2 He pz         

 Vector    4  Occ=0.000000D+00  E=-1.603398D-01  Symmetry=b1
              MO Center= -3.3D-21, -1.3D-17, -4.9D-51, r^2= 2.1D+00
   Bfn.  Coefficient  Atom+Function         Bfn.  Coefficient  Atom+Function  
  ----- ------------  ---------------      ----- ------------  ---------------
     3      0.551445  1 He px                 8      0.551445  2 He px         

 Vector    5  Occ=0.000000D+00  E=-4.585861D-02  Symmetry=a1
              MO Center= -2.1D-35,  6.1D-17,  6.4D-15, r^2= 3.1D+00
   Bfn.  Coefficient  Atom+Function         Bfn.  Coefficient  Atom+Function  
  ----- ------------  ---------------      ----- ------------  ---------------
     4      0.682888  1 He py                 9     -0.682888  2 He py         
     2      0.634854  1 He s                  7      0.634854  2 He s          
     1     -0.274185  1 He s                  6     -0.274185  2 He s          

 Vector    6  Occ=0.000000D+00  E=-2.070948D-02  Symmetry=b2
              MO Center= -1.6D-35,  9.6D-16, -2.5D-14, r^2= 3.5D+00
   Bfn.  Coefficient  Atom+Function         Bfn.  Coefficient  Atom+Function  
  ----- ------------  ---------------      ----- ------------  ---------------
     2      1.678264  1 He s                  7     -1.678264  2 He s          
     4     -1.625977  1 He py                 9     -1.625977  2 He py         
     1      0.327397  1 He s                  6     -0.327397  2 He s          

 Vector    7  Occ=0.000000D+00  E= 7.708047D-02  Symmetry=b2
              MO Center= -7.4D-59, -4.6D-18,  2.7D-14, r^2= 2.9D+00
   Bfn.  Coefficient  Atom+Function         Bfn.  Coefficient  Atom+Function  
  ----- ------------  ---------------      ----- ------------  ---------------
     5      1.185520  1 He pz                10     -1.185520  2 He pz         

 Vector    8  Occ=0.000000D+00  E= 7.708047D-02  Symmetry=a2
              MO Center=  1.2D-20, -4.6D-17, -1.3D-55, r^2= 2.9D+00
   Bfn.  Coefficient  Atom+Function         Bfn.  Coefficient  Atom+Function  
  ----- ------------  ---------------      ----- ------------  ---------------
     3      1.185520  1 He px                 8     -1.185520  2 He px         

 Vector    9  Occ=0.000000D+00  E= 1.844509D-01  Symmetry=a1
              MO Center= -2.4D-35, -8.0D-18, -6.3D-15, r^2= 1.4D+00
   Bfn.  Coefficient  Atom+Function         Bfn.  Coefficient  Atom+Function  
  ----- ------------  ---------------      ----- ------------  ---------------
     1      0.685240  1 He s                  6      0.685240  2 He s          
     4      0.525414  1 He py                 9     -0.525414  2 He py         
     2     -0.481636  1 He s                  7     -0.481636  2 He s          

 Vector   10  Occ=0.000000D+00  E= 6.178893D-01  Symmetry=b2
              MO Center=  3.1D-34,  1.1D-15, -1.8D-15, r^2= 2.6D+00
   Bfn.  Coefficient  Atom+Function         Bfn.  Coefficient  Atom+Function  
  ----- ------------  ---------------      ----- ------------  ---------------
     2      6.280472  1 He s                  7     -6.280472  2 He s          
     4     -3.076258  1 He py                 9     -3.076258  2 He py         
     1     -0.700544  1 He s                  6      0.700544  2 He s          


                     DFT Final Beta Molecular Orbital Analysis
                     -----------------------------------------

 Vector    1  Occ=1.000000D+00  E=-1.261874D+00  Symmetry=a1
              MO Center=  1.2D-19,  6.1D-16,  5.6D-17, r^2= 5.7D-01
   Bfn.  Coefficient  Atom+Function         Bfn.  Coefficient  Atom+Function  
  ----- ------------  ---------------      ----- ------------  ---------------
     1      0.569154  1 He s                  6      0.569154  2 He s          
     2      0.093831  1 He s                  7      0.093831  2 He s          
     4     -0.028718  1 He py                 9      0.028718  2 He py         

 Vector    2  Occ=0.000000D+00  E=-9.833721D-01  Symmetry=b2
              MO Center= -2.7D-19, -5.4D-16,  3.1D-16, r^2= 6.9D-01
   Bfn.  Coefficient  Atom+Function         Bfn.  Coefficient  Atom+Function  
  ----- ------------  ---------------      ----- ------------  ---------------
     1      0.665082  1 He s                  6     -0.665082  2 He s          
     2      0.267008  1 He s                  7     -0.267008  2 He s          
     4     -0.030351  1 He py                 9     -0.030351  2 He py         

 Vector    3  Occ=0.000000D+00  E=-1.475180D-01  Symmetry=b1
              MO Center= -1.2D-19,  4.1D-18,  4.7D-48, r^2= 2.1D+00
   Bfn.  Coefficient  Atom+Function         Bfn.  Coefficient  Atom+Function  
  ----- ------------  ---------------      ----- ------------  ---------------
     3      0.551445  1 He px                 8      0.551445  2 He px         

 Vector    4  Occ=0.000000D+00  E=-1.475180D-01  Symmetry=a1
              MO Center= -2.6D-54,  1.2D-17,  2.2D-14, r^2= 2.1D+00
   Bfn.  Coefficient  Atom+Function         Bfn.  Coefficient  Atom+Function  
  ----- ------------  ---------------      ----- ------------  ---------------
     5      0.551445  1 He pz                10      0.551445  2 He pz         

 Vector    5  Occ=0.000000D+00  E=-2.925893D-03  Symmetry=a1
              MO Center=  6.8D-34, -8.1D-17, -2.6D-14, r^2= 3.1D+00
   Bfn.  Coefficient  Atom+Function         Bfn.  Coefficient  Atom+Function  
  ----- ------------  ---------------      ----- ------------  ---------------
     4      0.697801  1 He py                 9     -0.697801  2 He py         
     2      0.619837  1 He s                  7      0.619837  2 He s          
     1     -0.263290  1 He s                  6     -0.263290  2 He s          

 Vector    6  Occ=0.000000D+00  E= 4.024011D-02  Symmetry=b2
              MO Center= -3.5D-17,  1.1D-15,  2.0D-13, r^2= 3.4D+00
   Bfn.  Coefficient  Atom+Function         Bfn.  Coefficient  Atom+Function  
  ----- ------------  ---------------      ----- ------------  ---------------
     4     -1.560319  1 He py                 9     -1.560319  2 He py         
     2      1.550589  1 He s                  7     -1.550589  2 He s          
     1      0.365239  1 He s                  6     -0.365239  2 He s          

 Vector    7  Occ=0.000000D+00  E= 1.025550D-01  Symmetry=a2
              MO Center=  3.5D-17, -4.6D-17,  2.4D-46, r^2= 2.9D+00
   Bfn.  Coefficient  Atom+Function         Bfn.  Coefficient  Atom+Function  
  ----- ------------  ---------------      ----- ------------  ---------------
     3      1.185520  1 He px                 8     -1.185520  2 He px         

 Vector    8  Occ=0.000000D+00  E= 1.025550D-01  Symmetry=b2
              MO Center=  1.5D-58, -4.6D-18, -2.1D-13, r^2= 2.9D+00
   Bfn.  Coefficient  Atom+Function         Bfn.  Coefficient  Atom+Function  
  ----- ------------  ---------------      ----- ------------  ---------------
     5      1.185520  1 He pz                10     -1.185520  2 He pz         

 Vector    9  Occ=0.000000D+00  E= 2.263607D-01  Symmetry=a1
              MO Center=  1.1D-33, -8.4D-16,  4.0D-15, r^2= 1.3D+00
   Bfn.  Coefficient  Atom+Function         Bfn.  Coefficient  Atom+Function  
  ----- ------------  ---------------      ----- ------------  ---------------
     1      0.716353  1 He s                  6      0.716353  2 He s          
     4      0.504962  1 He py                 9     -0.504962  2 He py         
     2     -0.496174  1 He s                  7     -0.496174  2 He s          

 Vector   10  Occ=0.000000D+00  E= 6.733931D-01  Symmetry=b2
              MO Center=  3.2D-36, -3.3D-16,  1.2D-14, r^2= 2.6D+00
   Bfn.  Coefficient  Atom+Function         Bfn.  Coefficient  Atom+Function  
  ----- ------------  ---------------      ----- ------------  ---------------
     2      6.309268  1 He s                  7     -6.309268  2 He s          
     4     -3.109928  1 He py                 9     -3.109928  2 He py         
     1     -0.711956  1 He s                  6      0.711956  2 He s          


   alpha - beta orbital overlaps 
   ----------------------------- 


   alpha      1      2      3      4      5      6      7      8      9     10
    beta      1      2      4      3      5      6      8      7      9     10
 overlap   0.999  0.999  1.000  1.000  0.999  0.999  1.000  1.000  0.999  0.999


     --------------------------
     Expectation value of S2:  
     --------------------------
      <S2> =      0.7518 (Exact =     0.7500)


 center of mass
 --------------
 x =   0.00000000 y =   0.00000000 z =   0.00000000

 moments of inertia (a.u.)
 ------------------
           9.616695067604           0.000000000000           0.000000000000
           0.000000000000           0.000000000000           0.000000000000
           0.000000000000           0.000000000000           9.616695067604

     Multipole analysis of the density
     ---------------------------------

     L   x y z        total         alpha         beta         nuclear
     -   - - -        -----         -----         ----         -------
     0   0 0 0      1.000000     -2.000000     -1.000000      4.000000

     1   1 0 0      0.000000      0.000000      0.000000      0.000000
     1   0 1 0      0.000000      0.000000      0.000000      0.000000
     1   0 0 1      0.000000      0.000000     -0.000000      0.000000

     2   2 0 0     -0.946309     -0.593651     -0.352658      0.000000
     2   1 1 0     -0.000000     -0.000000      0.000000      0.000000
     2   1 0 1     -0.000000      0.000000     -0.000000      0.000000
     2   0 2 0      0.415815     -3.068768     -1.320641      4.805224
     2   0 1 1     -0.000000     -0.000000      0.000000      0.000000
     2   0 0 2     -0.946309     -0.593651     -0.352658      0.000000


            General Information
            -------------------
          SCF calculation type: DFT
          Wavefunction type:  spin polarized.
          No. of atoms     :     2
          No. of electrons :     3
           Alpha electrons :     2
            Beta electrons :     1
          Charge           :     1
          Spin multiplicity:     2
          Use of symmetry is: on ; symmetry adaption is: on 
          Maximum number of iterations:  50
          AO basis - number of functions:    10
                     number of shells:     6
          A Charge density fitting basis will be used.
          CD basis - number of functions:    26
                     number of shells:    12
          Convergence on energy requested:  1.00D-10
          Convergence on density requested:  1.00D-05
          Convergence on gradient requested:  5.00D-04

              XC Information
              --------------
                        HCTH  Method XC Functional
                         HCTH  Exchange Functional  1.000          
                      HCTH  Correlation Functional  1.000          

             Grid Information
             ----------------
          Grid used for XC integration:  medium    
          Radial quadrature: Mura-Knowles        
          Angular quadrature: Lebedev. 
          Tag              B.-S. Rad. Rad. Pts. Rad. Cut. Ang. Pts.
          ---              ---------- --------- --------- ---------
          he                  0.35       49           6.0       434
          Grid pruning is: on 
          Number of quadrature shells:    49
          Spatial weights used:  Erf1

          Convergence Information
          -----------------------
          Convergence aids based upon iterative change in 
          total energy or number of iterations. 
          Levelshifting, if invoked, occurs when the 
          HOMO/LUMO gap drops below (HL_TOL):  1.00D-02
          DIIS, if invoked, will attempt to extrapolate 
          using up to (NFOCK): 10 stored Fock matrices.

                    Damping( 0%)  Levelshifting(0.5)       DIIS
                  --------------- ------------------- ---------------
          dE  on:    start            ASAP                start   
          dE off:    2 iters         50 iters            50 iters 


      Screening Tolerance Information
      -------------------------------
          Density screening/tol_rho:  1.00D-13
          AO Gaussian exp screening on grid/accAOfunc:  23
          CD Gaussian exp screening on grid/accCDfunc:  20
          XC Gaussian exp screening on grid/accXCfunc:  20
          Schwarz screening/accCoul:  1.00D-11

  int_init: cando_txs set to always be  F
  intd_init: cando_txs set to always be  F


                            NWChem DFT Gradient Module
                            --------------------------


                               he2+ hcth functional



  charge          =   1.00
  wavefunction    = open shell

  Using symmetry


                         DFT ENERGY GRADIENTS

    atom               coordinates                        gradient
                 x          y          z           x          y          z
   1 he      0.000000   1.096041   0.000000    0.000000  -0.017086   0.000000
   2 he      0.000000  -1.096041   0.000000    0.000000   0.017086   0.000000

                 ----------------------------------------
                 |  Time  |  1-e(secs)   |  2-e(secs)   |
                 ----------------------------------------
                 |  CPU   |       0.00   |       0.00   |
                 ----------------------------------------
                 |  WALL  |       0.00   |       0.00   |
                 ----------------------------------------

 Task  times  cpu:        0.1s     wall:        0.1s


                                NWChem Input Module
                                -------------------


                              he2+ hcth147 functional
                              -----------------------

                                 NWChem DFT Module
                                 -----------------


                              he2+ hcth147 functional




 Summary of "ao basis" -> "ao basis" (cartesian)
 ------------------------------------------------------------------------------
       Tag                 Description            Shells   Functions and Types
 ---------------- ------------------------------  ------  ---------------------
 he               modified:DZVP (DFT Orbital)        3        5   2s1p


      Symmetry analysis of basis
      --------------------------

        a1          4
        a2          1
        b1          1
        b2          4

  Caching 1-el integrals 

            General Information
            -------------------
          SCF calculation type: DFT
          Wavefunction type:  spin polarized.
          No. of atoms     :     2
          No. of electrons :     3
           Alpha electrons :     2
            Beta electrons :     1
          Charge           :     1
          Spin multiplicity:     2
          Use of symmetry is: on ; symmetry adaption is: on 
          Maximum number of iterations:  50
          AO basis - number of functions:    10
                     number of shells:     6
          A Charge density fitting basis will be used.
          CD basis - number of functions:    26
                     number of shells:    12
          Convergence on energy requested:  1.00D-10
          Convergence on density requested:  1.00D-05
          Convergence on gradient requested:  5.00D-04

              XC Information
              --------------
                     HCTH147  Method XC Functional
                      HCTH147  Exchange Functional  1.000          
                   HCTH147  Correlation Functional  1.000          

             Grid Information
             ----------------
          Grid used for XC integration:  medium    
          Radial quadrature: Mura-Knowles        
          Angular quadrature: Lebedev. 
          Tag              B.-S. Rad. Rad. Pts. Rad. Cut. Ang. Pts.
          ---              ---------- --------- --------- ---------
          he                  0.35       49           6.0       434
          Grid pruning is: on 
          Number of quadrature shells:    49
          Spatial weights used:  Erf1

          Convergence Information
          -----------------------
          Convergence aids based upon iterative change in 
          total energy or number of iterations. 
          Levelshifting, if invoked, occurs when the 
          HOMO/LUMO gap drops below (HL_TOL):  1.00D-02
          DIIS, if invoked, will attempt to extrapolate 
          using up to (NFOCK): 10 stored Fock matrices.

                    Damping( 0%)  Levelshifting(0.5)       DIIS
                  --------------- ------------------- ---------------
          dE  on:    start            ASAP                start   
          dE off:    2 iters         50 iters            50 iters 


      Screening Tolerance Information
      -------------------------------
          Density screening/tol_rho:  1.00D-13
          AO Gaussian exp screening on grid/accAOfunc:  23
          CD Gaussian exp screening on grid/accCDfunc:  20
          XC Gaussian exp screening on grid/accXCfunc:  20
          Schwarz screening/accCoul:  1.00D-11


 Loading old vectors from job with title :

he2+ hcth functional


   Symmetry analysis of molecular orbitals - initial alpha
   -------------------------------------------------------

  Numbering of irreducible representations: 

     1 a1          2 a2          3 b1          4 b2      

  Orbital symmetries:

     1 a1          2 b2          3 a1          4 b1          5 a1      
     6 b2          7 b2          8 a2          9 a1         10 b2      


   Symmetry analysis of molecular orbitals - initial beta
   ------------------------------------------------------

  Numbering of irreducible representations: 

     1 a1          2 a2          3 b1          4 b2      

  Orbital symmetries:

     1 a1          2 b2          3 b1          4 a1          5 a1      
     6 b2          7 a2          8 b2          9 a1         10 b2      

   Time after variat. SCF:      0.1

      3 Center 2 Electron Integral Information
      ----------------------------------------
          Maximum number of 3-center 2e- integrals is:            2600.
            This is reduced with Schwarz screening to:            1950.
            Incore requires a per proc buffer size of:            1301.
          Minimum dble words available (all nodes) is:        52427100
                   This is reduced (for later use) to:        52251656
                      proc 0 Suggested buffer size is:            1301
                         Max Suggested buffer size is:            1301
                              no. integral batches is:            1000

           0.001 MW buffer allocated for incore 3-center 
          2e- integral storage on stack. 
   Time prior to 1st pass:      0.1

 Grid_pts file          = ./he2+.gridpts.0
 Record size in doubles =  12289        No. of grid_pts per rec  =   3070
 Max. records in memory =      5        Max. recs in file   = 506625431


 !! scf_movecs_sym_adapt:    4 vectors were symmetry contaminated

  Symmetry fudging

 !! scf_movecs_sym_adapt:    2 vectors were symmetry contaminated


 !! scf_movecs_sym_adapt:    4 vectors were symmetry contaminated

  Symmetry fudging

 !! scf_movecs_sym_adapt:    4 vectors were symmetry contaminated


           Memory utilization after 1st SCF pass: 
           Heap Space remaining (MW):        0.00                  58
          Stack Space remaining (MW):       26.21            26211836

   convergence    iter        energy       DeltaE   RMS-Dens  Diis-err    time
 ---------------- ----- ----------------- --------- --------- ---------  ------
 d= 0,ls=0.0,diis     1     -5.0407174088 -6.87D+00  8.43D-04  1.96D-05     0.1
                                                     4.42D-04  2.01D-05

 !! scf_movecs_sym_adapt:    4 vectors were symmetry contaminated

  Symmetry fudging

 !! scf_movecs_sym_adapt:    4 vectors were symmetry contaminated


 !! scf_movecs_sym_adapt:    4 vectors were symmetry contaminated

  Symmetry fudging

 !! scf_movecs_sym_adapt:    2 vectors were symmetry contaminated

 d= 0,ls=0.0,diis     2     -5.0407289553 -1.15D-05  1.34D-04  6.55D-07     0.1
                                                     4.25D-05  2.40D-07

 !! scf_movecs_sym_adapt:    4 vectors were symmetry contaminated

  Symmetry fudging

 !! scf_movecs_sym_adapt:    4 vectors were symmetry contaminated


 !! scf_movecs_sym_adapt:    4 vectors were symmetry contaminated

  Symmetry fudging

 !! scf_movecs_sym_adapt:    4 vectors were symmetry contaminated

 d= 0,ls=0.0,diis     3     -5.0407292249 -2.70D-07  2.48D-06  2.66D-10     0.1
                                                     2.93D-06  1.01D-09

 !! scf_movecs_sym_adapt:    4 vectors were symmetry contaminated

  Symmetry fudging

 !! scf_movecs_sym_adapt:    2 vectors were symmetry contaminated


 !! scf_movecs_sym_adapt:    4 vectors were symmetry contaminated

  Symmetry fudging

 !! scf_movecs_sym_adapt:    2 vectors were symmetry contaminated

 d= 0,ls=0.0,diis     4     -5.0407292253 -4.05D-10  1.22D-07  3.77D-13     0.2
                                                     3.91D-08  1.12D-13

 !! scf_movecs_sym_adapt:    4 vectors were symmetry contaminated

  Symmetry fudging

 !! scf_movecs_sym_adapt:    4 vectors were symmetry contaminated


 !! scf_movecs_sym_adapt:    4 vectors were symmetry contaminated

  Symmetry fudging

 !! scf_movecs_sym_adapt:    2 vectors were symmetry contaminated

 d= 0,ls=0.0,diis     5     -5.0407292253 -1.92D-13  5.45D-10  9.98D-19     0.2
                                                     8.85D-11  1.08D-18


         Total DFT energy =       -5.040729225255
      One electron energy =       -8.749827268813
           Coulomb energy =        3.566662928409
    Exchange-Corr. energy =       -1.682314019333
 Nuclear repulsion energy =        1.824749134482

 Numeric. integr. density =        2.999999842878

     Total iterative time =      0.0s



                  Occupations of the irreducible representations
                  ----------------------------------------------

                     irrep           alpha         beta
                     --------     --------     --------
                     a1                1.0          1.0
                     a2                0.0          0.0
                     b1                0.0          0.0
                     b2                1.0          0.0


                    DFT Final Alpha Molecular Orbital Analysis
                    ------------------------------------------

 Vector    1  Occ=1.000000D+00  E=-1.373645D+00  Symmetry=a1
              MO Center= -4.3D-21,  4.2D-16, -1.7D-17, r^2= 5.5D-01
   Bfn.  Coefficient  Atom+Function         Bfn.  Coefficient  Atom+Function  
  ----- ------------  ---------------      ----- ------------  ---------------
     1      0.600246  1 He s                  6      0.600246  2 He s          
     2      0.065494  1 He s                  7      0.065494  2 He s          

 Vector    2  Occ=1.000000D+00  E=-1.118014D+00  Symmetry=b2
              MO Center= -8.0D-36, -3.1D-16, -5.1D-17, r^2= 6.5D-01
   Bfn.  Coefficient  Atom+Function         Bfn.  Coefficient  Atom+Function  
  ----- ------------  ---------------      ----- ------------  ---------------
     1      0.695740  1 He s                  6     -0.695740  2 He s          
     2      0.149802  1 He s                  7     -0.149802  2 He s          

 Vector    3  Occ=0.000000D+00  E=-1.640325D-01  Symmetry=b1
              MO Center=  4.3D-21, -2.5D-18, -1.5D-57, r^2= 2.1D+00
   Bfn.  Coefficient  Atom+Function         Bfn.  Coefficient  Atom+Function  
  ----- ------------  ---------------      ----- ------------  ---------------
     3      0.551445  1 He px                 8      0.551445  2 He px         

 Vector    4  Occ=0.000000D+00  E=-1.640325D-01  Symmetry=a1
              MO Center=  2.0D-66,  1.2D-17, -5.4D-15, r^2= 2.1D+00
   Bfn.  Coefficient  Atom+Function         Bfn.  Coefficient  Atom+Function  
  ----- ------------  ---------------      ----- ------------  ---------------
     5      0.551445  1 He pz                10      0.551445  2 He pz         

 Vector    5  Occ=0.000000D+00  E=-4.639170D-02  Symmetry=a1
              MO Center=  4.9D-34,  1.7D-16,  2.9D-15, r^2= 3.1D+00
   Bfn.  Coefficient  Atom+Function         Bfn.  Coefficient  Atom+Function  
  ----- ------------  ---------------      ----- ------------  ---------------
     4      0.681965  1 He py                 9     -0.681965  2 He py         
     2      0.635693  1 He s                  7      0.635693  2 He s          
     1     -0.275443  1 He s                  6     -0.275443  2 He s          

 Vector    6  Occ=0.000000D+00  E=-1.954714D-02  Symmetry=b2
              MO Center= -2.5D-34,  1.7D-15, -2.1D-15, r^2= 3.5D+00
   Bfn.  Coefficient  Atom+Function         Bfn.  Coefficient  Atom+Function  
  ----- ------------  ---------------      ----- ------------  ---------------
     2      1.642197  1 He s                  7     -1.642197  2 He s          
     4     -1.608281  1 He py                 9     -1.608281  2 He py         
     1      0.331577  1 He s                  6     -0.331577  2 He s          

 Vector    7  Occ=0.000000D+00  E= 7.832544D-02  Symmetry=a2
              MO Center=  2.3D-34, -4.6D-17,  3.2D-52, r^2= 2.9D+00
   Bfn.  Coefficient  Atom+Function         Bfn.  Coefficient  Atom+Function  
  ----- ------------  ---------------      ----- ------------  ---------------
     3      1.185520  1 He px                 8     -1.185520  2 He px         

 Vector    8  Occ=0.000000D+00  E= 7.832544D-02  Symmetry=b2
              MO Center=  1.1D-65, -4.6D-18, -3.8D-16, r^2= 2.9D+00
   Bfn.  Coefficient  Atom+Function         Bfn.  Coefficient  Atom+Function  
  ----- ------------  ---------------      ----- ------------  ---------------
     5      1.185520  1 He pz                10     -1.185520  2 He pz         

 Vector    9  Occ=0.000000D+00  E= 1.749580D-01  Symmetry=a1
              MO Center= -2.6D-34, -1.6D-15,  2.5D-15, r^2= 1.4D+00
   Bfn.  Coefficient  Atom+Function         Bfn.  Coefficient  Atom+Function  
  ----- ------------  ---------------      ----- ------------  ---------------
     1      0.685751  1 He s                  6      0.685751  2 He s          
     4      0.526581  1 He py                 9     -0.526581  2 He py         
     2     -0.480412  1 He s                  7     -0.480412  2 He s          

 Vector   10  Occ=0.000000D+00  E= 6.164454D-01  Symmetry=b2
              MO Center=  3.9D-35,  3.5D-15,  2.5D-15, r^2= 2.6D+00
   Bfn.  Coefficient  Atom+Function         Bfn.  Coefficient  Atom+Function  
  ----- ------------  ---------------      ----- ------------  ---------------
     2      6.289931  1 He s                  7     -6.289931  2 He s          
     4     -3.085548  1 He py                 9     -3.085548  2 He py         
     1     -0.699013  1 He s                  6      0.699013  2 He s          


                     DFT Final Beta Molecular Orbital Analysis
                     -----------------------------------------

 Vector    1  Occ=1.000000D+00  E=-1.265832D+00  Symmetry=a1
              MO Center=  3.3D-21,  2.2D-16,  7.9D-17, r^2= 5.7D-01
   Bfn.  Coefficient  Atom+Function         Bfn.  Coefficient  Atom+Function  
  ----- ------------  ---------------      ----- ------------  ---------------
     1      0.567641  1 He s                  6      0.567641  2 He s          
     2      0.095330  1 He s                  7      0.095330  2 He s          
     4     -0.028869  1 He py                 9      0.028869  2 He py         

 Vector    2  Occ=0.000000D+00  E=-9.869555D-01  Symmetry=b2
              MO Center= -2.6D-21, -4.4D-16,  3.9D-17, r^2= 6.9D-01
   Bfn.  Coefficient  Atom+Function         Bfn.  Coefficient  Atom+Function  
  ----- ------------  ---------------      ----- ------------  ---------------
     1      0.663359  1 He s                  6     -0.663359  2 He s          
     2      0.280895  1 He s                  7     -0.280895  2 He s          
     4     -0.036969  1 He py                 9     -0.036969  2 He py         

 Vector    3  Occ=0.000000D+00  E=-1.496078D-01  Symmetry=b1
              MO Center= -3.3D-21, -1.3D-17,  4.8D-55, r^2= 2.1D+00
   Bfn.  Coefficient  Atom+Function         Bfn.  Coefficient  Atom+Function  
  ----- ------------  ---------------      ----- ------------  ---------------
     3      0.551445  1 He px                 8      0.551445  2 He px         

 Vector    4  Occ=0.000000D+00  E=-1.496078D-01  Symmetry=a1
              MO Center= -4.4D-54,  1.2D-17,  5.0D-15, r^2= 2.1D+00
   Bfn.  Coefficient  Atom+Function         Bfn.  Coefficient  Atom+Function  
  ----- ------------  ---------------      ----- ------------  ---------------
     5      0.551445  1 He pz                10      0.551445  2 He pz         

 Vector    5  Occ=0.000000D+00  E= 9.407140D-03  Symmetry=a1
              MO Center=  1.1D-33,  8.9D-15, -2.6D-15, r^2= 3.1D+00
   Bfn.  Coefficient  Atom+Function         Bfn.  Coefficient  Atom+Function  
  ----- ------------  ---------------      ----- ------------  ---------------
     4      0.689057  1 He py                 9     -0.689057  2 He py         
     2      0.628166  1 He s                  7      0.628166  2 He s          
     1     -0.276157  1 He s                  6     -0.276157  2 He s          

 Vector    6  Occ=0.000000D+00  E= 5.822108D-02  Symmetry=b2
              MO Center= -7.3D-17, -7.4D-15,  1.7D-14, r^2= 3.4D+00
   Bfn.  Coefficient  Atom+Function         Bfn.  Coefficient  Atom+Function  
  ----- ------------  ---------------      ----- ------------  ---------------
     4     -1.480003  1 He py                 9     -1.480003  2 He py         
     2      1.388251  1 He s                  7     -1.388251  2 He s          
     1      0.383619  1 He s                  6     -0.383619  2 He s          

 Vector    7  Occ=0.000000D+00  E= 1.091890D-01  Symmetry=a2
              MO Center=  7.3D-17, -4.6D-17,  8.3D-47, r^2= 2.9D+00
   Bfn.  Coefficient  Atom+Function         Bfn.  Coefficient  Atom+Function  
  ----- ------------  ---------------      ----- ------------  ---------------
     3      1.185520  1 He px                 8     -1.185520  2 He px         

 Vector    8  Occ=0.000000D+00  E= 1.091890D-01  Symmetry=b2
              MO Center= -3.9D-60, -4.6D-18, -1.6D-14, r^2= 2.9D+00
   Bfn.  Coefficient  Atom+Function         Bfn.  Coefficient  Atom+Function  
  ----- ------------  ---------------      ----- ------------  ---------------
     5      1.185520  1 He pz                10     -1.185520  2 He pz         

 Vector    9  Occ=0.000000D+00  E= 2.200408D-01  Symmetry=a1
              MO Center= -2.9D-35, -6.9D-17, -2.5D-15, r^2= 1.4D+00
   Bfn.  Coefficient  Atom+Function         Bfn.  Coefficient  Atom+Function  
  ----- ------------  ---------------      ----- ------------  ---------------
     1      0.712699  1 He s                  6      0.712699  2 He s          
     4      0.516822  1 He py                 9     -0.516822  2 He py         
     2     -0.485294  1 He s                  7     -0.485294  2 He s          

 Vector   10  Occ=0.000000D+00  E= 6.788145D-01  Symmetry=b2
              MO Center= -2.9D-33, -1.3D-15, -8.9D-16, r^2= 2.6D+00
   Bfn.  Coefficient  Atom+Function         Bfn.  Coefficient  Atom+Function  
  ----- ------------  ---------------      ----- ------------  ---------------
     2      6.346364  1 He s                  7     -6.346364  2 He s          
     4     -3.148872  1 He py                 9     -3.148872  2 He py         
     1     -0.703852  1 He s                  6      0.703852  2 He s          


   alpha - beta orbital overlaps 
   ----------------------------- 


   alpha      1      2      3      4      5      6      7      8      9     10
    beta      1      2      3      4      5      6      7      8      9     10
 overlap   0.999  0.999  1.000  1.000  1.000  0.999  1.000  1.000  0.999  0.999


     --------------------------
     Expectation value of S2:  
     --------------------------
      <S2> =      0.7519 (Exact =     0.7500)


 center of mass
 --------------
 x =   0.00000000 y =   0.00000000 z =   0.00000000

 moments of inertia (a.u.)
 ------------------
           9.616695067604           0.000000000000           0.000000000000
           0.000000000000           0.000000000000           0.000000000000
           0.000000000000           0.000000000000           9.616695067604

     Multipole analysis of the density
     ---------------------------------

     L   x y z        total         alpha         beta         nuclear
     -   - - -        -----         -----         ----         -------
     0   0 0 0      1.000000     -2.000000     -1.000000      4.000000

     1   1 0 0      0.000000      0.000000      0.000000      0.000000
     1   0 1 0      0.000000      0.000000      0.000000      0.000000
     1   0 0 1     -0.000000      0.000000     -0.000000      0.000000

     2   2 0 0     -0.950050     -0.595424     -0.354625      0.000000
     2   1 1 0     -0.000000     -0.000000     -0.000000      0.000000
     2   1 0 1      0.000000      0.000000      0.000000      0.000000
     2   0 2 0      0.416018     -3.068091     -1.321115      4.805224
     2   0 1 1      0.000000      0.000000      0.000000      0.000000
     2   0 0 2     -0.950050     -0.595424     -0.354625      0.000000


            General Information
            -------------------
          SCF calculation type: DFT
          Wavefunction type:  spin polarized.
          No. of atoms     :     2
          No. of electrons :     3
           Alpha electrons :     2
            Beta electrons :     1
          Charge           :     1
          Spin multiplicity:     2
          Use of symmetry is: on ; symmetry adaption is: on 
          Maximum number of iterations:  50
          AO basis - number of functions:    10
                     number of shells:     6
          A Charge density fitting basis will be used.
          CD basis - number of functions:    26
                     number of shells:    12
          Convergence on energy requested:  1.00D-10
          Convergence on density requested:  1.00D-05
          Convergence on gradient requested:  5.00D-04

              XC Information
              --------------
                     HCTH147  Method XC Functional
                      HCTH147  Exchange Functional  1.000          
                   HCTH147  Correlation Functional  1.000          

             Grid Information
             ----------------
          Grid used for XC integration:  medium    
          Radial quadrature: Mura-Knowles        
          Angular quadrature: Lebedev. 
          Tag              B.-S. Rad. Rad. Pts. Rad. Cut. Ang. Pts.
          ---              ---------- --------- --------- ---------
          he                  0.35       49           6.0       434
          Grid pruning is: on 
          Number of quadrature shells:    49
          Spatial weights used:  Erf1

          Convergence Information
          -----------------------
          Convergence aids based upon iterative change in 
          total energy or number of iterations. 
          Levelshifting, if invoked, occurs when the 
          HOMO/LUMO gap drops below (HL_TOL):  1.00D-02
          DIIS, if invoked, will attempt to extrapolate 
          using up to (NFOCK): 10 stored Fock matrices.

                    Damping( 0%)  Levelshifting(0.5)       DIIS
                  --------------- ------------------- ---------------
          dE  on:    start            ASAP                start   
          dE off:    2 iters         50 iters            50 iters 


      Screening Tolerance Information
      -------------------------------
          Density screening/tol_rho:  1.00D-13
          AO Gaussian exp screening on grid/accAOfunc:  23
          CD Gaussian exp screening on grid/accCDfunc:  20
          XC Gaussian exp screening on grid/accXCfunc:  20
          Schwarz screening/accCoul:  1.00D-11

  int_init: cando_txs set to always be  F
  intd_init: cando_txs set to always be  F


                            NWChem DFT Gradient Module
                            --------------------------


                              he2+ hcth147 functional



  charge          =   1.00
  wavefunction    = open shell

  Using symmetry


                         DFT ENERGY GRADIENTS

    atom               coordinates                        gradient
                 x          y          z           x          y          z
   1 he      0.000000   1.096041   0.000000    0.000000  -0.016262   0.000000
   2 he      0.000000  -1.096041   0.000000    0.000000   0.016262   0.000000

                 ----------------------------------------
                 |  Time  |  1-e(secs)   |  2-e(secs)   |
                 ----------------------------------------
                 |  CPU   |       0.00   |       0.00   |
                 ----------------------------------------
                 |  WALL  |       0.00   |       0.00   |
                 ----------------------------------------

 Task  times  cpu:        0.1s     wall:        0.1s


                                NWChem Input Module
                                -------------------


                           he2+ hcth147@tz2p functional
                           ----------------------------

                                 NWChem DFT Module
                                 -----------------


                           he2+ hcth147@tz2p functional




 Summary of "ao basis" -> "ao basis" (cartesian)
 ------------------------------------------------------------------------------
       Tag                 Description            Shells   Functions and Types
 ---------------- ------------------------------  ------  ---------------------
 he               modified:DZVP (DFT Orbital)        3        5   2s1p


      Symmetry analysis of basis
      --------------------------

        a1          4
        a2          1
        b1          1
        b2          4

  Caching 1-el integrals 

            General Information
            -------------------
          SCF calculation type: DFT
          Wavefunction type:  spin polarized.
          No. of atoms     :     2
          No. of electrons :     3
           Alpha electrons :     2
            Beta electrons :     1
          Charge           :     1
          Spin multiplicity:     2
          Use of symmetry is: on ; symmetry adaption is: on 
          Maximum number of iterations:  50
          AO basis - number of functions:    10
                     number of shells:     6
          A Charge density fitting basis will be used.
          CD basis - number of functions:    26
                     number of shells:    12
          Convergence on energy requested:  1.00D-10
          Convergence on density requested:  1.00D-05
          Convergence on gradient requested:  5.00D-04

              XC Information
              --------------
                HCTH147@TZ2P  Method XC Functional
                 HCTH147@TZ2P  Exchange Functional  1.000          
               HCTH147@TZ2P Correlation Functional  1.000          

             Grid Information
             ----------------
          Grid used for XC integration:  medium    
          Radial quadrature: Mura-Knowles        
          Angular quadrature: Lebedev. 
          Tag              B.-S. Rad. Rad. Pts. Rad. Cut. Ang. Pts.
          ---              ---------- --------- --------- ---------
          he                  0.35       49           6.0       434
          Grid pruning is: on 
          Number of quadrature shells:    49
          Spatial weights used:  Erf1

          Convergence Information
          -----------------------
          Convergence aids based upon iterative change in 
          total energy or number of iterations. 
          Levelshifting, if invoked, occurs when the 
          HOMO/LUMO gap drops below (HL_TOL):  1.00D-02
          DIIS, if invoked, will attempt to extrapolate 
          using up to (NFOCK): 10 stored Fock matrices.

                    Damping( 0%)  Levelshifting(0.5)       DIIS
                  --------------- ------------------- ---------------
          dE  on:    start            ASAP                start   
          dE off:    2 iters         50 iters            50 iters 


      Screening Tolerance Information
      -------------------------------
          Density screening/tol_rho:  1.00D-13
          AO Gaussian exp screening on grid/accAOfunc:  23
          CD Gaussian exp screening on grid/accCDfunc:  20
          XC Gaussian exp screening on grid/accXCfunc:  20
          Schwarz screening/accCoul:  1.00D-11


 Loading old vectors from job with title :

he2+ hcth147 functional


   Symmetry analysis of molecular orbitals - initial alpha
   -------------------------------------------------------

  Numbering of irreducible representations: 

     1 a1          2 a2          3 b1          4 b2      

  Orbital symmetries:

     1 a1          2 b2          3 b1          4 a1          5 a1      
     6 b2          7 a2          8 b2          9 a1         10 b2      


   Symmetry analysis of molecular orbitals - initial beta
   ------------------------------------------------------

  Numbering of irreducible representations: 

     1 a1          2 a2          3 b1          4 b2      

  Orbital symmetries:

     1 a1          2 b2          3 b1          4 a1          5 a1      
     6 b2          7 a2          8 b2          9 a1         10 b2      

   Time after variat. SCF:      0.2

      3 Center 2 Electron Integral Information
      ----------------------------------------
          Maximum number of 3-center 2e- integrals is:            2600.
            This is reduced with Schwarz screening to:            1950.
            Incore requires a per proc buffer size of:            1301.
          Minimum dble words available (all nodes) is:        52427100
                   This is reduced (for later use) to:        52251656
                      proc 0 Suggested buffer size is:            1301
                         Max Suggested buffer size is:            1301
                              no. integral batches is:            1000

           0.001 MW buffer allocated for incore 3-center 
          2e- integral storage on stack. 
   Time prior to 1st pass:      0.2

 Grid_pts file          = ./he2+.gridpts.0
 Record size in doubles =  12289        No. of grid_pts per rec  =   3070
 Max. records in memory =      5        Max. recs in file   = 506625431


 !! scf_movecs_sym_adapt:    4 vectors were symmetry contaminated

  Symmetry fudging

 !! scf_movecs_sym_adapt:    4 vectors were symmetry contaminated


 !! scf_movecs_sym_adapt:    4 vectors were symmetry contaminated

  Symmetry fudging

 !! scf_movecs_sym_adapt:    4 vectors were symmetry contaminated


           Memory utilization after 1st SCF pass: 
           Heap Space remaining (MW):        0.00                  58
          Stack Space remaining (MW):       26.21            26211836

   convergence    iter        energy       DeltaE   RMS-Dens  Diis-err    time
 ---------------- ----- ----------------- --------- --------- ---------  ------
 d= 0,ls=0.0,diis     1     -5.0432839906 -6.87D+00  5.68D-05  9.10D-08     0.2
                                                     2.37D-05  5.81D-08

 !! scf_movecs_sym_adapt:    4 vectors were symmetry contaminated

  Symmetry fudging

 !! scf_movecs_sym_adapt:    2 vectors were symmetry contaminated


 !! scf_movecs_sym_adapt:    4 vectors were symmetry contaminated

  Symmetry fudging

 !! scf_movecs_sym_adapt:    2 vectors were symmetry contaminated

 d= 0,ls=0.0,diis     2     -5.0432840337 -4.31D-08  8.78D-06  2.89D-09     0.2
                                                     3.31D-06  1.53D-09

 !! scf_movecs_sym_adapt:    2 vectors were symmetry contaminated

  Symmetry fudging

 !! scf_movecs_sym_adapt:    2 vectors were symmetry contaminated


 !! scf_movecs_sym_adapt:    2 vectors were symmetry contaminated

  Symmetry fudging

 !! scf_movecs_sym_adapt:    2 vectors were symmetry contaminated

 d= 0,ls=0.0,diis     3     -5.0432840350 -1.33D-09  2.69D-08  2.57D-15     0.2
                                                     1.88D-08  4.32D-14

 !! scf_movecs_sym_adapt:    2 vectors were symmetry contaminated

  Symmetry fudging

 !! scf_movecs_sym_adapt:    2 vectors were symmetry contaminated


 !! scf_movecs_sym_adapt:    4 vectors were symmetry contaminated

  Symmetry fudging
 d= 0,ls=0.0,diis     4     -5.0432840350 -9.77D-15  1.77D-09  2.74D-17     0.2
                                                     4.70D-10  2.21D-17


         Total DFT energy =       -5.043284034997
      One electron energy =       -8.749943047603
           Coulomb energy =        3.566918809378
    Exchange-Corr. energy =       -1.685008931254
 Nuclear repulsion energy =        1.824749134482

 Numeric. integr. density =        2.999999843048

     Total iterative time =      0.0s



                  Occupations of the irreducible representations
                  ----------------------------------------------

                     irrep           alpha         beta
                     --------     --------     --------
                     a1                1.0          1.0
                     a2                0.0          0.0
                     b1                0.0          0.0
                     b2                1.0          0.0


                    DFT Final Alpha Molecular Orbital Analysis
                    ------------------------------------------

 Vector    1  Occ=1.000000D+00  E=-1.374478D+00  Symmetry=a1
              MO Center=  7.3D-21, -3.4D-16, -7.4D-18, r^2= 5.5D-01
   Bfn.  Coefficient  Atom+Function         Bfn.  Coefficient  Atom+Function  
  ----- ------------  ---------------      ----- ------------  ---------------
     1      0.600309  1 He s                  6      0.600309  2 He s          
     2      0.065432  1 He s                  7      0.065432  2 He s          

 Vector    2  Occ=1.000000D+00  E=-1.118881D+00  Symmetry=b2
              MO Center=  1.9D-22,  2.8D-16, -3.3D-17, r^2= 6.5D-01
   Bfn.  Coefficient  Atom+Function         Bfn.  Coefficient  Atom+Function  
  ----- ------------  ---------------      ----- ------------  ---------------
     1      0.695804  1 He s                  6     -0.695804  2 He s          
     2      0.149594  1 He s                  7     -0.149594  2 He s          

 Vector    3  Occ=0.000000D+00  E=-1.644950D-01  Symmetry=b1
              MO Center= -7.3D-21, -1.3D-17, -1.8D-52, r^2= 2.1D+00
   Bfn.  Coefficient  Atom+Function         Bfn.  Coefficient  Atom+Function  
  ----- ------------  ---------------      ----- ------------  ---------------
     3      0.551445  1 He px                 8      0.551445  2 He px         

 Vector    4  Occ=0.000000D+00  E=-1.644950D-01  Symmetry=a1
              MO Center=  3.6D-53, -5.3D-18, -5.5D-15, r^2= 2.1D+00
   Bfn.  Coefficient  Atom+Function         Bfn.  Coefficient  Atom+Function  
  ----- ------------  ---------------      ----- ------------  ---------------
     5      0.551445  1 He pz                10      0.551445  2 He pz         

 Vector    5  Occ=0.000000D+00  E=-4.686721D-02  Symmetry=a1
              MO Center=  3.6D-35, -8.1D-17,  3.1D-15, r^2= 3.1D+00
   Bfn.  Coefficient  Atom+Function         Bfn.  Coefficient  Atom+Function  
  ----- ------------  ---------------      ----- ------------  ---------------
     4      0.681862  1 He py                 9     -0.681862  2 He py         
     2      0.635790  1 He s                  7      0.635790  2 He s          
     1     -0.275554  1 He s                  6     -0.275554  2 He s          

 Vector    6  Occ=0.000000D+00  E=-1.999427D-02  Symmetry=b2
              MO Center=  3.6D-17,  1.6D-16, -4.6D-15, r^2= 3.5D+00
   Bfn.  Coefficient  Atom+Function         Bfn.  Coefficient  Atom+Function  
  ----- ------------  ---------------      ----- ------------  ---------------
     2      1.640966  1 He s                  7     -1.640966  2 He s          
     4     -1.607683  1 He py                 9     -1.607683  2 He py         
     1      0.331657  1 He s                  6     -0.331657  2 He s          

 Vector    7  Occ=0.000000D+00  E= 7.789273D-02  Symmetry=b2
              MO Center= -1.6D-54, -4.6D-18,  3.5D-15, r^2= 2.9D+00
   Bfn.  Coefficient  Atom+Function         Bfn.  Coefficient  Atom+Function  
  ----- ------------  ---------------      ----- ------------  ---------------
     5      1.185520  1 He pz                10     -1.185520  2 He pz         

 Vector    8  Occ=0.000000D+00  E= 7.789273D-02  Symmetry=a2
              MO Center= -3.6D-17, -4.6D-17, -5.6D-48, r^2= 2.9D+00
   Bfn.  Coefficient  Atom+Function         Bfn.  Coefficient  Atom+Function  
  ----- ------------  ---------------      ----- ------------  ---------------
     3      1.185520  1 He px                 8     -1.185520  2 He px         

 Vector    9  Occ=0.000000D+00  E= 1.743510D-01  Symmetry=a1
              MO Center=  1.2D-34, -1.8D-16,  2.4D-15, r^2= 1.4D+00
   Bfn.  Coefficient  Atom+Function         Bfn.  Coefficient  Atom+Function  
  ----- ------------  ---------------      ----- ------------  ---------------
     1      0.685652  1 He s                  6      0.685652  2 He s          
     4      0.526716  1 He py                 9     -0.526716  2 He py         
     2     -0.480293  1 He s                  7     -0.480293  2 He s          

 Vector   10  Occ=0.000000D+00  E= 6.159106D-01  Symmetry=b2
              MO Center=  7.6D-34,  8.4D-16,  1.1D-15, r^2= 2.6D+00
   Bfn.  Coefficient  Atom+Function         Bfn.  Coefficient  Atom+Function  
  ----- ------------  ---------------      ----- ------------  ---------------
     2      6.290257  1 He s                  7     -6.290257  2 He s          
     4     -3.085859  1 He py                 9     -3.085859  2 He py         
     1     -0.698911  1 He s                  6      0.698911  2 He s          


                     DFT Final Beta Molecular Orbital Analysis
                     -----------------------------------------

 Vector    1  Occ=1.000000D+00  E=-1.266630D+00  Symmetry=a1
              MO Center=  1.3D-19,  1.4D-16,  8.1D-17, r^2= 5.7D-01
   Bfn.  Coefficient  Atom+Function         Bfn.  Coefficient  Atom+Function  
  ----- ------------  ---------------      ----- ------------  ---------------
     1      0.567719  1 He s                  6      0.567719  2 He s          
     2      0.095255  1 He s                  7      0.095255  2 He s          
     4     -0.028857  1 He py                 9      0.028857  2 He py         

 Vector    2  Occ=0.000000D+00  E=-9.877917D-01  Symmetry=b2
              MO Center= -3.0D-19, -2.9D-16,  5.3D-17, r^2= 6.9D-01
   Bfn.  Coefficient  Atom+Function         Bfn.  Coefficient  Atom+Function  
  ----- ------------  ---------------      ----- ------------  ---------------
     1      0.663444  1 He s                  6     -0.663444  2 He s          
     2      0.280688  1 He s                  7     -0.280688  2 He s          
     4     -0.036957  1 He py                 9     -0.036957  2 He py         

 Vector    3  Occ=0.000000D+00  E=-1.500499D-01  Symmetry=b1
              MO Center= -1.3D-19,  4.1D-18,  6.8D-50, r^2= 2.1D+00
   Bfn.  Coefficient  Atom+Function         Bfn.  Coefficient  Atom+Function  
  ----- ------------  ---------------      ----- ------------  ---------------
     3      0.551445  1 He px                 8      0.551445  2 He px         

 Vector    4  Occ=0.000000D+00  E=-1.500499D-01  Symmetry=a1
              MO Center= -3.0D-50,  1.2D-17,  4.6D-15, r^2= 2.1D+00
   Bfn.  Coefficient  Atom+Function         Bfn.  Coefficient  Atom+Function  
  ----- ------------  ---------------      ----- ------------  ---------------
     5      0.551445  1 He pz                10      0.551445  2 He pz         

 Vector    5  Occ=0.000000D+00  E= 9.036158D-03  Symmetry=a1
              MO Center=  6.5D-34,  7.6D-16, -2.4D-15, r^2= 3.1D+00
   Bfn.  Coefficient  Atom+Function         Bfn.  Coefficient  Atom+Function  
  ----- ------------  ---------------      ----- ------------  ---------------
     4      0.688911  1 He py                 9     -0.688911  2 He py         
     2      0.628306  1 He s                  7      0.628306  2 He s          
     1     -0.276329  1 He s                  6     -0.276329  2 He s          

 Vector    6  Occ=0.000000D+00  E= 5.786475D-02  Symmetry=b2
              MO Center=  6.9D-18,  1.8D-16,  1.5D-14, r^2= 3.4D+00
   Bfn.  Coefficient  Atom+Function         Bfn.  Coefficient  Atom+Function  
  ----- ------------  ---------------      ----- ------------  ---------------
     4     -1.479181  1 He py                 9     -1.479181  2 He py         
     2      1.386569  1 He s                  7     -1.386569  2 He s          
     1      0.383726  1 He s                  6     -0.383726  2 He s          

 Vector    7  Occ=0.000000D+00  E= 1.088169D-01  Symmetry=b2
              MO Center= -1.8D-54,  4.4D-17, -1.4D-14, r^2= 2.9D+00
   Bfn.  Coefficient  Atom+Function         Bfn.  Coefficient  Atom+Function  
  ----- ------------  ---------------      ----- ------------  ---------------
     5      1.185520  1 He pz                10     -1.185520  2 He pz         

 Vector    8  Occ=0.000000D+00  E= 1.088169D-01  Symmetry=a2
              MO Center= -6.6D-18, -4.6D-17,  6.4D-49, r^2= 2.9D+00
   Bfn.  Coefficient  Atom+Function         Bfn.  Coefficient  Atom+Function  
  ----- ------------  ---------------      ----- ------------  ---------------
     3      1.185520  1 He px                 8     -1.185520  2 He px         

 Vector    9  Occ=0.000000D+00  E= 2.194397D-01  Symmetry=a1
              MO Center=  9.0D-34, -9.0D-16, -2.3D-15, r^2= 1.4D+00
   Bfn.  Coefficient  Atom+Function         Bfn.  Coefficient  Atom+Function  
  ----- ------------  ---------------      ----- ------------  ---------------
     1      0.712570  1 He s                  6      0.712570  2 He s          
     4      0.517018  1 He py                 9     -0.517018  2 He py         
     2     -0.485127  1 He s                  7     -0.485127  2 He s          

 Vector   10  Occ=0.000000D+00  E= 6.783463D-01  Symmetry=b2
              MO Center=  3.5D-35, -7.0D-16, -1.5D-15, r^2= 2.7D+00
   Bfn.  Coefficient  Atom+Function         Bfn.  Coefficient  Atom+Function  
  ----- ------------  ---------------      ----- ------------  ---------------
     2      6.346741  1 He s                  7     -6.346741  2 He s          
     4     -3.149259  1 He py                 9     -3.149259  2 He py         
     1     -0.703714  1 He s                  6      0.703714  2 He s          


   alpha - beta orbital overlaps 
   ----------------------------- 


   alpha      1      2      3      4      5      6      7      8      9     10
    beta      1      2      3      4      5      6      7      8      9     10
 overlap   0.999  0.999  1.000  1.000  1.000  0.999  1.000  1.000  0.999  0.999


     --------------------------
     Expectation value of S2:  
     --------------------------
      <S2> =      0.7519 (Exact =     0.7500)


 center of mass
 --------------
 x =   0.00000000 y =   0.00000000 z =   0.00000000

 moments of inertia (a.u.)
 ------------------
           9.616695067604           0.000000000000           0.000000000000
           0.000000000000           0.000000000000           0.000000000000
           0.000000000000           0.000000000000           9.616695067604

     Multipole analysis of the density
     ---------------------------------

     L   x y z        total         alpha         beta         nuclear
     -   - - -        -----         -----         ----         -------
     0   0 0 0      1.000000     -2.000000     -1.000000      4.000000

     1   1 0 0      0.000000      0.000000      0.000000      0.000000
     1   0 1 0     -0.000000     -0.000000      0.000000      0.000000
     1   0 0 1     -0.000000      0.000000     -0.000000      0.000000

     2   2 0 0     -0.949806     -0.595282     -0.354524      0.000000
     2   1 1 0      0.000000      0.000000      0.000000      0.000000
     2   1 0 1      0.000000      0.000000      0.000000      0.000000
     2   0 2 0      0.416213     -3.067910     -1.321101      4.805224
     2   0 1 1     -0.000000     -0.000000     -0.000000      0.000000
     2   0 0 2     -0.949806     -0.595282     -0.354524      0.000000


            General Information
            -------------------
          SCF calculation type: DFT
          Wavefunction type:  spin polarized.
          No. of atoms     :     2
          No. of electrons :     3
           Alpha electrons :     2
            Beta electrons :     1
          Charge           :     1
          Spin multiplicity:     2
          Use of symmetry is: on ; symmetry adaption is: on 
          Maximum number of iterations:  50
          AO basis - number of functions:    10
                     number of shells:     6
          A Charge density fitting basis will be used.
          CD basis - number of functions:    26
                     number of shells:    12
          Convergence on energy requested:  1.00D-10
          Convergence on density requested:  1.00D-05
          Convergence on gradient requested:  5.00D-04

              XC Information
              --------------
                HCTH147@TZ2P  Method XC Functional
                 HCTH147@TZ2P  Exchange Functional  1.000          
               HCTH147@TZ2P Correlation Functional  1.000          

             Grid Information
             ----------------
          Grid used for XC integration:  medium    
          Radial quadrature: Mura-Knowles        
          Angular quadrature: Lebedev. 
          Tag              B.-S. Rad. Rad. Pts. Rad. Cut. Ang. Pts.
          ---              ---------- --------- --------- ---------
          he                  0.35       49           6.0       434
          Grid pruning is: on 
          Number of quadrature shells:    49
          Spatial weights used:  Erf1

          Convergence Information
          -----------------------
          Convergence aids based upon iterative change in 
          total energy or number of iterations. 
          Levelshifting, if invoked, occurs when the 
          HOMO/LUMO gap drops below (HL_TOL):  1.00D-02
          DIIS, if invoked, will attempt to extrapolate 
          using up to (NFOCK): 10 stored Fock matrices.

                    Damping( 0%)  Levelshifting(0.5)       DIIS
                  --------------- ------------------- ---------------
          dE  on:    start            ASAP                start   
          dE off:    2 iters         50 iters            50 iters 


      Screening Tolerance Information
      -------------------------------
          Density screening/tol_rho:  1.00D-13
          AO Gaussian exp screening on grid/accAOfunc:  23
          CD Gaussian exp screening on grid/accCDfunc:  20
          XC Gaussian exp screening on grid/accXCfunc:  20
          Schwarz screening/accCoul:  1.00D-11

  int_init: cando_txs set to always be  F
  intd_init: cando_txs set to always be  F


                            NWChem DFT Gradient Module
                            --------------------------


                           he2+ hcth147@tz2p functional



  charge          =   1.00
  wavefunction    = open shell

  Using symmetry


                         DFT ENERGY GRADIENTS

    atom               coordinates                        gradient
                 x          y          z           x          y          z
   1 he      0.000000   1.096041   0.000000    0.000000  -0.016227   0.000000
   2 he      0.000000  -1.096041   0.000000    0.000000   0.016227   0.000000

                 ----------------------------------------
                 |  Time  |  1-e(secs)   |  2-e(secs)   |
                 ----------------------------------------
                 |  CPU   |       0.00   |       0.00   |
                 ----------------------------------------
                 |  WALL  |       0.00   |       0.00   |
                 ----------------------------------------

 Task  times  cpu:        0.1s     wall:        0.1s


                                NWChem Input Module
                                -------------------


                            he2+ Becke 1997 functional
                            --------------------------

                                 NWChem DFT Module
                                 -----------------


                            he2+ Becke 1997 functional




 Summary of "ao basis" -> "ao basis" (cartesian)
 ------------------------------------------------------------------------------
       Tag                 Description            Shells   Functions and Types
 ---------------- ------------------------------  ------  ---------------------
 he               modified:DZVP (DFT Orbital)        3        5   2s1p


      Symmetry analysis of basis
      --------------------------

        a1          4
        a2          1
        b1          1
        b2          4

  Caching 1-el integrals 

            General Information
            -------------------
          SCF calculation type: DFT
          Wavefunction type:  spin polarized.
          No. of atoms     :     2
          No. of electrons :     3
           Alpha electrons :     2
            Beta electrons :     1
          Charge           :     1
          Spin multiplicity:     2
          Use of symmetry is: on ; symmetry adaption is: on 
          Maximum number of iterations:  50
          AO basis - number of functions:    10
                     number of shells:     6
          A Charge density fitting basis will be used.
          CD basis - number of functions:    26
                     number of shells:    12
          Convergence on energy requested:  1.00D-10
          Convergence on density requested:  1.00D-05
          Convergence on gradient requested:  5.00D-04

              XC Information
              --------------
                  Becke 1997-1 Method XC Potential
                     Hartree-Fock (Exact) Exchange  0.210          
                  Becke 1997-1 Exchange Functional  1.000          
                Becke 1997-1 Correlation Potential  1.000          

             Grid Information
             ----------------
          Grid used for XC integration:  medium    
          Radial quadrature: Mura-Knowles        
          Angular quadrature: Lebedev. 
          Tag              B.-S. Rad. Rad. Pts. Rad. Cut. Ang. Pts.
          ---              ---------- --------- --------- ---------
          he                  0.35       49           6.0       434
          Grid pruning is: on 
          Number of quadrature shells:    49
          Spatial weights used:  Erf1

          Convergence Information
          -----------------------
          Convergence aids based upon iterative change in 
          total energy or number of iterations. 
[...]


         Total DFT energy =       -5.013673247303
      One electron energy =       -8.748431514626
           Coulomb energy =        3.563092905090
    Exchange-Corr. energy =       -1.653083772250
 Nuclear repulsion energy =        1.824749134482

 Numeric. integr. density =        2.999999841825

     Total iterative time =      0.1s



                  Occupations of the irreducible representations
                  ----------------------------------------------

                     irrep           alpha         beta
                     --------     --------     --------
                     a1                1.0          1.0
                     a2                0.0          0.0
                     b1                0.0          0.0
                     b2                1.0          0.0


                    DFT Final Alpha Molecular Orbital Analysis
                    ------------------------------------------

 Vector    1  Occ=1.000000D+00  E=-1.360360D+00  Symmetry=a1
              MO Center=  5.1D-36, -2.5D-17,  1.3D-16, r^2= 5.5D-01
   Bfn.  Coefficient  Atom+Function         Bfn.  Coefficient  Atom+Function  
  ----- ------------  ---------------      ----- ------------  ---------------
     1      0.598215  1 He s                  6      0.598215  2 He s          
     2      0.068845  1 He s                  7      0.068845  2 He s          

 Vector    2  Occ=1.000000D+00  E=-1.105003D+00  Symmetry=b2
              MO Center= -2.9D-21,  7.8D-17,  2.0D-16, r^2= 6.5D-01
   Bfn.  Coefficient  Atom+Function         Bfn.  Coefficient  Atom+Function  
  ----- ------------  ---------------      ----- ------------  ---------------
     1      0.691945  1 He s                  6     -0.691945  2 He s          
     2      0.161694  1 He s                  7     -0.161694  2 He s          

 Vector    3  Occ=0.000000D+00  E=-1.510904D-01  Symmetry=b1
              MO Center=  3.7D-35,  4.1D-18,  8.2D-52, r^2= 2.1D+00
   Bfn.  Coefficient  Atom+Function         Bfn.  Coefficient  Atom+Function  
  ----- ------------  ---------------      ----- ------------  ---------------
     3      0.551445  1 He px                 8      0.551445  2 He px         

 Vector    4  Occ=0.000000D+00  E=-1.510904D-01  Symmetry=a1
              MO Center= -3.2D-57,  1.2D-17, -3.9D-15, r^2= 2.1D+00
   Bfn.  Coefficient  Atom+Function         Bfn.  Coefficient  Atom+Function  
  ----- ------------  ---------------      ----- ------------  ---------------
     5      0.551445  1 He pz                10      0.551445  2 He pz         

 Vector    5  Occ=0.000000D+00  E=-3.309872D-02  Symmetry=a1
              MO Center=  1.3D-31, -1.3D-14,  1.6D-15, r^2= 3.1D+00
   Bfn.  Coefficient  Atom+Function         Bfn.  Coefficient  Atom+Function  
  ----- ------------  ---------------      ----- ------------  ---------------
     4      0.680893  1 He py                 9     -0.680893  2 He py         
     2      0.636447  1 He s                  7      0.636447  2 He s          
     1     -0.279559  1 He s                  6     -0.279559  2 He s          

 Vector    6  Occ=0.000000D+00  E=-4.412138D-03  Symmetry=b2
              MO Center= -5.7D-19,  1.4D-14, -4.4D-15, r^2= 3.5D+00
   Bfn.  Coefficient  Atom+Function         Bfn.  Coefficient  Atom+Function  
  ----- ------------  ---------------      ----- ------------  ---------------
     2      1.626020  1 He s                  7     -1.626020  2 He s          
     4     -1.599977  1 He py                 9     -1.599977  2 He py         
     1      0.336784  1 He s                  6     -0.336784  2 He s          

 Vector    7  Occ=0.000000D+00  E= 8.903115D-02  Symmetry=a2
              MO Center=  5.7D-19, -1.2D-17,  1.7D-48, r^2= 2.9D+00
   Bfn.  Coefficient  Atom+Function         Bfn.  Coefficient  Atom+Function  
  ----- ------------  ---------------      ----- ------------  ---------------
     3      1.185520  1 He px                 8     -1.185520  2 He px         

 Vector    8  Occ=0.000000D+00  E= 8.903115D-02  Symmetry=b2
              MO Center= -3.4D-63,  7.8D-17,  3.3D-15, r^2= 2.9D+00
   Bfn.  Coefficient  Atom+Function         Bfn.  Coefficient  Atom+Function  
  ----- ------------  ---------------      ----- ------------  ---------------
     5      1.185520  1 He pz                10     -1.185520  2 He pz         

 Vector    9  Occ=0.000000D+00  E= 2.033036D-01  Symmetry=a1
              MO Center=  3.3D-35, -8.1D-17,  2.3D-15, r^2= 1.4D+00
   Bfn.  Coefficient  Atom+Function         Bfn.  Coefficient  Atom+Function  
  ----- ------------  ---------------      ----- ------------  ---------------
     1      0.685860  1 He s                  6      0.685860  2 He s          
     4      0.528048  1 He py                 9     -0.528048  2 He py         
     2     -0.478943  1 He s                  7     -0.478943  2 He s          

 Vector   10  Occ=0.000000D+00  E= 6.381828D-01  Symmetry=b2
              MO Center=  9.0D-35,  7.7D-16,  9.2D-16, r^2= 2.6D+00
   Bfn.  Coefficient  Atom+Function         Bfn.  Coefficient  Atom+Function  
  ----- ------------  ---------------      ----- ------------  ---------------
     2      6.293838  1 He s                  7     -6.293838  2 He s          
     4     -3.089861  1 He py                 9     -3.089861  2 He py         
     1     -0.700289  1 He s                  6      0.700289  2 He s          


                     DFT Final Beta Molecular Orbital Analysis
                     -----------------------------------------

 Vector    1  Occ=1.000000D+00  E=-1.259728D+00  Symmetry=a1
              MO Center= -1.0D-22,  4.4D-18,  3.6D-16, r^2= 5.7D-01
   Bfn.  Coefficient  Atom+Function         Bfn.  Coefficient  Atom+Function  
  ----- ------------  ---------------      ----- ------------  ---------------
     1      0.571683  1 He s                  6      0.571683  2 He s          
     2      0.091306  1 He s                  7      0.091306  2 He s          
     4     -0.028487  1 He py                 9      0.028487  2 He py         

 Vector    2  Occ=0.000000D+00  E=-9.975566D-01  Symmetry=b2
              MO Center= -1.6D-19,  2.5D-16,  2.5D-16, r^2= 6.7D-01
   Bfn.  Coefficient  Atom+Function         Bfn.  Coefficient  Atom+Function  
  ----- ------------  ---------------      ----- ------------  ---------------
     1      0.673828  1 He s                  6     -0.673828  2 He s          
     2      0.236851  1 He s                  7     -0.236851  2 He s          

 Vector    3  Occ=0.000000D+00  E=-1.388780D-01  Symmetry=a1
              MO Center=  2.4D-46,  1.2D-17, -3.7D-15, r^2= 2.1D+00
   Bfn.  Coefficient  Atom+Function         Bfn.  Coefficient  Atom+Function  
  ----- ------------  ---------------      ----- ------------  ---------------
     5      0.551445  1 He pz                10      0.551445  2 He pz         

 Vector    4  Occ=0.000000D+00  E=-1.388780D-01  Symmetry=b1
              MO Center=  1.0D-22, -1.3D-17,  1.9D-47, r^2= 2.1D+00
   Bfn.  Coefficient  Atom+Function         Bfn.  Coefficient  Atom+Function  
  ----- ------------  ---------------      ----- ------------  ---------------
     3      0.551445  1 He px                 8      0.551445  2 He px         

 Vector    5  Occ=0.000000D+00  E= 3.294906D-03  Symmetry=a1
              MO Center= -2.4D-33, -4.6D-16,  1.0D-15, r^2= 3.1D+00
   Bfn.  Coefficient  Atom+Function         Bfn.  Coefficient  Atom+Function  
  ----- ------------  ---------------      ----- ------------  ---------------
     4      0.704629  1 He py                 9     -0.704629  2 He py         
     2      0.613116  1 He s                  7      0.613116  2 He s          
     1     -0.252434  1 He s                  6     -0.252434  2 He s          

 Vector    6  Occ=0.000000D+00  E= 3.520706D-02  Symmetry=b2
              MO Center=  2.5D-35,  1.4D-15, -7.0D-15, r^2= 3.5D+00
   Bfn.  Coefficient  Atom+Function         Bfn.  Coefficient  Atom+Function  
  ----- ------------  ---------------      ----- ------------  ---------------
     2      1.701788  1 He s                  7     -1.701788  2 He s          
     4     -1.635564  1 He py                 9     -1.635564  2 He py         
     1      0.341172  1 He s                  6     -0.341172  2 He s          

 Vector    7  Occ=0.000000D+00  E= 1.137490D-01  Symmetry=a2
              MO Center=  1.6D-19, -4.6D-17,  5.2D-53, r^2= 2.9D+00
   Bfn.  Coefficient  Atom+Function         Bfn.  Coefficient  Atom+Function  
  ----- ------------  ---------------      ----- ------------  ---------------
     3      1.185520  1 He px                 8     -1.185520  2 He px         

 Vector    8  Occ=0.000000D+00  E= 1.137490D-01  Symmetry=b2
              MO Center=  1.5D-64,  4.4D-17,  7.4D-15, r^2= 2.9D+00
   Bfn.  Coefficient  Atom+Function         Bfn.  Coefficient  Atom+Function  
  ----- ------------  ---------------      ----- ------------  ---------------
     5      1.185520  1 He pz                10     -1.185520  2 He pz         

 Vector    9  Occ=0.000000D+00  E= 2.397851D-01  Symmetry=a1
              MO Center= -1.0D-33,  7.4D-16,  2.3D-15, r^2= 1.3D+00
   Bfn.  Coefficient  Atom+Function         Bfn.  Coefficient  Atom+Function  
  ----- ------------  ---------------      ----- ------------  ---------------
     1      0.718243  1 He s                  6      0.718243  2 He s          
     2     -0.504919  1 He s                  7     -0.504919  2 He s          
     4      0.495404  1 He py                 9     -0.495404  2 He py         

 Vector   10  Occ=0.000000D+00  E= 6.838081D-01  Symmetry=b2
              MO Center= -2.1D-36,  1.1D-16, -5.6D-16, r^2= 2.5D+00
   Bfn.  Coefficient  Atom+Function         Bfn.  Coefficient  Atom+Function  
  ----- ------------  ---------------      ----- ------------  ---------------
     2      6.271388  1 He s                  7     -6.271388  2 He s          
     4     -3.071083  1 He py                 9     -3.071083  2 He py         
     1     -0.715664  1 He s                  6      0.715664  2 He s          


   alpha - beta orbital overlaps 
   ----------------------------- 


   alpha      1      2      3      4      5      6      7      8      9     10
    beta      1      2      4      3      5      6      7      8      9     10
 overlap   0.999  1.000  1.000  1.000  0.999  1.000  1.000  1.000  0.998  1.000


     --------------------------
     Expectation value of S2:  
     --------------------------
      <S2> =      0.7513 (Exact =     0.7500)


 center of mass
 --------------
 x =   0.00000000 y =   0.00000000 z =   0.00000000

 moments of inertia (a.u.)
 ------------------
           9.616695067604           0.000000000000           0.000000000000
           0.000000000000           0.000000000000           0.000000000000
           0.000000000000           0.000000000000           9.616695067604

     Multipole analysis of the density
     ---------------------------------

     L   x y z        total         alpha         beta         nuclear
     -   - - -        -----         -----         ----         -------
     0   0 0 0      1.000000     -2.000000     -1.000000      4.000000

     1   1 0 0     -0.000000      0.000000     -0.000000      0.000000
     1   0 1 0     -0.000000     -0.000000      0.000000      0.000000
     1   0 0 1     -0.000000     -0.000000     -0.000000      0.000000

     2   2 0 0     -0.951418     -0.602029     -0.349389      0.000000
     2   1 1 0     -0.000000     -0.000000     -0.000000      0.000000
     2   1 0 1      0.000000      0.000000      0.000000      0.000000
     2   0 2 0      0.400427     -3.084992     -1.319805      4.805224
     2   0 1 1      0.000000      0.000000     -0.000000      0.000000
     2   0 0 2     -0.951418     -0.602029     -0.349389      0.000000


            General Information
            -------------------
          SCF calculation type: DFT
          Wavefunction type:  spin polarized.
          No. of atoms     :     2
          No. of electrons :     3
           Alpha electrons :     2
            Beta electrons :     1
          Charge           :     1
          Spin multiplicity:     2
          Use of symmetry is: on ; symmetry adaption is: on 
          Maximum number of iterations:  50
          AO basis - number of functions:    10
                     number of shells:     6
          A Charge density fitting basis will be used.
          CD basis - number of functions:    26
                     number of shells:    12
          Convergence on energy requested:  1.00D-10
          Convergence on density requested:  1.00D-05
          Convergence on gradient requested:  5.00D-04

              XC Information
              --------------
                  PKZB metaGGA Exchange Functional  1.000          
             PKZB99 metaGGA Correlation Functional  1.000          

             Grid Information
             ----------------
          Grid used for XC integration:  medium    
          Radial quadrature: Mura-Knowles        
          Angular quadrature: Lebedev. 
          Tag              B.-S. Rad. Rad. Pts. Rad. Cut. Ang. Pts.
          ---              ---------- --------- --------- ---------
          he                  0.35       49           6.0       434
          Grid pruning is: on 
          Number of quadrature shells:    49
          Spatial weights used:  Erf1

          Convergence Information
          -----------------------
          Convergence aids based upon iterative change in 
          total energy or number of iterations. 
          Levelshifting, if invoked, occurs when the 
          HOMO/LUMO gap drops below (HL_TOL):  1.00D-02
          DIIS, if invoked, will attempt to extrapolate 
          using up to (NFOCK): 10 stored Fock matrices.

                    Damping( 0%)  Levelshifting(0.5)       DIIS
                  --------------- ------------------- ---------------
          dE  on:    start            ASAP                start   
          dE off:    2 iters         50 iters            50 iters 


      Screening Tolerance Information
      -------------------------------
          Density screening/tol_rho:  1.00D-13
          AO Gaussian exp screening on grid/accAOfunc:  23
          CD Gaussian exp screening on grid/accCDfunc:  20
          XC Gaussian exp screening on grid/accXCfunc:  20
          Schwarz screening/accCoul:  1.00D-11

  int_init: cando_txs set to always be  F
  intd_init: cando_txs set to always be  F


                            NWChem DFT Gradient Module
                            --------------------------


                                      XC PKZB



  charge          =   1.00
  wavefunction    = open shell

  Using symmetry


                         DFT ENERGY GRADIENTS

    atom               coordinates                        gradient
                 x          y          z           x          y          z
   1 he      0.000000   1.096041   0.000000    0.000000  -0.020819  -0.000000
   2 he      0.000000  -1.096041   0.000000    0.000000   0.020819  -0.000000

                 ----------------------------------------
                 |  Time  |  1-e(secs)   |  2-e(secs)   |
                 ----------------------------------------
                 |  CPU   |       0.00   |       0.00   |
                 ----------------------------------------
                 |  WALL  |       0.00   |       0.00   |
                 ----------------------------------------

 Task  times  cpu:        0.1s     wall:        0.1s


                                NWChem Input Module
                                -------------------


 Summary of allocated global arrays
-----------------------------------
  No active global arrays


MA_summarize_allocated_blocks: starting scan ...
MA_summarize_allocated_blocks: scan completed: 0 heap blocks, 0 stack blocks
MA usage statistics:

	allocation statistics:
					      heap	     stack
					      ----	     -----
	current number of blocks	         0	         0
	maximum number of blocks	        29	        61
	current total bytes		         0	         0
	maximum total bytes		 268939816	  22510312
	maximum total K-bytes		    268940	     22511
	maximum total M-bytes		       269	        23


                                     CITATION
                                     --------
                Please cite the following reference when publishing
                           results obtained with NWChem:

          E. Apra, E. J. Bylaska, W. A. de Jong, N. Govind, K. Kowalski,
       T. P. Straatsma, M. Valiev, H. J. J. van Dam, Y. Alexeev, J. Anchell,
       V. Anisimov, F. W. Aquino, R. Atta-Fynn, J. Autschbach, N. P. Bauman,
     J. C. Becca, D. E. Bernholdt, K. Bhaskaran-Nair, S. Bogatko, P. Borowski,
         J. Boschen, J. Brabec, A. Bruner, E. Cauet, Y. Chen, G. N. Chuev,
      C. J. Cramer, J. Daily, M. J. O. Deegan, T. H. Dunning Jr., M. Dupuis,
   K. G. Dyall, G. I. Fann, S. A. Fischer, A. Fonari, H. Fruchtl, L. Gagliardi,
      J. Garza, N. Gawande, S. Ghosh, K. Glaesemann, A. W. Gotz, J. Hammond,
       V. Helms, E. D. Hermes, K. Hirao, S. Hirata, M. Jacquelin, L. Jensen,
   B. G. Johnson, H. Jonsson, R. A. Kendall, M. Klemm, R. Kobayashi, V. Konkov,
      S. Krishnamoorthy, M. Krishnan, Z. Lin, R. D. Lins, R. J. Littlefield,
      A. J. Logsdail, K. Lopata, W. Ma, A. V. Marenich, J. Martin del Campo,
   D. Mejia-Rodriguez, J. E. Moore, J. M. Mullin, T. Nakajima, D. R. Nascimento,
    J. A. Nichols, P. J. Nichols, J. Nieplocha, A. Otero-de-la-Roza, B. Palmer,
    A. Panyala, T. Pirojsirikul, B. Peng, R. Peverati, J. Pittner, L. Pollack,
   R. M. Richard, P. Sadayappan, G. C. Schatz, W. A. Shelton, D. W. Silverstein,
   D. M. A. Smith, T. A. Soares, D. Song, M. Swart, H. L. Taylor, G. S. Thomas,
            V. Tipparaju, D. G. Truhlar, K. Tsemekhman, T. Van Voorhis,
      A. Vazquez-Mayagoitia, P. Verma, O. Villa, A. Vishnu, K. D. Vogiatzis,
        D. Wang, J. H. Weare, M. J. Williamson, T. L. Windus, K. Wolinski,
        A. T. Wong, Q. Wu, C. Yang, Q. Yu, M. Zacharias, Z. Zhang, Y. Zhao,
                                and R. J. Harrison
                        "NWChem: Past, present, and future
                         J. Chem. Phys. 152, 184102 (2020)
                               doi:10.1063/5.0004997

                                      AUTHORS
                                      -------
  E. Apra, E. J. Bylaska, N. Govind, K. Kowalski, M. Valiev, D. Mejia-Rodriguez,
       A. Kunitsa, N. P. Bauman, A. Panyala, W. A. de Jong, T. P. Straatsma,
        H. J. J. van Dam, D. Wang, T. L. Windus, J. Hammond, J. Autschbach,
    K. Bhaskaran-Nair, J. Brabec, K. Lopata, S. A. Fischer, S. Krishnamoorthy,
     M. Jacquelin, W. Ma, M. Klemm, O. Villa, Y. Chen, V. Anisimov, F. Aquino,
    S. Hirata, M. T. Hackler, Eric Hermes, L. Jensen, J. E. Moore, J. C. Becca,
      V. Konjkov, T. Risthaus, M. Malagoli, A. Marenich, A. Otero-de-la-Roza,
        J. Mullin, P. Nichols, R. Peverati, J. Pittner, Y. Zhao, P.-D. Fan,
        A. Fonari, M. J. Williamson, R. J. Harrison, J. R. Rehr, M. Dupuis,
     D. Silverstein, D. M. A. Smith, J. Nieplocha, V. Tipparaju, M. Krishnan,
     B. E. Van Kuiken, A. Vazquez-Mayagoitia, M. Swart, Q. Wu, T. Van Voorhis,
     A. A. Auer, M. Nooijen, L. D. Crosby, E. Brown, G. Cisneros, G. I. Fann,
   H. Fruchtl, J. Garza, K. Hirao, R. A. Kendall, J. A. Nichols, K. Tsemekhman,
    K. Wolinski, J. Anchell, D. E. Bernholdt, P. Borowski, T. Clark, D. Clerc,
   H. Dachsel, M. J. O. Deegan, K. Dyall, D. Elwood, E. Glendening, M. Gutowski,
   A. C. Hess, J. Jaffe, B. G. Johnson, J. Ju, R. Kobayashi, R. Kutteh, Z. Lin,
   R. Littlefield, X. Long, B. Meng, T. Nakajima, S. Niu, L. Pollack, M. Rosing,
   K. Glaesemann, G. Sandrone, M. Stave, H. Taylor, G. Thomas, J. H. van Lenthe,
                               A. T. Wong, Z. Zhang.

 Total times  cpu:        0.8s     wall:        0.8s
