 argument  1 = pspw_md.nw
 argument  2 = -master
 argument  3 = boys.emsl.pnl.gov
 argument  4 = 23095
 argument  5 = 1
 argument  6 = 8
 argument  7 = 0
 argument  8 = 0
                                         
                                         


              Northwest Computational Chemistry Package (NWChem) 4.0
              ------------------------------------------------------


                    Environmental Molecular Sciences Laboratory
                       Pacific Northwest National Laboratory
                                Richland, WA 99352

                                         
                                         


                COPYRIGHT (C) 1994, 1995, 1996, 1997, 1998, 1999, 2000
                        Pacific Northwest National Laboratory,
                             Battelle Memorial Institute.

                            >>> All Rights Reserved <<<


                                    DISCLAIMER
                                    ----------

            This material was prepared as an account of work sponsored
            by an agency of the United States Government.  Neither the
            United States Government nor the United States Department
            of Energy, nor Battelle, nor any of their employees, MAKES
            ANY WARRANTY, EXPRESS OR IMPLIED, OR ASSUMES ANY LEGAL
            LIABILITY OR RESPONSIBILITY FOR THE ACCURACY, COMPLETENESS,
            OR USEFULNESS OF ANY INFORMATION, APPARATUS, PRODUCT,
            SOFTWARE, OR PROCESS DISCLOSED, OR REPRESENTS THAT ITS USE
            WOULD NOT INFRINGE PRIVATELY OWNED RIGHTS.


                                    LIMITED USE
                                    -----------

            This software (including any documentation) is being made
            available to you for your internal use only, solely for use
            in performance of work directly for the U.S. Federal
            Government or work under contracts with the U.S. Department
            of Energy or other U.S. Federal Government agencies.  This
            software is a version which has not yet been evaluated and
            cleared for commercialization.  Adherence to this notice
            may be necessary for the author, Battelle Memorial
            Institute, to successfully assert copyright in and
            commercialize this software. This software is not intended
            for duplication or distribution to third parties without
            the permission of the Manager of Software Products at
            Pacific Northwest National Laboratory, Richland,
            Washington, 99352.


                                  ACKNOWLEDGMENT
                                  --------------

            This software and its documentation were produced with
            Government support under Contract Number DE-AC06-76RLO-1830
            awarded by the United States Department of Energy.  The
            Government retains a paid-up non-exclusive, irrevocable
            worldwide license to reproduce, prepare derivative works,
            perform publicly and display publicly by or for the
            Government, including the right to distribute to other
            Government contractors.


           Job information
           ---------------

    hostname      = boys
    program       = /afs/msrc.pnl.gov/files/home/bylaska/bin/nwchem
    date          = Thu Oct 26 19:13:21 2000

    compiled      = Thu Oct 26 17:15:17 PDT 2000
    source        = /msrc/home/bylaska/spare/nwchem
    nwchem branch = Development
    input         = pspw_md.nw
    prefix        = SiC2-MD.
    data base     = ./SiC2-MD.db
    status        = startup
    nproc         =    8
    time left     =     -1s



           Memory information
           ------------------

    heap      =    1966079 doubles =     15.7 Mbytes
    stack     =    1572856 doubles =     12.6 Mbytes
    global    =    1572864 doubles =     12.6 Mbytes (distinct from heap & stack)
    total     =    5111799 doubles =     40.9 Mbytes
    verify    = yes
    hardfail  = no 


           Directory information
           ---------------------

  0 permanent = .
  0 scratch   = .




                                NWChem Input Module
                                -------------------


                                     SiC2-MD
                                     -------


          ------
          auto-z
          ------


                             Geometry "geometry" -> ""
                             -------------------------

 Output coordinates in a.u. (scale by  1.000000000 to convert to a.u.)

  No.       Tag          Charge          X              Y              Z
 ---- ---------------- ---------- -------------- -------------- --------------
    1 Si                  14.0000     0.00000000     0.92307692     0.00000000
    2 C                    6.0000     1.24000000    -1.07692308     0.00000000
    3 C                    6.0000    -1.24000000    -1.07692308     0.00000000

      Atomic Mass 
      ----------- 

      Si                27.976930
      C                 12.000000


 Effective nuclear repulsion energy (a.u.)      85.9079551361

            Nuclear Dipole moment (a.u.) 
            ----------------------------
        X                 Y               Z
 ---------------- ---------------- ----------------
     0.0000000000     0.0000000000     0.0000000000



                                Z-matrix (autoz)
                                -------- 

 Units are Angstrom for bonds and degrees for angles

      Type          Name      I     J     K     L     M      Value
      ----------- --------  ----- ----- ----- ----- ----- ----------
    1 Stretch                  1     2                       1.24527
    2 Stretch                  1     3                       1.24527
    3 Stretch                  2     3                       1.31236
    4 Bend                     1     2     3                58.20109
    5 Bend                     1     3     2                58.20109
    6 Bend                     2     1     3                63.59783

 ==============================================================================
                                internuclear distances
 ------------------------------------------------------------------------------
       center one      |      center two      | atomic units |       a.u.
 ------------------------------------------------------------------------------
    2 C                |   1 Si               |     2.35321  |     2.35321
    3 C                |   1 Si               |     2.35321  |     2.35321
    3 C                |   2 C                |     2.48000  |     2.48000
 ------------------------------------------------------------------------------
                         number of included internuclear distances:          3
 ==============================================================================



 ==============================================================================
                                 internuclear angles
 ------------------------------------------------------------------------------
        center 1       |       center 2       |       center 3       |  degrees
 ------------------------------------------------------------------------------
    2 C                |   1 Si               |   3 C                |    63.60
    2 C                |   1 Si               |   3 C                |    63.60
    3 C                |   1 Si               |   2 C                |    63.60
 ------------------------------------------------------------------------------
                            number of included internuclear angles:          3
 ==============================================================================



 >>>> PSPW Serial Module - 1d pseudopotential solver <<<<
All electron atom solver

Atom name: C
Zcharge  : 6.000000e+00
Amass    : 1.200000e+01
Ncore    : 1
Nvalence : 2
         : restricted calculation

------ Solver information ------
solver type      : Pauli
hartree type     : On
exchange type    : Dirac
           alpha : 0.666667
correlation type : Vosko parameterization
Solver iterations: 22

------- Grid information -------
Zcharge  : 6.000000e+00
amesh    : 1.005000e+00
R_max    : 4.467913e+01
Ngrid    : 2785
------------------------------------------------------------
n	l	population	Eigenvalue	Outer Peak
1	s	2.00		-9.952135e+00	1.743589e-01
2	s	2.00		-5.012954e-01	1.213506e+00
2	p	2.00		-1.990710e-01	1.189537e+00
------------------------------------------------------------
charge      = 6.000000e+00
core charge = 2.000000e+00

Total E       = -3.744197e+01

E_Hartree     = 1.763555e+01
<Vh>          = 3.527111e+01

E_exchange    = -4.358252e+00
<Vx>          = -5.811003e+00

E_correlation = -3.729106e-01
<Vc>          = -4.187471e-01


Hamann pseudopotential check

l	rcore     rmatch    E in       E psp      norm test slope test
0	0.800000  1.978409  -0.501295  -0.501295  1.000000  1.000007
1	0.850000  2.175060  -0.199071  -0.199071  1.000000  1.000008
2	0.850000  2.121490  -0.199071  -0.199071  1.000000  1.000000


PSP solver information

Atom name: C
Zcharge  : 4.000000e+00
Nvalence : 3
         : restricted calculation

------ Solver information ------
solver type      : Hamann
hartree type     : On
exchange type    : Dirac
           alpha : 0.666667
correlation type : Vosko parameterization
----------------------------------------------------------------------------
n	l	population	Ecut		Rcut		Outer Peak
1	s	2.00		-5.012954e-01	8.000000e-01	1.225672e+00
2	p	2.00		-1.990710e-01	8.500000e-01	1.050089e+00
3	d	0.00		-1.990710e-01	8.500000e-01	4.467913e+01
----------------------------------------------------------------------------
Pseudopotential Charge: 4.000000

Total E       = -5.339938e+00

E_Hartree     = 4.359439e+00
<Vh>          = 8.718878e+00

E_exchange    = -1.176866e+00
<Vx>          = -1.569155e+00

E_correlation = -1.935145e-01
<Vc>          = -2.214593e-01

Outputing pseudowavefunctions: C.psw.plt
Outputing pseudopotentials: C.psp.plt
Creating datafile for Kleinman-Bylander input: C.psp
  + Appending pseudopotentials:    s thru d
  + Appending pseudowavefunctions: s thru d
Outputing all-electron wavefunctions: C.1s C.2s C.2p C.3d
Outputing atom density: C.dns.plt
Outputing core density: C.cdns.plt
Outputing core density gradient: C.cddns.plt
Outputing semicore density: C.sdns.plt
Outputing semicore density gradient: C.sddns.plt
Outputing all-electron potential(non-screened): C.pot.plt
     >>>  JOB COMPLETED     AT Thu Oct 26 19:13:26 2000  <<<
 >>>> PSPW Serial Module - 1d pseudopotential solver <<<<
All electron atom solver

Atom name: Si
Zcharge  : 1.400000e+01
Amass    : 2.800000e+01
Ncore    : 3
Nvalence : 2
         : restricted calculation

------ Solver information ------
solver type      : Pauli
hartree type     : On
exchange type    : Dirac
           alpha : 0.666667
correlation type : Vosko parameterization
Solver iterations: 24

------- Grid information -------
Zcharge  : 1.400000e+01
amesh    : 1.005000e+00
R_max    : 4.470524e+01
Ngrid    : 2955
------------------------------------------------------------
n	l	population	Eigenvalue	Outer Peak
1	s	2.00		-6.535740e+01	7.252218e-02
2	s	2.00		-5.098976e+00	4.545499e-01
2	p	6.00		-3.513807e+00	3.855685e-01
3	s	2.00		-3.998215e-01	1.765023e+00
3	p	2.00		-1.529635e-01	2.144010e+00
------------------------------------------------------------
charge      = 1.400000e+01
core charge = 1.000000e+01

Total E       = -2.888262e+02

E_Hartree     = 1.320216e+02
<Vh>          = 2.640433e+02

E_exchange    = -1.854621e+01
<Vx>          = -2.472829e+01

E_correlation = -1.054685e+00
<Vc>          = -1.169188e+00


Hamann pseudopotential check

l	rcore     rmatch    E in       E psp      norm test slope test
0	1.059014  2.710389  -0.399821  -0.399821  1.000000  1.000005
1	1.286406  3.460738  -0.152964  -0.152964  1.000000  1.000004
2	1.286406  3.211277  -0.152964  -0.152964  1.000000  1.000000


PSP solver information

Atom name: Si
Zcharge  : 4.000000e+00
Nvalence : 3
         : restricted calculation

------ Solver information ------
solver type      : Hamann
hartree type     : On
exchange type    : Dirac
           alpha : 0.666667
correlation type : Vosko parameterization
----------------------------------------------------------------------------
n	l	population	Ecut		Rcut		Outer Peak
1	s	2.00		-3.998215e-01	1.059014e+00	1.773848e+00
2	p	2.00		-1.529635e-01	1.286406e+00	2.144010e+00
3	d	0.00		-1.529635e-01	1.286406e+00	4.470524e+01
----------------------------------------------------------------------------
Pseudopotential Charge: 4.000000

Total E       = -3.749888e+00

E_Hartree     = 2.936877e+00
<Vh>          = 5.873754e+00

E_exchange    = -8.005235e-01
<Vx>          = -1.067365e+00

E_correlation = -1.635775e-01
<Vc>          = -1.892953e-01

Outputing pseudowavefunctions: Si.psw.plt
Outputing pseudopotentials: Si.psp.plt
Creating datafile for Kleinman-Bylander input: Si.psp
  + Appending pseudopotentials:    s thru d
  + Appending pseudowavefunctions: s thru d
Outputing all-electron wavefunctions: Si.1s Si.2s Si.2p Si.3s Si.3p Si.3d
Outputing atom density: Si.dns.plt
Outputing core density: Si.cdns.plt
Outputing core density gradient: Si.cddns.plt
Outputing semicore density: Si.sdns.plt
Outputing semicore density gradient: Si.sddns.plt
Outputing all-electron potential(non-screened): Si.pot.plt
     >>>  JOB COMPLETED     AT Thu Oct 26 19:13:31 2000  <<<

== C.psp expansion coefficients ==

ATOM       S            P            D            F
C  :   0.68653E+00  0.19338E+01



== Si.psp expansion coefficients ==

ATOM       S            P            D            F
Si :   0.21344E+00  0.34796E+00


 >>>> PSPW parallel Module - psp_formatter <<<<
      ********************************************
      *                                          *
      *     KBPPV3 - Pseudopotential Formatter   *
      *                                          *
      *      version last updated 4/15/99        *
      *                                          *
      * This code was written by Eric J. Bylaska *
      * and was based upon algorithms and code   *
      * developed by the group of                *
      * Prof. John H. Weare                      *
      ********************************************
     >>>  JOB STARTED       AT Thu Oct 26 19:13:32 2000  <<<

 Pseudpotential Data
 -------------------
   atom     :C 
   charge   :   4.000000000000000    
   mass no. :   12.00000000000000    
   highest angular component      :           2
   highest angular component used :           2
   local potential used           :           0
  cutoffs:      0.800     0.850     0.850

 Simulation Cell
 ---------------
  boundry: periodic
  ngrid  :  24  24  24
  unita  :    20.000     0.000     0.000
               0.000    20.000     0.000
               0.000     0.000    20.000

     >>>  JOB COMPLETED     AT Thu Oct 26 19:13:33 2000  <<<

 Task  times  cpu:        0.5s     wall:        1.2s


                                NWChem Input Module
                                -------------------


 >>>> PSPW parallel Module - psp_formatter <<<<
      ********************************************
      *                                          *
      *     KBPPV3 - Pseudopotential Formatter   *
      *                                          *
      *      version last updated 4/15/99        *
      *                                          *
      * This code was written by Eric J. Bylaska *
      * and was based upon algorithms and code   *
      * developed by the group of                *
      * Prof. John H. Weare                      *
      ********************************************
     >>>  JOB STARTED       AT Thu Oct 26 19:13:33 2000  <<<

 Pseudpotential Data
 -------------------
   atom     :Si
   charge   :   4.000000000000000    
   mass no. :   28.00000000000000    
   highest angular component      :           2
   highest angular component used :           2
   local potential used           :           2
  cutoffs:      1.059     1.286     1.286

 Simulation Cell
 ---------------
  boundry: periodic
  ngrid  :  24  24  24
  unita  :    20.000     0.000     0.000
               0.000    20.000     0.000
               0.000     0.000    20.000

     >>>  JOB COMPLETED     AT Thu Oct 26 19:13:33 2000  <<<

 Task  times  cpu:        0.4s     wall:        0.8s


                                NWChem Input Module
                                -------------------


 >>>> PSPW Serial Module - wavefunction_initializer <<<<
 writing <spin= 1,psi=  1>    -     (  0  0  0 :   0)
  Random noise is added to this psi. P=   1.059871304753567    
 writing <spin= 1,psi=  2>    -     (  0  0  1 :   2)
  Random noise is added to this psi. P=   1.211290699479110    
 writing <spin= 1,psi=  3>    -     (  0  0  1 :  -2)
  Random noise is added to this psi. P=   1.429011852271955    
 writing <spin= 1,psi=  4>    -     (  0  1  1 :   2)
  Random noise is added to this psi. P=   1.604602926506392    
 writing <spin= 1,psi=  5>    -     (  0  1  1 :  -2)
  Random noise is added to this psi. P=   1.722815281741070    
 writing <spin= 1,psi=  6>    -     (  1  1  1 :   2)
  JOB HAS BEEN COMPLETED.  CODE=           0
     >>>  JOB COMPLETED     AT Thu Oct 26 19:13:35 2000  <<<

 Task  times  cpu:        0.1s     wall:        1.0s


                                NWChem Input Module
                                -------------------


 >>>> PSPW Parallel Module - steepest_descent <<<<
          ****************************************************
          *                                                  *
          *     Car-Parrinello microcluster calculation      *
          *                                                  *
          *     [     steepest descent minimization   ]      *
          *                                                  *
          *      [ NortWest Chemistry implementation ]       *
          *                                                  *
          *            version #5.00   06/01/99              *
          *                                                  *
          *    This code was developed by Eric J. Bylaska,   *
          *    and was based upon algorithms and code        *
          *    developed by the group of Prof. John H. Weare *
          *                                                  *
          ****************************************************
     >>>  JOB STARTED       AT Thu Oct 26 19:13:35 2000  <<<
          ================ input data ========================

 number of processors used:  8

 options:
      ionic motion         = no
      boundry conditions   = periodic    (version3)
      electron spin        = restricted
      exchange-correlation = Vosko et al parameterization

 elements involved in the cluster:
      1: C   mass no.:  12.0   core charge:  4.  lmax=2
             highest angular component      :  2
             local potential used           :  0
             number of non-local projections:  8
             cutoff =   0.800   0.850   0.850
      2: Si  mass no.:  28.0   core charge:  4.  lmax=2
             highest angular component      :  2
             local potential used           :  2
             number of non-local projections:  4
             cutoff =   1.059   1.286   1.286

 atomic composition:
     C :  2     Si:  1

 initial position of ions:
        1 Si (    0.00000    0.92308    0.00000 )
        2 C  (    1.24000   -1.07692    0.00000 )
        3 C  (   -1.24000   -1.07692    0.00000 )
       G.C.  (    0.00000   -0.41026    0.00000 )
      C.O.M. (    0.00000    0.00000    0.00000 )

 number of electrons: spin up=  6  spin down=  6 ( fourier space)

 supercell:
      lattice: a1=<  20.000   0.000   0.000 >
               a2=<   0.000  20.000   0.000 >
               a3=<   0.000   0.000  20.000 >
               b1=<   0.314   0.000   0.000 >
               b2=<   0.000   0.314   0.000 >
               b3=<   0.000   0.000   0.314 >
      volume :     8000.0
      density cutoff=  7.106  fft= 24x 24x 24(     3562 waves      445 per task)
      wavefnc cutoff=  7.106  fft= 24x 24x 24(     3562 waves      445 per task)
      ewald summation: cut radius=    6.37  and  1
                        mandelung= 1.76011888

 technical parameters:
      time step=     51.80     fictacious mass=  400000.0
      tolerance=.100E-08 (energy)   0.100E-08 (electron)   0.100E-03 (ion)



          ================ iteration =========================
     >>>  ITERATION STARTED AT Thu Oct 26 19:13:37 2000  <<<
 Lagrange Multiplier tolerance too high:  4.5297099404706387E-13
 try using a smaller time step
      10   -0.1227725759E+01   -0.23701E-02    0.98781E-01    0.00000E+00
      20   -0.9510246634E+01   -0.15989E-01    0.28140E-01    0.00000E+00
      30   -0.1142054332E+02   -0.36878E-02    0.63587E-02    0.00000E+00
      40   -0.1205770802E+02   -0.12300E-02    0.32786E-02    0.00000E+00
      50   -0.1249473135E+02   -0.84367E-03    0.31260E-02    0.00000E+00
      60   -0.1285802750E+02   -0.70134E-03    0.27870E-02    0.00000E+00
      70   -0.1312512812E+02   -0.51564E-03    0.22058E-02    0.00000E+00
      80   -0.1329995339E+02   -0.33750E-03    0.16171E-02    0.00000E+00
      90   -0.1341296491E+02   -0.21817E-03    0.11337E-02    0.00000E+00
     100   -0.1348889620E+02   -0.14659E-03    0.77169E-03    0.00000E+00
 *** arived at the Maximum iiteration.   terminated.
     >>>  ITERATION ENDED   AT Thu Oct 26 19:13:45 2000  <<<



          =============  summary of results  =================
 final position of ions:
        1 Si (    0.00000    0.92308    0.00000 )
        2 C  (    1.24000   -1.07692    0.00000 )
        3 C  (   -1.24000   -1.07692    0.00000 )
       G.C.  (    0.00000   -0.41026    0.00000 )
      C.O.M. (    0.00000    0.00000    0.00000 )

 number of electrons: spin up=    6.00000  down=    6.00000 (real space)

 total     energy    :  -0.1348889620E+02 (   -0.44963E+01/ion)
 total orbital energy:  -0.6236060733E+01 (   -0.10393E+01/electron)
 hartree   energy    :   0.1852446264E+02 (    0.30874E+01/electron)
 exc-corr  energy    :  -0.4432146326E+01 (   -0.73869E+00/electron)
 ion-ion   energy    :   0.9908523769E+01 (    0.33028E+01/ion)

 K.S. kinetic energy :   0.8865399193E+01 (    0.14776E+01/electron)
 K.S. V_l  energy    :  -0.4604749149E+02 (   -0.76746E+01/electron)
 K.S. V_nl energy    :  -0.3076439909E+00 (   -0.51274E-01/electron)
 K.S. V_Hart energy  :   0.3704892528E+02 (    0.61748E+01/electron)
 K.S. V_xc energy    :  -0.5795249729E+01 (   -0.96587E+00/electron)
 Virial Coefficient  :  -0.1703415672E+01

 orbital energies:
    -0.1182305E+00 (  -3.217eV)
    -0.3669414E+00 (  -9.985eV)
    -0.4959290E+00 ( -13.495eV)
    -0.5110712E+00 ( -13.907eV)
    -0.6146135E+00 ( -16.725eV)
    -0.1011245E+01 ( -27.518eV)


=== Spin Contamination ===

 <Sexact^2> =   0.0000000000000000E+00
 <S^2>      =   0.0000000000000000E+00



== Center of Charge ==

spin up     (    0.0049,   -0.3999,   -0.0051 )
spin down   (    0.0049,   -0.3999,   -0.0051 )
     total  (    0.0049,   -0.3999,   -0.0051 )
ionic       (    0.0000,   -0.4103,    0.0000 )


== Molecular Dipole ==

mu   =  (   -0.0590,   -0.1244,    0.0617 ) au
|mu| =     0.1509 au,       0.3835 Debye



 *************************************************************
 **                                                         **
 **                  PSPW Mulliken analysis                 **
 **                                                         **
 ** Population analysis algorithm devloped by Ryoichi Kawai **
 **                                                         **
 **                   Thu Oct 26 19:13                      **
 **                                                         **
 *************************************************************


== EXPANSION COEFFICIENTS ==

ATOM       S            P            D            F
C  :   0.68653E+00  0.19338E+01
Si :   0.21344E+00  0.34796E+00


 ===============================================
 |  POPULATION ANALYSIS OF MOLECULAR ORBITALS  |
 ===============================================


------------------------------------------------


*** ORBITAL= 1***  SPIN=BOTH    SUM= 0.93895E+00 E=-0.11823E+00

NO  ATOM  L     POPULATION
 1   Si   0    0.18801   -0.43360
 1   Si   1    0.72043    0.06588   -0.70922   -0.46163
 2   C    0    0.00751    0.08666
 2   C    1    0.04676    0.10880    0.15191    0.10886
 3   C    0    0.00968    0.09839
 3   C    1    0.02761   -0.12703    0.08401    0.06641


=== DISTRIBUTION ===

     1(Si)   0.9084     2(C )   0.0543     3(C )   0.0373


== ANGULAR MOMENTUM POPULATIONS ===

      s         p         d         f
    0.2052    0.7948    0.0000    0.0000


------------------------------------------------


*** ORBITAL= 2***  SPIN=BOTH    SUM= 0.10175E+01 E=-0.36694E+00

NO  ATOM  L     POPULATION
 1   Si   0    0.01474   -0.12142
 1   Si   1    0.55567   -0.01895    0.74515    0.00771
 2   C    0    0.06654    0.25795
 2   C    1    0.19044    0.31983   -0.29689   -0.00136
 3   C    0    0.02157    0.14685
 3   C    1    0.15104   -0.28679   -0.26227    0.00298


=== DISTRIBUTION ===

     1(Si)   0.5704     2(C )   0.2570     3(C )   0.1726


== ANGULAR MOMENTUM POPULATIONS ===

      s         p         d         f
    0.1028    0.8972    0.0000    0.0000


------------------------------------------------


*** ORBITAL= 3***  SPIN=BOTH    SUM= 0.69038E+00 E=-0.49593E+00

NO  ATOM  L     POPULATION
 1   Si   0    0.33472   -0.57855
 1   Si   1    0.17843   -0.01196   -0.06016   -0.41793
 2   C    0    0.02355    0.15345
 2   C    1    0.22956   -0.21121   -0.35111   -0.24834
 3   C    0    0.01328    0.11522
 3   C    1    0.22047    0.22768   -0.33387   -0.23909


=== DISTRIBUTION ===

     1(Si)   0.5131     2(C )   0.2531     3(C )   0.2337


== ANGULAR MOMENTUM POPULATIONS ===

      s         p         d         f
    0.3715    0.6285    0.0000    0.0000


------------------------------------------------


*** ORBITAL= 4***  SPIN=BOTH    SUM= 0.78285E+00 E=-0.51107E+00

NO  ATOM  L     POPULATION
 1   Si   0    0.11240   -0.33526
 1   Si   1    0.48602   -0.01023   -0.04314    0.69574
 2   C    0    0.00922    0.09600
 2   C    1    0.19799   -0.11384   -0.19118    0.38534
 3   C    0    0.00445    0.06672
 3   C    1    0.18992    0.12586   -0.17674    0.37794


=== DISTRIBUTION ===

     1(Si)   0.5984     2(C )   0.2072     3(C )   0.1944


== ANGULAR MOMENTUM POPULATIONS ===

      s         p         d         f
    0.1261    0.8739    0.0000    0.0000


------------------------------------------------


*** ORBITAL= 5***  SPIN=BOTH    SUM= 0.21751E+01 E=-0.61461E+00

NO  ATOM  L     POPULATION
 1   Si   0    0.00102   -0.03195
 1   Si   1    0.22815   -0.47763    0.00115    0.00421
 2   C    0    0.33200   -0.57619
 2   C    1    0.01582   -0.06158   -0.10882    0.01377
 3   C    0    0.40219    0.63419
 3   C    1    0.02082   -0.11125    0.09067   -0.01495


=== DISTRIBUTION ===

     1(Si)   0.2292     2(C )   0.3478     3(C )   0.4230


== ANGULAR MOMENTUM POPULATIONS ===

      s         p         d         f
    0.7352    0.2648    0.0000    0.0000


------------------------------------------------


*** ORBITAL= 6***  SPIN=BOTH    SUM= 0.20775E+01 E=-0.10112E+01

NO  ATOM  L     POPULATION
 1   Si   0    0.05457   -0.23360
 1   Si   1    0.22303    0.00674    0.47216    0.00683
 2   C    0    0.31460   -0.56090
 2   C    1    0.03206    0.16040   -0.07956   -0.00084
 3   C    0    0.34265   -0.58537
 3   C    1    0.03309   -0.16301   -0.08070   -0.00126


=== DISTRIBUTION ===

     1(Si)   0.2776     2(C )   0.3467     3(C )   0.3757


== ANGULAR MOMENTUM POPULATIONS ===

      s         p         d         f
    0.7118    0.2882    0.0000    0.0000


 ========================================
 |   POPULATION ANALYSIS ON EACH ATOM   |
 ========================================


NO  ATOM  SPIN    TOTAL       s          p          d          f
 1   Si   UP      3.09718    0.70546    2.39172
 1   Si   DOWN    3.09718    0.70546    2.39172
 2   C    UP      1.46605    0.75341    0.71264
 2   C    DOWN    1.46605    0.75341    0.71264
 3   C    UP      1.43677    0.79382    0.64295
 3   C    DOWN    1.43677    0.79382    0.64295



=== TOTAL ANGULAR MOMENTUM POPULATION ===

 SPIN       s           p           d           f
  UP       37.54%      62.46%       0.00%       0.00% 
  UP       37.54%      62.46%       0.00%       0.00% 
 TOTAL     37.54%      62.46%       0.00%       0.00% 

 -----------------
 cputime in seconds
 prologue    :    2.681266000000001    
 main loop   :    7.873425999999998    
 epilogue    :    1.043982000000000    
 total       :    11.59867400000000    
 cputime/step:   7.8734259999999986E-02

 -------------------------------
 Time spent doing:
   FFTs                       :    3.929946000000001    
   dot products               :   0.9377720000000966    
   orthonormalization         :   0.4142859999999899    
   exchange correlation       :   0.4634520000000144    
   local pseudopotentials     :   0.2357240000000260    
   non-local pseudopotentials :    1.654558000000019    
   hartree potentials         :   7.7419999999861489E-03
   structure factors          :   4.3026000000015330E-02
   masking                    :   0.0000000000000000E+00

     >>>  JOB COMPLETED     AT Thu Oct 26 19:13:46 2000  <<<

 Task  times  cpu:       10.7s     wall:       11.6s


                                NWChem Input Module
                                -------------------


          ****************************************************
          *                                                  *
          *     Car-Parrinello microcluster calculation      *
          *                                                  *
          *     [     conjugate gradient minimization   ]    *
          *     [   (Grassman manifold implementation)  ]    *
          *                                                  *
          *      [ NortWest Chemistry implementation ]       *
          *                                                  *
          *            version #5.00   06/01/00              *
          *                                                  *
          *    This code was developed by Eric J. Bylaska,   *
          *    and was based upon algorithms and code        *
          *    developed by the group of Prof. John H. Weare *
          *                                                  *
          ****************************************************
     >>>  JOB STARTED       AT Thu Oct 26 19:13:46 2000  <<<
          ================ input data ========================

 number of processors used:  8

 options:
      boundry conditions   = periodic    (version3)
      electron spin        = restricted
      exchange-correlation = Vosko et al parameterization

 elements involved in the cluster:
      1: C   mass no.:  12.0   core charge:  4.  lmax=2
             highest angular component      :  2
             local potential used           :  0
             number of non-local projections:  8
             cutoff =   0.800   0.850   0.850
      2: Si  mass no.:  28.0   core charge:  4.  lmax=2
             highest angular component      :  2
             local potential used           :  2
             number of non-local projections:  4
             cutoff =   1.059   1.286   1.286

 atomic composition:
     C :  2     Si:  1

 initial position of ions:
        1 Si (    0.00000    0.92308    0.00000 )
        2 C  (    1.24000   -1.07692    0.00000 )
        3 C  (   -1.24000   -1.07692    0.00000 )
       G.C.  (    0.00000   -0.41026    0.00000 )
      C.O.M. (    0.00000    0.00000    0.00000 )

 number of electrons: spin up=  6  spin down=  6 (fourier space)

 supercell:
      lattice: a1=<  20.000   0.000   0.000 >
               a2=<   0.000  20.000   0.000 >
               a3=<   0.000   0.000  20.000 >
               b1=<   0.314   0.000   0.000 >
               b2=<   0.000   0.314   0.000 >
               b3=<   0.000   0.000   0.314 >
      volume :     8000.0
      density cutoff=  7.106  fft= 24x 24x 24(     3562 waves      445 per task)
      wavefnc cutoff=  7.106  fft= 24x 24x 24(     3562 waves      445 per task)
      ewald summation: cut radius=    6.37  and  1
                        mandelung= 1.76011888

 technical parameters:
      time step=      5.80     fictacious mass=  400000.0
      tolerance=.100E-08 (energy)   0.100E-08 (density)   0.100E-03 (ion)





======================
= energy calculation =
======================


          ============ electron iteration ====================
     >>>  ITERATION STARTED AT Thu Oct 26 19:13:49 2000  <<<
      10   -0.1375066505E+02   -0.50732E-02    0.11158E-03
      20   -0.1375496454E+02   -0.21202E-04    0.42018E-06
      30   -0.1375525606E+02   -0.44604E-04    0.81209E-05
      40   -0.1375543120E+02   -0.13555E-04    0.97668E-06
      50   -0.1375549579E+02   -0.63369E-05    0.58619E-06
      60   -0.1375552715E+02   -0.23547E-05    0.19387E-06
      70   -0.1375554126E+02   -0.11448E-05    0.91520E-07
      80   -0.1375554738E+02   -0.40288E-06    0.30346E-07
      90   -0.1375554994E+02   -0.19050E-06    0.14095E-07
     100   -0.1375555100E+02   -0.65448E-07    0.47592E-08
     110   -0.1375555142E+02   -0.30423E-07    0.21640E-08
     120   -0.1375555160E+02   -0.10464E-07    0.74848E-09
     130   -0.1375555167E+02   -0.48795E-08    0.34196E-09
     140   -0.1375555169E+02   -0.16678E-08    0.11806E-09
     150   -0.1375555170E+02   -0.95491E-09    0.60933E-10
  *** tolerance ok.     iteration terminated.
     >>>  ITERATION ENDED   AT Thu Oct 26 19:14:39 2000  <<<


          =============  summary of results  =================
 final position of ions:
        1 Si (    0.00000    0.92308    0.00000 )
        2 C  (    1.24000   -1.07692    0.00000 )
        3 C  (   -1.24000   -1.07692    0.00000 )
       G.C.  (    0.00000   -0.41026    0.00000 )
      C.O.M. (    0.00000    0.00000    0.00000 )

 number of electrons: spin up=    6.00000  down=    6.00000 (real space)

 total     energy    :  -0.1375555170E+02 (   -0.45852E+01/ion)
 total orbital energy:  -0.5420017923E+01 (   -0.90334E+00/electron)
 hartree   energy    :   0.1965546793E+02 (    0.32759E+01/electron)
 exc-corr  energy    :  -0.4588458372E+01 (   -0.76474E+00/electron)
 ion-ion   energy    :   0.9908523769E+01 (    0.33028E+01/ion)

 K.S. kinetic energy :   0.9008735585E+01 (    0.15015E+01/electron)
 K.S. V_l  energy    :  -0.4737789524E+02 (   -0.78963E+01/electron)
 K.S. V_nl energy    :  -0.3619253747E+00 (   -0.60321E-01/electron)
 K.S. V_Hart energy  :   0.3931093587E+02 (    0.65518E+01/electron)
 K.S. V_xc energy    :  -0.5999868756E+01 (   -0.99998E+00/electron)
 Virial Coefficient  :  -0.1601640249E+01

 orbital energies:
    -0.1531632E+00 (  -4.168eV)
    -0.3009760E+00 (  -8.190eV)
    -0.4081108E+00 ( -11.105eV)
    -0.4233263E+00 ( -11.519eV)
    -0.5096699E+00 ( -13.869eV)
    -0.9147627E+00 ( -24.892eV)


=== Spin Contamination ===

 <Sexact^2> =   0.0000000000000000E+00
 <S^2>      =   0.0000000000000000E+00



== Center of Charge ==

spin up     (   -0.0191,   -0.3653,   -0.0001 )
spin down   (   -0.0191,   -0.3653,   -0.0001 )
     total  (   -0.0191,   -0.3653,   -0.0001 )
ionic       (    0.0000,   -0.4103,    0.0000 )


== Molecular Dipole ==

mu   =  (    0.2293,   -0.5391,    0.0012 ) au
|mu| =     0.5858 au,       1.4889 Debye


========================
= Gradient calculation =
========================


Translation force removed: (    0.00774    0.62636    0.00000)


          =============  Ion Gradients =================
 Ion Positions:
        1 Si (    0.00000    0.92308    0.00000 )
        2 C  (    1.24000   -1.07692    0.00000 )
        3 C  (   -1.24000   -1.07692    0.00000 )
 Ion Forces:
        1 Si (    0.00670    1.23252    0.00000 )
        2 C  (    0.46561   -1.40863    0.00000 )
        3 C  (   -0.48124   -1.46725    0.00000 )
      C.O.M. (    0.00000    0.00000    0.00000 )
          ===============================================
          |F|=     0.2470745861E+01





 *************************************************************
 **                                                         **
 **                  PSPW Mulliken analysis                 **
 **                                                         **
 ** Population analysis algorithm devloped by Ryoichi Kawai **
 **                                                         **
 **                   Thu Oct 26 19:14                      **
 **                                                         **
 *************************************************************


== EXPANSION COEFFICIENTS ==

ATOM       S            P            D            F
C  :   0.68653E+00  0.19338E+01
Si :   0.21344E+00  0.34796E+00


 ===============================================
 |  POPULATION ANALYSIS OF MOLECULAR ORBITALS  |
 ===============================================


------------------------------------------------


*** ORBITAL= 1***  SPIN=BOTH    SUM= 0.12181E+01 E=-0.15316E+00

NO  ATOM  L     POPULATION
 1   Si   0    0.08938    0.29897
 1   Si   1    0.68029   -0.21332    0.79673   -0.00001
 2   C    0    0.02025   -0.14232
 2   C    1    0.09625   -0.08632   -0.29799    0.00000
 3   C    0    0.08106   -0.28471
 3   C    1    0.03276    0.16166   -0.08141    0.00000


=== DISTRIBUTION ===

     1(Si)   0.7697     2(C )   0.1165     3(C )   0.1138


== ANGULAR MOMENTUM POPULATIONS ===

      s         p         d         f
    0.1907    0.8093    0.0000    0.0000


------------------------------------------------


*** ORBITAL= 2***  SPIN=BOTH    SUM= 0.82421E+00 E=-0.30098E+00

NO  ATOM  L     POPULATION
 1   Si   0    0.04071   -0.20177
 1   Si   1    0.34511   -0.01033    0.58737    0.00000
 2   C    0    0.08561    0.29260
 2   C    1    0.21101    0.39593   -0.23292    0.00000
 3   C    0    0.10306    0.32103
 3   C    1    0.21449   -0.40113   -0.23148    0.00000


=== DISTRIBUTION ===

     1(Si)   0.3858     2(C )   0.2966     3(C )   0.3176


== ANGULAR MOMENTUM POPULATIONS ===

      s         p         d         f
    0.2294    0.7706    0.0000    0.0000


------------------------------------------------


*** ORBITAL= 3***  SPIN=BOTH    SUM= 0.64753E+00 E=-0.40811E+00

NO  ATOM  L     POPULATION
 1   Si   0    0.51411    0.71701
 1   Si   1    0.00434    0.00664    0.06551    0.00000
 2   C    0    0.02416   -0.15543
 2   C    1    0.20612    0.22466    0.39453    0.00000
 3   C    0    0.03720   -0.19287
 3   C    1    0.21408   -0.21856    0.40781    0.00000


=== DISTRIBUTION ===

     1(Si)   0.5184     2(C )   0.2303     3(C )   0.2513


== ANGULAR MOMENTUM POPULATIONS ===

      s         p         d         f
    0.5755    0.4245    0.0000    0.0000


------------------------------------------------


*** ORBITAL= 4***  SPIN=BOTH    SUM= 0.76382E+00 E=-0.42333E+00

NO  ATOM  L     POPULATION
 1   Si   0    0.00000    0.00000
 1   Si   1    0.62445    0.00000    0.00000   -0.79022
 2   C    0    0.00000    0.00000
 2   C    1    0.18353    0.00000    0.00000   -0.42841
 3   C    0    0.00000    0.00000
 3   C    1    0.19202    0.00000    0.00000   -0.43820


=== DISTRIBUTION ===

     1(Si)   0.6245     2(C )   0.1835     3(C )   0.1920


== ANGULAR MOMENTUM POPULATIONS ===

      s         p         d         f
    0.0000    1.0000    0.0000    0.0000


------------------------------------------------


*** ORBITAL= 5***  SPIN=BOTH    SUM= 0.21465E+01 E=-0.50967E+00

NO  ATOM  L     POPULATION
 1   Si   0    0.00000   -0.00196
 1   Si   1    0.28342    0.53237    0.00256    0.00000
 2   C    0    0.34709    0.58915
 2   C    1    0.01695    0.07337    0.10754    0.00000
 3   C    0    0.33203   -0.57622
 3   C    1    0.02050    0.07672   -0.12090    0.00000


=== DISTRIBUTION ===

     1(Si)   0.2834     2(C )   0.3640     3(C )   0.3525


== ANGULAR MOMENTUM POPULATIONS ===

      s         p         d         f
    0.6791    0.3209    0.0000    0.0000


------------------------------------------------


*** ORBITAL= 6***  SPIN=BOTH    SUM= 0.20073E+01 E=-0.91476E+00

NO  ATOM  L     POPULATION
 1   Si   0    0.05464   -0.23375
 1   Si   1    0.22177    0.00777    0.47086    0.00000
 2   C    0    0.31588   -0.56203
 2   C    1    0.03311    0.16744   -0.07121    0.00000
 3   C    0    0.33963   -0.58277
 3   C    1    0.03498   -0.17025   -0.07740    0.00000


=== DISTRIBUTION ===

     1(Si)   0.2764     2(C )   0.3490     3(C )   0.3746


== ANGULAR MOMENTUM POPULATIONS ===

      s         p         d         f
    0.7101    0.2899    0.0000    0.0000


 ========================================
 |   POPULATION ANALYSIS ON EACH ATOM   |
 ========================================


NO  ATOM  SPIN    TOTAL       s          p          d          f
 1   Si   UP      2.85823    0.69885    2.15938
 1   Si   DOWN    2.85823    0.69885    2.15938
 2   C    UP      1.53997    0.79300    0.74697
 2   C    DOWN    1.53997    0.79300    0.74697
 3   C    UP      1.60180    0.89297    0.70883
 3   C    DOWN    1.60180    0.89297    0.70883



=== TOTAL ANGULAR MOMENTUM POPULATION ===

 SPIN       s           p           d           f
  UP       39.75%      60.25%       0.00%       0.00% 
  UP       39.75%      60.25%       0.00%       0.00% 
 TOTAL     39.75%      60.25%       0.00%       0.00% 

 -----------------
 cputime in seconds
 prologue    :    2.644266000000002    
 main loop   :    50.66018600000000    
 epilogue    :    1.032536000000007    
 total       :    54.33698800000001    
 cputime/step:   7.7225893292682923E-02   (         656 evalulations)

 -------------------------------
 Time spent doing:
   FFTs                       :    25.25990999999955    
   dot products               :    5.540951999999820    
   geodesic                   :    2.942582000000318    
   exchange correlation       :    2.488754000000011    
   local pseudopotentials     :   7.1760000000047341E-03
   non-local pseudopotentials :    10.46919799999999    
   hartree potentials         :   0.1814059999999635    
   structure factors          :   0.1539019999996682    
   masking                    :   0.0000000000000000E+00

     >>>  JOB COMPLETED     AT Thu Oct 26 19:14:41 2000  <<<

 Task  times  cpu:       52.4s     wall:       54.4s


                                NWChem Input Module
                                -------------------


 >>>> PSPW Parallel Module - steepest_descent <<<<
          ****************************************************
          *                                                  *
          *     Car-Parrinello microcluster calculation      *
          *                                                  *
          *     [     steepest descent minimization   ]      *
          *                                                  *
          *      [ NortWest Chemistry implementation ]       *
          *                                                  *
          *            version #5.00   06/01/99              *
          *                                                  *
          *    This code was developed by Eric J. Bylaska,   *
          *    and was based upon algorithms and code        *
          *    developed by the group of Prof. John H. Weare *
          *                                                  *
          ****************************************************
     >>>  JOB STARTED       AT Thu Oct 26 19:14:41 2000  <<<
          ================ input data ========================

 number of processors used:  8

 options:
      ionic motion         = no
      boundry conditions   = periodic    (version3)
      electron spin        = restricted
      exchange-correlation = Vosko et al parameterization

 elements involved in the cluster:
      1: C   mass no.:  12.0   core charge:  4.  lmax=2
             highest angular component      :  2
             local potential used           :  0
             number of non-local projections:  8
             cutoff =   0.800   0.850   0.850
      2: Si  mass no.:  28.0   core charge:  4.  lmax=2
             highest angular component      :  2
             local potential used           :  2
             number of non-local projections:  4
             cutoff =   1.059   1.286   1.286

 atomic composition:
     C :  2     Si:  1

 initial position of ions:
        1 Si (    0.00000    0.92308    0.00000 )
        2 C  (    1.24000   -1.07692    0.00000 )
        3 C  (   -1.24000   -1.07692    0.00000 )
       G.C.  (    0.00000   -0.41026    0.00000 )
      C.O.M. (    0.00000    0.00000    0.00000 )

 number of electrons: spin up=  6  spin down=  6 ( fourier space)

 supercell:
      lattice: a1=<  20.000   0.000   0.000 >
               a2=<   0.000  20.000   0.000 >
               a3=<   0.000   0.000  20.000 >
               b1=<   0.314   0.000   0.000 >
               b2=<   0.000   0.314   0.000 >
               b3=<   0.000   0.000   0.314 >
      volume :     8000.0
      density cutoff=  7.106  fft= 24x 24x 24(     3562 waves      445 per task)
      wavefnc cutoff=  7.106  fft= 24x 24x 24(     3562 waves      445 per task)
      ewald summation: cut radius=    6.37  and  1
                        mandelung= 1.76011888

 technical parameters:
      time step=     51.80     fictacious mass=  400000.0
      tolerance=.100E-08 (energy)   0.100E-08 (electron)   0.100E-03 (ion)



          ================ iteration =========================
     >>>  ITERATION STARTED AT Thu Oct 26 19:14:43 2000  <<<
      10   -0.1375555170E+02   -0.26555E-01    0.12436E-10    0.00000E+00
      20   -0.1375555170E+02   -0.91571E-12    0.10245E-10    0.00000E+00
  *** tolerance ok.     iteration terminated.
     >>>  ITERATION ENDED   AT Thu Oct 26 19:14:45 2000  <<<



          =============  summary of results  =================
 final position of ions:
        1 Si (    0.00000    0.92308    0.00000 )
        2 C  (    1.24000   -1.07692    0.00000 )
        3 C  (   -1.24000   -1.07692    0.00000 )
       G.C.  (    0.00000   -0.41026    0.00000 )
      C.O.M. (    0.00000    0.00000    0.00000 )

 number of electrons: spin up=    6.00000  down=    6.00000 (real space)

 total     energy    :  -0.1375555170E+02 (   -0.45852E+01/ion)
 total orbital energy:  -0.5419997247E+01 (   -0.90333E+00/electron)
 hartree   energy    :   0.1965548964E+02 (    0.32759E+01/electron)
 exc-corr  energy    :  -0.4588461599E+01 (   -0.76474E+00/electron)
 ion-ion   energy    :   0.9908523769E+01 (    0.33028E+01/ion)

 K.S. kinetic energy :   0.9008749468E+01 (    0.15015E+01/electron)
 K.S. V_l  energy    :  -0.4737792267E+02 (   -0.78963E+01/electron)
 K.S. V_nl energy    :  -0.3619303134E+00 (   -0.60322E-01/electron)
 K.S. V_Hart energy  :   0.3931097927E+02 (    0.65518E+01/electron)
 K.S. V_xc energy    :  -0.5999873010E+01 (   -0.99998E+00/electron)
 Virial Coefficient  :  -0.1601637027E+01

 orbital energies:
    -0.1531633E+00 (  -4.168eV)
    -0.3009737E+00 (  -8.190eV)
    -0.4081095E+00 ( -11.105eV)
    -0.4233245E+00 ( -11.519eV)
    -0.5096682E+00 ( -13.869eV)
    -0.9147596E+00 ( -24.892eV)


=== Spin Contamination ===

 <Sexact^2> =   0.0000000000000000E+00
 <S^2>      =   0.0000000000000000E+00



== Center of Charge ==

spin up     (   -0.0191,   -0.3653,   -0.0001 )
spin down   (   -0.0191,   -0.3653,   -0.0001 )
     total  (   -0.0191,   -0.3653,   -0.0001 )
ionic       (    0.0000,   -0.4103,    0.0000 )


== Molecular Dipole ==

mu   =  (    0.2293,   -0.5390,    0.0012 ) au
|mu| =     0.5858 au,       1.4888 Debye



 *************************************************************
 **                                                         **
 **                  PSPW Mulliken analysis                 **
 **                                                         **
 ** Population analysis algorithm devloped by Ryoichi Kawai **
 **                                                         **
 **                   Thu Oct 26 19:14                      **
 **                                                         **
 *************************************************************


== EXPANSION COEFFICIENTS ==

ATOM       S            P            D            F
C  :   0.68653E+00  0.19338E+01
Si :   0.21344E+00  0.34796E+00


 ===============================================
 |  POPULATION ANALYSIS OF MOLECULAR ORBITALS  |
 ===============================================


------------------------------------------------


*** ORBITAL= 1***  SPIN=BOTH    SUM= 0.12181E+01 E=-0.15316E+00

NO  ATOM  L     POPULATION
 1   Si   0    0.08938    0.29897
 1   Si   1    0.68029   -0.21333    0.79673    0.00000
 2   C    0    0.02025   -0.14231
 2   C    1    0.09625   -0.08631   -0.29800    0.00000
 3   C    0    0.08106   -0.28471
 3   C    1    0.03276    0.16167   -0.08141    0.00000


=== DISTRIBUTION ===

     1(Si)   0.7697     2(C )   0.1165     3(C )   0.1138


== ANGULAR MOMENTUM POPULATIONS ===

      s         p         d         f
    0.1907    0.8093    0.0000    0.0000


------------------------------------------------


*** ORBITAL= 2***  SPIN=BOTH    SUM= 0.82422E+00 E=-0.30097E+00

NO  ATOM  L     POPULATION
 1   Si   0    0.04071    0.20177
 1   Si   1    0.34511    0.01052   -0.58737    0.00000
 2   C    0    0.08549   -0.29239
 2   C    1    0.21101   -0.39590    0.23296    0.00000
 3   C    0    0.10319   -0.32123
 3   C    1    0.21449    0.40116    0.23144    0.00000


=== DISTRIBUTION ===

     1(Si)   0.3858     2(C )   0.2965     3(C )   0.3177


== ANGULAR MOMENTUM POPULATIONS ===

      s         p         d         f
    0.2294    0.7706    0.0000    0.0000


------------------------------------------------


*** ORBITAL= 3***  SPIN=BOTH    SUM= 0.64753E+00 E=-0.40811E+00

NO  ATOM  L     POPULATION
 1   Si   0    0.51411    0.71701
 1   Si   1    0.00434    0.00664    0.06552    0.00000
 2   C    0    0.02416   -0.15543
 2   C    1    0.20612    0.22466    0.39452    0.00000
 3   C    0    0.03720   -0.19288
 3   C    1    0.21407   -0.21856    0.40781    0.00000


=== DISTRIBUTION ===

     1(Si)   0.5184     2(C )   0.2303     3(C )   0.2513


== ANGULAR MOMENTUM POPULATIONS ===

      s         p         d         f
    0.5755    0.4245    0.0000    0.0000


------------------------------------------------


*** ORBITAL= 4***  SPIN=BOTH    SUM= 0.76382E+00 E=-0.42332E+00

NO  ATOM  L     POPULATION
 1   Si   0    0.00000    0.00000
 1   Si   1    0.62445    0.00000    0.00000   -0.79022
 2   C    0    0.00000    0.00000
 2   C    1    0.18353    0.00000    0.00000   -0.42841
 3   C    0    0.00000    0.00000
 3   C    1    0.19202    0.00000    0.00000   -0.43820


=== DISTRIBUTION ===

     1(Si)   0.6245     2(C )   0.1835     3(C )   0.1920


== ANGULAR MOMENTUM POPULATIONS ===

      s         p         d         f
    0.0000    1.0000    0.0000    0.0000


------------------------------------------------


*** ORBITAL= 5***  SPIN=BOTH    SUM= 0.21465E+01 E=-0.50967E+00

NO  ATOM  L     POPULATION
 1   Si   0    0.00000    0.00199
 1   Si   1    0.28342   -0.53237   -0.00264    0.00000
 2   C    0    0.34715   -0.58919
 2   C    1    0.01695   -0.07343   -0.10751    0.00000
 3   C    0    0.33198    0.57617
 3   C    1    0.02050   -0.07667    0.12093    0.00000


=== DISTRIBUTION ===

     1(Si)   0.2834     2(C )   0.3641     3(C )   0.3525


== ANGULAR MOMENTUM POPULATIONS ===

      s         p         d         f
    0.6791    0.3209    0.0000    0.0000


------------------------------------------------


*** ORBITAL= 6***  SPIN=BOTH    SUM= 0.20073E+01 E=-0.91476E+00

NO  ATOM  L     POPULATION
 1   Si   0    0.05464   -0.23375
 1   Si   1    0.22177    0.00778    0.47086    0.00000
 2   C    0    0.31588   -0.56203
 2   C    1    0.03311    0.16744   -0.07121    0.00000
 3   C    0    0.33963   -0.58278
 3   C    1    0.03498   -0.17025   -0.07740    0.00000


=== DISTRIBUTION ===

     1(Si)   0.2764     2(C )   0.3490     3(C )   0.3746


== ANGULAR MOMENTUM POPULATIONS ===

      s         p         d         f
    0.7101    0.2899    0.0000    0.0000


 ========================================
 |   POPULATION ANALYSIS ON EACH ATOM   |
 ========================================


NO  ATOM  SPIN    TOTAL       s          p          d          f
 1   Si   UP      2.85822    0.69885    2.15938
 1   Si   DOWN    2.85822    0.69885    2.15938
 2   C    UP      1.53990    0.79293    0.74697
 2   C    DOWN    1.53990    0.79293    0.74697
 3   C    UP      1.60188    0.89306    0.70882
 3   C    DOWN    1.60188    0.89306    0.70882



=== TOTAL ANGULAR MOMENTUM POPULATION ===

 SPIN       s           p           d           f
  UP       39.75%      60.25%       0.00%       0.00% 
  UP       39.75%      60.25%       0.00%       0.00% 
 TOTAL     39.75%      60.25%       0.00%       0.00% 

 -----------------
 cputime in seconds
 prologue    :    2.588169999999991    
 main loop   :    1.532342000000000    
 epilogue    :   0.9162380000000070    
 total       :    5.036749999999998    
 cputime/step:   7.6617099999999994E-02

 -------------------------------
 Time spent doing:
   FFTs                       :   0.7445200000001222    
   dot products               :   0.2428860000000412    
   orthonormalization         :   7.7835999999962269E-02
   exchange correlation       :   7.2614000000029932E-02
   local pseudopotentials     :   4.4987999999989370E-02
   non-local pseudopotentials :   0.3801060000000120    
   hartree potentials         :   1.6500000000121418E-03
   structure factors          :   8.7339999999187512E-03
   masking                    :   0.0000000000000000E+00

     >>>  JOB COMPLETED     AT Thu Oct 26 19:14:46 2000  <<<

 Task  times  cpu:        4.3s     wall:        5.0s


                                NWChem Input Module
                                -------------------


 >>>> PSPW Serial Module - v_wavefunction_initializer <<<<
  JOB HAS BEEN COMPLETED.  CODE=           0
     >>>  JOB COMPLETED     AT Thu Oct 26 19:14:47 2000  <<<

 Task  times  cpu:        0.1s     wall:        0.8s


                                NWChem Input Module
                                -------------------


 >>>> PSPW Parallel Module - Car-Parrinello <<<<
          ****************************************************
          *                                                  *
          *     Car-Parrinello microcluster calculation      *
          *                                                  *
          *      [   extended Lagrangian molecular   ]       *
          *      [        dynamics simulation        ]       *
          *                                                  *
          *      [ NortWest Chemistry implementation ]       *
          *                                                  *
          *            version #5.00   06/01/99              *
          *                                                  *
          *    This code was developed by Eric J. Bylaska,   *
          *    and was based upon algorithms and code        *
          *    developed by the group of Prof. John H. Weare *
          *                                                  *
          ****************************************************
     >>>  JOB STARTED       AT Thu Oct 26 19:14:47 2000  <<<
          ================ input data ========================

 number of processors used:  8

 options:
      boundry conditions   = periodic    (version3)
      electron spin        = restricted
      exchange-correlation = Vosko et al parameterization

 elements involved in the cluster:
      1: C   mass no.:  12.0   core charge:  4.  lmax=2
             highest angular component      :  2
             local potential used           :  0
             number of non-local projections:  8
             cutoff =   0.800   0.850   0.850
      2: Si  mass no.:  28.0   core charge:  4.  lmax=2
             highest angular component      :  2
             local potential used           :  2
             number of non-local projections:  4
             cutoff =   1.059   1.286   1.286

 atomic composition:
     C :  2     Si:  1

 initial position of ions:
        1 Si (    0.00000    0.92308    0.00000 )
        2 C  (    1.24000   -1.07692    0.00000 )
        3 C  (   -1.24000   -1.07692    0.00000 )
       G.C.  (    0.00000   -0.41026    0.00000 )
      C.O.M. (    0.00000    0.00000    0.00000 )

 initial velocity of ions:
        1 Si (    0.00000    0.00000    0.00000 )
        2 C  (    0.00000    0.00000    0.00000 )
        3 C  (    0.00000    0.00000    0.00000 )
       G.C.  (    0.00000    0.00000    0.00000 )
      C.O.M. (    0.00000    0.00000    0.00000 )

 number of electrons: spin up=  6  spin down=  6 (fourier space)

 supercell:
      lattice: a1=<  20.000   0.000   0.000 >
               a2=<   0.000  20.000   0.000 >
               a3=<   0.000   0.000  20.000 >
               b1=<   0.314   0.000   0.000 >
               b2=<   0.000   0.314   0.000 >
               b3=<   0.000   0.000   0.314 >
      volume :     8000.0
      density cutoff=  7.106  fft= 24x 24x 24(     3562 waves      445 per task)
      wavefnc cutoff=  7.106  fft= 24x 24x 24(     3562 waves      445 per task)
      ewald summation: cut radius=    6.37  and  1
                        mandelung= 1.76011888

 technical parameters:
      time step=      5.00     fictacious mass=     500.0
      cooling/heatting rates:  0.10000E+01 (psi)   0.10000E+01 (ion)
      initial kinetic energy:  0.00000E+00 (psi)   0.00000E+00 (ion)
                                                   0.00000E+00 (c.o.m.)
      after scaling:           0.00000E+00 (psi)   0.00000E+00 (ion)
      increased energy:        0.00000E+00 (psi)   0.00000E+00 (ion)

 Constant Energy Simulation                     



          ================ iteration =========================
     >>>  ITERATION STARTED AT Thu Oct 26 19:14:49 2000  <<<
      10  -0.1375919661E+02  -0.1390972519E+02   0.34929E-02   0.14704E+00
      20  -0.1376779356E+02  -0.1418763156E+02   0.11963E-01   0.40787E+00
      30  -0.1377245874E+02  -0.1438118354E+02   0.16653E-01   0.59207E+00
      40  -0.1377458380E+02  -0.1447285461E+02   0.18812E-01   0.67946E+00
      50  -0.1377425349E+02  -0.1449469360E+02   0.18498E-01   0.70194E+00
      60  -0.1377318511E+02  -0.1447057321E+02   0.17458E-01   0.67993E+00
      70  -0.1377137718E+02  -0.1443155643E+02   0.15666E-01   0.64451E+00
      80  -0.1376930963E+02  -0.1439599265E+02   0.13598E-01   0.61308E+00
      90  -0.1376703426E+02  -0.1436534603E+02   0.11321E-01   0.58699E+00
     100  -0.1376683597E+02  -0.1433871038E+02   0.11123E-01   0.56075E+00
     110  -0.1376766425E+02  -0.1431522121E+02   0.11952E-01   0.53560E+00
     120  -0.1376672935E+02  -0.1429634296E+02   0.11023E-01   0.51859E+00
     130  -0.1376708376E+02  -0.1428796903E+02   0.11371E-01   0.50951E+00
     140  -0.1376679741E+02  -0.1428402436E+02   0.11082E-01   0.50615E+00
     150  -0.1376669811E+02  -0.1428116777E+02   0.10984E-01   0.50349E+00
     160  -0.1376655991E+02  -0.1427994336E+02   0.10845E-01   0.50254E+00
     170  -0.1376720898E+02  -0.1427931632E+02   0.11493E-01   0.50061E+00
     180  -0.1376864111E+02  -0.1427794371E+02   0.12923E-01   0.49638E+00
     190  -0.1376983466E+02  -0.1427466486E+02   0.14119E-01   0.49071E+00
     200  -0.1377202315E+02  -0.1427159076E+02   0.16308E-01   0.48326E+00
     210  -0.1377484220E+02  -0.1427096151E+02   0.19127E-01   0.47699E+00
     220  -0.1377824222E+02  -0.1427213747E+02   0.22513E-01   0.47138E+00
     230  -0.1377879777E+02  -0.1426339003E+02   0.23069E-01   0.46152E+00
     240  -0.1377772384E+02  -0.1424597778E+02   0.21997E-01   0.44626E+00
     250  -0.1377553056E+02  -0.1422616980E+02   0.19815E-01   0.43082E+00
     260  -0.1377303851E+02  -0.1421895089E+02   0.17332E-01   0.42858E+00
     270  -0.1377284186E+02  -0.1423493828E+02   0.17125E-01   0.44497E+00
     280  -0.1377454147E+02  -0.1425909393E+02   0.18796E-01   0.46576E+00
     290  -0.1377304121E+02  -0.1426220355E+02   0.17301E-01   0.47186E+00
     300  -0.1377041920E+02  -0.1424769922E+02   0.14699E-01   0.46258E+00
     310  -0.1376925542E+02  -0.1423651058E+02   0.13546E-01   0.45371E+00
     320  -0.1377107959E+02  -0.1423867833E+02   0.15351E-01   0.45225E+00
     330  -0.1377273282E+02  -0.1423673529E+02   0.17001E-01   0.44700E+00
     340  -0.1377722546E+02  -0.1423165640E+02   0.21510E-01   0.43292E+00
     350  -0.1378511755E+02  -0.1424042836E+02   0.29393E-01   0.42592E+00
     360  -0.1379202113E+02  -0.1425773422E+02   0.36281E-01   0.42943E+00
     370  -0.1379229322E+02  -0.1426602071E+02   0.36548E-01   0.43718E+00
     380  -0.1378758646E+02  -0.1426043676E+02   0.31865E-01   0.44099E+00
     390  -0.1379224161E+02  -0.1426838931E+02   0.36523E-01   0.43962E+00
     400  -0.1380586544E+02  -0.1430209521E+02   0.50129E-01   0.44610E+00
     410  -0.1382378797E+02  -0.1435994991E+02   0.67957E-01   0.46821E+00
     420  -0.1381288670E+02  -0.1437140036E+02   0.57077E-01   0.50144E+00
     430  -0.1379398566E+02  -0.1436603676E+02   0.38224E-01   0.53383E+00
     440  -0.1380464904E+02  -0.1440161596E+02   0.48856E-01   0.54811E+00
     450  -0.1382742460E+02  -0.1444942826E+02   0.71542E-01   0.55046E+00
     460  -0.1382699969E+02  -0.1443595282E+02   0.71126E-01   0.53783E+00
     470  -0.1380613362E+02  -0.1438249856E+02   0.50278E-01   0.52609E+00
     480  -0.1381542971E+02  -0.1430909096E+02   0.59446E-01   0.43422E+00
     490  -0.1382713486E+02  -0.1414700381E+02   0.71244E-01   0.24863E+00
     500  -0.1381829134E+02  -0.1403421241E+02   0.62471E-01   0.15345E+00
     510  -0.1380197588E+02  -0.1407812762E+02   0.46157E-01   0.22999E+00
     520  -0.1381984535E+02  -0.1424997282E+02   0.63832E-01   0.36630E+00
     530  -0.1381948945E+02  -0.1432952537E+02   0.63559E-01   0.44648E+00
     540  -0.1383197825E+02  -0.1437104199E+02   0.76033E-01   0.46303E+00
     550  -0.1385258193E+02  -0.1439033194E+02   0.96634E-01   0.44112E+00
     560  -0.1384687446E+02  -0.1437214068E+02   0.90952E-01   0.43431E+00
     570  -0.1384363024E+02  -0.1435603462E+02   0.87688E-01   0.42472E+00
     580  -0.1384707032E+02  -0.1433139132E+02   0.91073E-01   0.39325E+00
     590  -0.1382140021E+02  -0.1425969847E+02   0.65533E-01   0.37276E+00
     600  -0.1381936065E+02  -0.1424263518E+02   0.63438E-01   0.35984E+00
     610  -0.1382331814E+02  -0.1423877764E+02   0.67382E-01   0.34808E+00
     620  -0.1382731267E+02  -0.1422108580E+02   0.71387E-01   0.32239E+00
     630  -0.1382922524E+02  -0.1420309409E+02   0.73310E-01   0.30056E+00
     640  -0.1382530929E+02  -0.1418781156E+02   0.69394E-01   0.29311E+00
     650  -0.1382222204E+02  -0.1417335242E+02   0.66314E-01   0.28482E+00
     660  -0.1381935995E+02  -0.1415758746E+02   0.63431E-01   0.27480E+00
     670  -0.1381517143E+02  -0.1413726919E+02   0.59291E-01   0.26281E+00
     680  -0.1382966699E+02  -0.1414961529E+02   0.73716E-01   0.24623E+00
     690  -0.1382041367E+02  -0.1412660617E+02   0.64504E-01   0.24169E+00
     700  -0.1381554823E+02  -0.1411468225E+02   0.59668E-01   0.23947E+00
     710  -0.1382918174E+02  -0.1413180371E+02   0.73218E-01   0.22940E+00
     720  -0.1382068265E+02  -0.1410857153E+02   0.64790E-01   0.22310E+00
     730  -0.1382537003E+02  -0.1411341113E+02   0.69456E-01   0.21858E+00
     740  -0.1383052018E+02  -0.1412020031E+02   0.74591E-01   0.21509E+00
     750  -0.1382258704E+02  -0.1410349512E+02   0.66670E-01   0.21424E+00
     760  -0.1381913093E+02  -0.1409695332E+02   0.63240E-01   0.21458E+00
     770  -0.1382478250E+02  -0.1410619879E+02   0.68828E-01   0.21259E+00
     780  -0.1381495540E+02  -0.1408022981E+02   0.59072E-01   0.20620E+00
     790  -0.1381951273E+02  -0.1408142388E+02   0.63573E-01   0.19834E+00
     800  -0.1381474371E+02  -0.1406783302E+02   0.58848E-01   0.19424E+00
     810  -0.1381256123E+02  -0.1406635369E+02   0.56656E-01   0.19714E+00
     820  -0.1381805566E+02  -0.1408240111E+02   0.62116E-01   0.20223E+00
     830  -0.1381510131E+02  -0.1407974899E+02   0.59188E-01   0.20546E+00
     840  -0.1381089187E+02  -0.1407622401E+02   0.55004E-01   0.21033E+00
     850  -0.1381694603E+02  -0.1409118977E+02   0.60992E-01   0.21325E+00
     860  -0.1381241478E+02  -0.1407923823E+02   0.56513E-01   0.21031E+00
     870  -0.1381667641E+02  -0.1408373279E+02   0.60748E-01   0.20631E+00
     880  -0.1381887131E+02  -0.1408547534E+02   0.62932E-01   0.20367E+00
     890  -0.1381675995E+02  -0.1408132741E+02   0.60853E-01   0.20371E+00
     900  -0.1381962012E+02  -0.1408936756E+02   0.63680E-01   0.20607E+00
     910  -0.1381901374E+02  -0.1408465684E+02   0.63088E-01   0.20256E+00
     920  -0.1381841783E+02  -0.1408199069E+02   0.62507E-01   0.20107E+00
     930  -0.1381857619E+02  -0.1408614102E+02   0.62640E-01   0.20492E+00
     940  -0.1381552815E+02  -0.1408286652E+02   0.59621E-01   0.20772E+00
     950  -0.1382640986E+02  -0.1410284295E+02   0.70440E-01   0.20599E+00
     960  -0.1381588929E+02  -0.1408614607E+02   0.59974E-01   0.21028E+00
     970  -0.1381566485E+02  -0.1408555289E+02   0.59744E-01   0.21014E+00
     980  -0.1382550490E+02  -0.1409641703E+02   0.69555E-01   0.20136E+00
     990  -0.1381767818E+02  -0.1407942806E+02   0.61741E-01   0.20001E+00
    1000  -0.1381097155E+02  -0.1406871066E+02   0.55058E-01   0.20268E+00
 *** arived at the Maximum iiteration.   terminated.
     >>>  ITERATION ENDED   AT Thu Oct 26 19:16:23 2000  <<<



          =============  summary of results  =================
 final position of ions:
        1 Si (    4.45959    9.63718    0.00000 )
        2 C  (    1.08714   -9.46548    0.00000 )
        3 C  (   -8.75332   -4.31638    0.00000 )
       G.C.  (   -1.06886   -1.38156    0.00000 )
      C.O.M. (    0.63220    2.00882    0.00000 )
 final velocity of ions:
        1 Si (    0.00129    0.00090    0.00000 )
        2 C  (    0.00042   -0.00181    0.00000 )
        3 C  (   -0.00237    0.00193    0.00000 )
       G.C.  (   -0.00022    0.00034    0.00000 )
      C.O.M. (    0.00024    0.00051    0.00000 )

 number of electrons: spin up=    6.00000  down=    6.00000 (real space)

 total     energy    :  -0.1406871066E+02 (   -0.46896E+01/ion)
 total orbital energy:  -0.4258703472E+01 (   -0.70978E+00/electron)
 hartree   energy    :   0.9403709378E+01 (    0.15673E+01/electron)
 exc-corr  energy    :  -0.3647919315E+01 (   -0.60799E+00/electron)
 ion-ion   energy    :  -0.1521221609E+01 (   -0.50707E+00/ion)

 Kinetic energy (elc)    :   0.5505811651E-01 (    0.91764E-02/elc)
 Kinetic energy (ion)    :   0.2026809864E+00 (    0.67560E-01/ion)

 final kinetic energy:   0.55058E-01 (psi)   0.20268E+00 (ion)
                                             0.15068E-01 (c.o.m.)
 Temperature :       29288.1 K (elc)
 Temperature :       77845.0 K (ion)
             :        6003.1 K (c.o.m.)

 orbital energies:
    -0.1822258E+00 (  -4.959eV)
    -0.1926266E+00 (  -5.242eV)
    -0.2054807E+00 (  -5.591eV)
    -0.3539818E+00 (  -9.632eV)
    -0.5960690E+00 ( -16.220eV)
    -0.5989678E+00 ( -16.299eV)


=== Spin Contamination ===

 <Sexact^2> =   0.0000000000000000E+00
 <S^2>      =   0.0000000000000000E+00



== Center of Charge ==

spin up     (   -0.4614,   -3.6144,   -0.0087 )
spin down   (   -0.4614,   -3.6144,   -0.0087 )
     total  (   -0.4614,   -3.6144,   -0.0087 )
ionic       (   -1.0689,   -1.3816,    0.0000 )


== Molecular Dipole ==

mu   =  (   -7.2894,   26.7945,    0.1039 ) au
|mu| =    27.7686 au,      70.5766 Debye

 ===== Calculating pair distribution function ====


 ===== Calculating velocity auto correlation ====


 -----------------
 cputime in seconds
 prologue    :    2.696529999999996    
 main loop   :    93.26022200000001    
 epilogue    :    2.229417999999981    
 total       :    98.18616999999999    
 cputime/step:   9.3260222000000018E-02

 -------------------------------
 Time spent doing:
   FFTs                       :    38.00099799999975    
   dot products               :    15.04745400000036    
   orthonormalization         :    4.035196000000440    
   exchange correlation       :    3.841476000000483    
   local pseudopotentials     :    4.985108000000182    
   non-local pseudopotentials :    25.49335999999984    
   hartree potentials         :   6.2164000000677788E-02
   structure factors          :   0.8205320000023733    
   masking                    :   0.0000000000000000E+00

     >>>  JOB COMPLETED     AT Thu Oct 26 19:16:25 2000  <<<

 Task  times  cpu:       95.6s     wall:       98.2s


                                NWChem Input Module
                                -------------------




                   NWChem Nuclear Hessian and Frequency Analysis
                   ---------------------------------------------



                         NWChem Finite-difference Hessian
                         --------------------------------


          ****************************************************
          *                                                  *
          *     Car-Parrinello microcluster calculation      *
          *                                                  *
          *     [     conjugate gradient minimization   ]    *
          *     [   (Grassman manifold implementation)  ]    *
          *                                                  *
          *      [ NortWest Chemistry implementation ]       *
          *                                                  *
          *            version #5.00   06/01/00              *
          *                                                  *
          *    This code was developed by Eric J. Bylaska,   *
          *    and was based upon algorithms and code        *
          *    developed by the group of Prof. John H. Weare *
          *                                                  *
          ****************************************************
     >>>  JOB STARTED       AT Thu Oct 26 19:16:25 2000  <<<
          ================ input data ========================

 number of processors used:  8

 options:
      boundry conditions   = periodic    (version3)
      electron spin        = restricted
      exchange-correlation = Vosko et al parameterization

 elements involved in the cluster:
      1: C   mass no.:  12.0   core charge:  4.  lmax=2
             highest angular component      :  2
             local potential used           :  0
             number of non-local projections:  8
             cutoff =   0.800   0.850   0.850
      2: Si  mass no.:  28.0   core charge:  4.  lmax=2
             highest angular component      :  2
             local potential used           :  2
             number of non-local projections:  4
             cutoff =   1.059   1.286   1.286

 atomic composition:
     C :  2     Si:  1

 initial position of ions:
        1 Si (    4.45959    9.63718    0.00000 )
        2 C  (    1.08714   -9.46548    0.00000 )
        3 C  (   -8.75332   -4.31638    0.00000 )
       G.C.  (   -1.06886   -1.38156    0.00000 )
      C.O.M. (    0.63220    2.00882    0.00000 )

 number of electrons: spin up=  6  spin down=  6 (fourier space)

 supercell:
      lattice: a1=<  20.000   0.000   0.000 >
               a2=<   0.000  20.000   0.000 >
               a3=<   0.000   0.000  20.000 >
               b1=<   0.314   0.000   0.000 >
               b2=<   0.000   0.314   0.000 >
               b3=<   0.000   0.000   0.314 >
      volume :     8000.0
      density cutoff=  7.106  fft= 24x 24x 24(     3562 waves      445 per task)
      wavefnc cutoff=  7.106  fft= 24x 24x 24(     3562 waves      445 per task)
      ewald summation: cut radius=    6.37  and  1
                        mandelung= 1.76011888

 technical parameters:
      time step=      5.80     fictacious mass=  400000.0
      tolerance=.100E-08 (energy)   0.100E-08 (density)   0.100E-03 (ion)





======================
= energy calculation =
======================


          ============ electron iteration ====================
     >>>  ITERATION STARTED AT Thu Oct 26 19:16:27 2000  <<<
      25   -0.1419424367E+02   -0.65860E-04    0.20638E-05
      50   -0.1419469808E+02   -0.15295E-04    0.12776E-05
      75   -0.1419474475E+02   -0.27497E-06    0.27370E-08
     100   -0.1419474976E+02   -0.97842E-07    0.46732E-08
     125   -0.1419475033E+02   -0.27496E-08    0.27562E-10
     150   -0.1419475040E+02   -0.11616E-08    0.50263E-10
     175   -0.1419475040E+02   -0.93928E-09    0.61594E-12
  *** tolerance ok.     iteration terminated.
     >>>  ITERATION ENDED   AT Thu Oct 26 19:17:17 2000  <<<


          =============  summary of results  =================
 final position of ions:
        1 Si (    4.45959    9.63718    0.00000 )
        2 C  (    1.08714   -9.46548    0.00000 )
        3 C  (   -8.75332   -4.31638    0.00000 )
       G.C.  (   -1.06886   -1.38156    0.00000 )
      C.O.M. (    0.63220    2.00882    0.00000 )

 number of electrons: spin up=    6.00000  down=    6.00000 (real space)

 total     energy    :  -0.1419475040E+02 (   -0.47316E+01/ion)
 total orbital energy:  -0.4126586463E+01 (   -0.68776E+00/electron)
 hartree   energy    :   0.9677961116E+01 (    0.16130E+01/electron)
 exc-corr  energy    :  -0.3700601021E+01 (   -0.61677E+00/electron)
 ion-ion   energy    :  -0.1521221609E+01 (   -0.50707E+00/ion)

 K.S. kinetic energy :   0.6150245664E+01 (    0.10250E+01/electron)
 K.S. V_l  energy    :  -0.2478928092E+02 (   -0.41315E+01/electron)
 K.S. V_nl energy    :  -0.1185362637E-01 (   -0.19756E-02/electron)
 K.S. V_Hart energy  :   0.1935592223E+02 (    0.32260E+01/electron)
 K.S. V_xc energy    :  -0.4831619812E+01 (   -0.80527E+00/electron)
 Virial Coefficient  :  -0.1670962867E+01

 orbital energies:
    -0.1859953E+00 (  -5.061eV)
    -0.1901907E+00 (  -5.175eV)
    -0.1944879E+00 (  -5.292eV)
    -0.3406519E+00 (  -9.270eV)
    -0.5759325E+00 ( -15.672eV)
    -0.5760351E+00 ( -15.675eV)


=== Spin Contamination ===

 <Sexact^2> =   0.0000000000000000E+00
 <S^2>      =   0.0000000000000000E+00



== Center of Charge ==

spin up     (   -0.6022,   -3.6441,    0.0000 )
spin down   (   -0.6022,   -3.6441,    0.0000 )
     total  (   -0.6022,   -3.6441,    0.0000 )
ionic       (   -1.0689,   -1.3816,    0.0000 )


== Molecular Dipole ==

mu   =  (   -5.6003,   27.1507,    0.0005 ) au
|mu| =    27.7222 au,      70.4588 Debye


========================
= Gradient calculation =
========================


Translation force removed: (   -0.01117    0.01765    0.00000)


          =============  Ion Gradients =================
 Ion Positions:
        1 Si (    4.45959    9.63718    0.00000 )
        2 C  (    1.08714   -9.46548    0.00000 )
        3 C  (   -8.75332   -4.31638    0.00000 )
 Ion Forces:
        1 Si (    0.00283   -0.01071    0.00000 )
        2 C  (   -0.01384    0.00417    0.00000 )
        3 C  (    0.00724    0.02081    0.00000 )
      C.O.M. (    0.00000    0.00000    0.00000 )
          ===============================================
          |F|=     0.2857978953E-01



 -----------------
 cputime in seconds
 prologue    :    2.602575999999999    
 main loop   :    49.16154000000000    
 epilogue    :   0.9627499999999998    
 total       :    52.72686600000000    
 cputime/step:   7.5866574074074072E-02   (         648 evalulations)

 -------------------------------
 Time spent doing:
   FFTs                       :    25.07411999999897    
   dot products               :    5.366530000000580    
   geodesic                   :    2.735319999998978    
   exchange correlation       :    2.377447999999703    
   local pseudopotentials     :   1.2647999999984449E-02
   non-local pseudopotentials :    9.888377999999960    
   hartree potentials         :   0.1784639999997921    
   structure factors          :   0.1406820000008508    
   masking                    :   0.0000000000000000E+00

     >>>  JOB COMPLETED     AT Thu Oct 26 19:17:18 2000  <<<

 Saving state for cg_pspw with suffix hess
        sic2.01.elc

 atom:   1 xyz: 1(+) wall time:     239.4      date:  Thu Oct 26 19:17:19 2000

          ****************************************************
          *                                                  *
          *     Car-Parrinello microcluster calculation      *
          *                                                  *
          *     [     conjugate gradient minimization   ]    *
          *     [   (Grassman manifold implementation)  ]    *
          *                                                  *
          *      [ NortWest Chemistry implementation ]       *
          *                                                  *
          *            version #5.00   06/01/00              *
          *                                                  *
          *    This code was developed by Eric J. Bylaska,   *
          *    and was based upon algorithms and code        *
          *    developed by the group of Prof. John H. Weare *
          *                                                  *
          ****************************************************
     >>>  JOB STARTED       AT Thu Oct 26 19:17:19 2000  <<<
          ================ input data ========================

 number of processors used:  8

 options:
      boundry conditions   = periodic    (version3)
      electron spin        = restricted
      exchange-correlation = Vosko et al parameterization

 elements involved in the cluster:
      1: C   mass no.:  12.0   core charge:  4.  lmax=2
             highest angular component      :  2
             local potential used           :  0
             number of non-local projections:  8
             cutoff =   0.800   0.850   0.850
      2: Si  mass no.:  28.0   core charge:  4.  lmax=2
             highest angular component      :  2
             local potential used           :  2
             number of non-local projections:  4
             cutoff =   1.059   1.286   1.286

 atomic composition:
     C :  2     Si:  1

 initial position of ions:
        1 Si (    4.46059    9.63718    0.00000 )
        2 C  (    1.08714   -9.46548    0.00000 )
        3 C  (   -8.75332   -4.31638    0.00000 )
       G.C.  (   -1.06853   -1.38156    0.00000 )
      C.O.M. (    0.63274    2.00882    0.00000 )

 number of electrons: spin up=  6  spin down=  6 (fourier space)

 supercell:
      lattice: a1=<  20.000   0.000   0.000 >
               a2=<   0.000  20.000   0.000 >
               a3=<   0.000   0.000  20.000 >
               b1=<   0.314   0.000   0.000 >
               b2=<   0.000   0.314   0.000 >
               b3=<   0.000   0.000   0.314 >
      volume :     8000.0
      density cutoff=  7.106  fft= 24x 24x 24(     3562 waves      445 per task)
      wavefnc cutoff=  7.106  fft= 24x 24x 24(     3562 waves      445 per task)
      ewald summation: cut radius=    6.37  and  1
                        mandelung= 1.76011888

 technical parameters:
      time step=      5.80     fictacious mass=  400000.0
      tolerance=.100E-08 (energy)   0.100E-08 (density)   0.100E-03 (ion)





======================
= energy calculation =
======================


          ============ electron iteration ====================
     >>>  ITERATION STARTED AT Thu Oct 26 19:17:22 2000  <<<
      25   -0.1419474200E+02   -0.89604E-09    0.56544E-10
  *** tolerance ok.     iteration terminated.
[...]


========================
= Gradient calculation =
========================


Translation force removed: (    0.01468    0.00603    0.00005)


          =============  Ion Gradients =================
 Ion Positions:
        1 Si (   -0.00619    1.73659    0.00000 )
        2 C  (    1.49257   -1.70560    0.00000 )
        3 C  (   -1.24481   -1.67713   -0.00100 )
 Ion Forces:
        1 Si (   -0.02038    0.00509   -0.00005 )
        2 C  (    0.01720   -0.01118   -0.00005 )
        3 C  (    0.03036   -0.00071    0.00016 )
      C.O.M. (    0.00000    0.00000    0.00000 )
          ===============================================
          |F|=     0.4224281786E-01



 -----------------
 cputime in seconds
 prologue    :    2.514997999999991    
 main loop   :    4.031906000000049    
 epilogue    :   0.8624059999999645    
 total       :    7.409310000000005    
 cputime/step:   7.6073698113208479E-02   (          53 evalulations)

 -------------------------------
 Time spent doing:
   FFTs                       :    1.950138000000379    
   dot products               :   0.4153520000019171    
   geodesic                   :   0.2306700000006003    
   exchange correlation       :   0.1920479999994313    
   local pseudopotentials     :   7.1719999999686479E-03
   non-local pseudopotentials :   0.8445619999998826    
   hartree potentials         :   1.5094000000885899E-02
   structure factors          :   1.2811999998689316E-02
   masking                    :   0.0000000000000000E+00

     >>>  JOB COMPLETED     AT Thu Oct 26 19:24:27 2000  <<<
  
  finite difference hessian delta =   1.0000000000000000E-03

              1        2        3        4        5        6        7        8
    1   -0.0210   0.0007   0.0000   0.0253  -0.0385   0.0000   0.0833   0.0342
    2    0.0007   0.1412   0.0000  -0.0014  -0.1018   0.0000   0.0006  -0.1291
    3    0.0000   0.0000   0.0007   0.0000   0.0000  -0.0416   0.0000   0.0000
    4    0.0253  -0.0014   0.0000   0.3252   0.0332   0.0000  -0.3032  -0.0573
    5   -0.0385  -0.1018   0.0000   0.0332   0.1416   0.0000   0.0079   0.1000
    6    0.0000   0.0000  -0.0416   0.0000   0.0000   0.1433   0.0000   0.0000
    7    0.0833   0.0006   0.0000  -0.3032   0.0079   0.0000   0.1088  -0.0159
    8    0.0342  -0.1291   0.0000  -0.0573   0.1000   0.0000  -0.0159   0.2013
    9    0.0000   0.0000  -0.0499   0.0000   0.0000  -0.0481   0.0000   0.0000

              9      
    1    0.0000
    2    0.0000
    3   -0.0499
    4    0.0000
    5    0.0000
    6   -0.0481
    7    0.0000
    8    0.0000
    9    0.1644
  

 finite difference derivative dipole; delta =   1.0000000000000000E-03

  
  
 X vector of derivative dipole (au) [debye/angstrom]
 d_dipole_x/<atom=   1,x> =     0.5248     [    2.5209]
 d_dipole_x/<atom=   1,y> =     0.0085     [    0.0406]
 d_dipole_x/<atom=   1,z> =     0.0000     [    0.0000]
 d_dipole_x/<atom=   2,x> =    -0.1676     [   -0.8049]
 d_dipole_x/<atom=   2,y> =     0.5549     [    2.6655]
 d_dipole_x/<atom=   2,z> =     0.0000     [    0.0000]
 d_dipole_x/<atom=   3,x> =    -0.4835     [   -2.3223]
 d_dipole_x/<atom=   3,y> =    -0.5736     [   -2.7552]
 d_dipole_x/<atom=   3,z> =     0.0000     [   -0.0001]
  
 Y vector of derivative dipole (au) [debye/angstrom]
 d_dipole_y/<atom=   1,x> =     0.0256     [    0.1231]
 d_dipole_y/<atom=   1,y> =     1.2754     [    6.1260]
 d_dipole_y/<atom=   1,z> =     0.0000     [    0.0000]
 d_dipole_y/<atom=   2,x> =    -0.5361     [   -2.5751]
 d_dipole_y/<atom=   2,y> =    -0.4071     [   -1.9552]
 d_dipole_y/<atom=   2,z> =     0.0000     [    0.0000]
 d_dipole_y/<atom=   3,x> =     0.4668     [    2.2420]
 d_dipole_y/<atom=   3,y> =    -0.5647     [   -2.7124]
 d_dipole_y/<atom=   3,z> =     0.0000     [    0.0001]
  
 Z vector of derivative dipole (au) [debye/angstrom]
 d_dipole_z/<atom=   1,x> =     0.0001     [    0.0004]
 d_dipole_z/<atom=   1,y> =     0.0000     [    0.0001]
 d_dipole_z/<atom=   1,z> =     0.2308     [    1.1087]
 d_dipole_z/<atom=   2,x> =     0.0002     [    0.0009]
 d_dipole_z/<atom=   2,y> =     0.0000     [    0.0002]
 d_dipole_z/<atom=   2,z> =    -0.1485     [   -0.7132]
 d_dipole_z/<atom=   3,x> =     0.0000     [   -0.0001]
 d_dipole_z/<atom=   3,y> =     0.0000     [   -0.0001]
 d_dipole_z/<atom=   3,z> =    -0.1040     [   -0.4997]
  
  
  stpr_wrt_fd_from_sq: overwrite of existing file:./SiC2-MD.hess
 stpr_wrt_fd_dipole: overwrite of existing file./SiC2-MD.fd_ddipole
  triangle hessian written to ./SiC2-MD.hess
  derivative dipole written to ./SiC2-MD.fd_ddipole

 Deleting state for cg_pspw with suffix hess
        sic2.01.elc



  Vibrational analysis via the FX method 

  See chapter 2 in "Molecular Vibrations" by Wilson, Decius and Cross

  Vib: Default input used 

  Nuclear Hessian passed symmetry test 



 ---------------------------- Atom information ----------------------------
     atom    #        X              Y              Z            mass
 --------------------------------------------------------------------------
    Si       1 -6.1851626D-03  1.7365918D+00  1.4559841D-06  2.7976930D+01
    C        2  1.4925697D+00 -1.7055992D+00  1.0985730D-06  1.2000000D+01
    C        3 -1.2448132D+00 -1.6771262D+00  1.3948974D-06  1.2000000D+01
 --------------------------------------------------------------------------




          ----------------------------------------------------
          MASS-WEIGHTED NUCLEAR HESSIAN (Hartree/Bohr/Bohr/Kg)
          ----------------------------------------------------


              1           2           3           4           5           6           7           8           9
   ----- ----- ----- ----- -----
    1  -7.49521D-01
    2   2.39643D-02 5.04858D+00
    3   1.13791D-04-1.66800D-05 2.55836D-02
    4   1.38172D+00-7.40046D-02-2.42320D-04 2.70994D+01
    5  -2.10021D+00-5.55360D+00-3.35926D-05 2.76993D+00 1.17985D+01
    6  -1.58852D-05 1.42176D-06-2.26803D+00 1.48988D-04 1.02091D-05 1.19455D+01
    7   4.54773D+00 3.28080D-02-1.94368D-04-2.52664D+01 6.59239D-01 2.29501D-04 9.06389D+00
    8   1.86529D+00-7.04749D+00 1.91455D-05-4.77725D+00 8.33672D+00-3.44197D-05-1.32222D+00 1.67718D+01
    9  -2.85333D-04 7.35496D-05-2.72127D+00 5.12221D-04-5.46693D-04-4.00867D+00 4.83668D-04 1.25431D-04 1.37039D+01



          -------------------------------------------------
          NORMAL MODE EIGENVECTORS IN CARTESIAN COORDINATES
          -------------------------------------------------
                 (Freqencies expressed in cm-1)

                    1           2           3           4           5           6
 
 Frequency       -567.22     -179.20      158.34      199.54      420.84      512.25
 
           1    -0.07732     0.00000     0.13899     0.09231    -0.04330     0.00000
           2     0.00491     0.00000     0.09586    -0.14561    -0.01055     0.00000
           3     0.00000     0.17835     0.00000     0.00000    -0.00001    -0.06213
           4     0.14651     0.00000     0.06483     0.04685     0.00796     0.00001
           5    -0.05123     0.00001     0.07296    -0.04882     0.21725    -0.00001
           6     0.00000     0.06759     0.00000     0.00000     0.00000     0.21824
           7     0.20474     0.00000     0.08097     0.06426     0.05834     0.00001
           8     0.05772     0.00000     0.02807    -0.07298    -0.16745     0.00001
           9    -0.00001     0.06784     0.00000     0.00000     0.00001     0.16341

                    7           8           9
 
 Frequency        669.45      839.84     1094.80
 
           1     0.00000    -0.00080    -0.00704
           2     0.00000    -0.07218     0.00238
           3    -0.00853     0.00000     0.00000
           4     0.00000     0.00815     0.23525
           5     0.00000     0.16041     0.00861
           6    -0.17645     0.00000     0.00000
           7     0.00000    -0.02209    -0.16383
           8     0.00001     0.21189    -0.03082
           9     0.22810    -0.00001     0.00000



 ----------------------------------------------------------------------------
 Normal Eigenvalue ||         Derivative Dipole Moments (debye/angs)
  Mode   [cm**-1]  ||      [d/dqX]             [d/dqY]           [d/dqZ]
 ------ ---------- || ------------------ ------------------ -----------------
    1     -567.223 ||      -1.084               0.046             0.000
    2     -179.197 ||       0.000               0.000             0.116
    3      158.336 ||       0.231               0.400             0.000
    4      199.537 ||      -0.111               0.564             0.000
    5      420.837 ||       0.789               0.070             0.000
    6      512.246 ||       0.000               0.000            -0.306
    7      669.453 ||       0.000               0.000             0.002
    8      839.842 ||      -0.116              -1.401             0.000
    9     1094.796 ||       0.281              -0.893             0.000
 ----------------------------------------------------------------------------



  
  
 ----------------------------------------------------------------------------
 Normal Eigenvalue ||                 Infra Red Intensities
  Mode   [cm**-1]  || [atomic units] [(debye/angs)**2] [(KM/mol)] [arbitrary]
 ------ ---------- || -------------- ----------------- ---------- -----------
    1     -567.223 ||    0.050995           1.176        49.712      19.950
    2     -179.197 ||    0.000580           0.013         0.565       0.227
    3      158.336 ||    0.009257           0.214         9.024       3.622
    4      199.537 ||    0.014311           0.330        13.951       5.599
    5      420.837 ||    0.027190           0.627        26.506      10.637
    6      512.246 ||    0.004064           0.094         3.961       1.590
    7      669.453 ||    0.000000           0.000         0.000       0.000
    8      839.842 ||    0.085685           1.977        83.530      33.521
    9     1094.796 ||    0.037969           0.876        37.014      14.854
 ----------------------------------------------------------------------------





        Vibrational analysis via the FX method 
  --- with translations and rotations projected out ---
  --- via the Eckart algorithm                      ---
 Projected Nuclear Hessian trans-rot subspace norm:6.1638D-32
                         (should be close to zero!) 


From the projected analysis 
The Zero-Point Energy (Kcal/mol) =           2.50835111



          -------------------------------------------------
          NORMAL MODE EIGENVECTORS IN CARTESIAN COORDINATES
          -------------------------------------------------
             (Projected Freqencies expressed in cm-1)

                    1           2           3           4           5           6
 
 P.Frequency     -346.97        0.00        0.00        0.00        0.00        0.00
 
           1    -0.06146    -0.00091     0.00000     0.17877     0.00000    -0.00028
           2     0.01114     0.13867     0.00000     0.00340     0.00000    -0.00415
           3     0.00000     0.00000     0.18906     0.00000     0.00000     0.00000
           4     0.06208     0.00101     0.00000     0.02435     0.00000     0.19025
           5    -0.19110     0.13950     0.00000    -0.06384     0.00000     0.07881
           6     0.00000     0.00000     0.00000     0.00000     0.28868     0.00000
           7     0.08121     0.00099     0.00000     0.02563     0.00000     0.18868
           8     0.16513     0.13798     0.00000     0.05896     0.00000    -0.07271
           9     0.00000     0.00000     0.00000     0.00000     0.00000     0.00000

                    7           8           9
 
 P.Frequency        0.00      683.72     1070.37
 
           1     0.00000     0.00161    -0.00231
           2     0.00000     0.12790     0.00170
           3     0.00000     0.00000     0.00000
           4     0.00000    -0.00373     0.20658
           5     0.00000    -0.13021    -0.01065
           6     0.00000     0.00000     0.00000
           7     0.00000    -0.00003    -0.20120
           8     0.00000    -0.16799     0.00668
           9     0.28868     0.00000     0.00000



 ----------------------------------------------------------------------------
 Normal Eigenvalue ||    Projected Derivative Dipole Moments (debye/angs)
  Mode   [cm**-1]  ||      [d/dqX]             [d/dqY]           [d/dqZ]
 ------ ---------- || ------------------ ------------------ -----------------
    1     -346.975 ||      -1.357               0.009             0.000
    2        0.000 ||      -0.008               0.202             0.000
    3        0.000 ||       0.000               0.000             0.210
    4        0.000 ||       0.039               0.002             0.000
    5        0.000 ||       0.000               0.000            -0.206
    6        0.000 ||      -0.182              -0.049             0.000
    7        0.000 ||       0.000               0.000            -0.144
    8      683.722 ||      -0.128              -1.503             0.000
    9     1070.370 ||       0.248              -0.970             0.000
 ----------------------------------------------------------------------------



  
  
 ----------------------------------------------------------------------------
 Normal Eigenvalue ||           Projected Infra Red Intensities
  Mode   [cm**-1]  || [atomic units] [(debye/angs)**2] [(KM/mol)] [arbitrary]
 ------ ---------- || -------------- ----------------- ---------- -----------
    1     -346.975 ||    0.079867           1.843        77.858      31.245
    2        0.000 ||    0.001771           0.041         1.727       0.693
    3        0.000 ||    0.001904           0.044         1.857       0.745
    4        0.000 ||    0.000066           0.002         0.065       0.026
    5        0.000 ||    0.001837           0.042         1.791       0.719
    6        0.000 ||    0.001537           0.035         1.499       0.601
    7        0.000 ||    0.000902           0.021         0.879       0.353
    8      683.722 ||    0.098690           2.277        96.208      38.609
    9     1070.370 ||    0.043475           1.003        42.381      17.008
 ----------------------------------------------------------------------------






 ===============================================================================
      Negative Nuclear Hessian Mode    1  Eigenvalue =   -346.97 cm**(-1)
 -------------------------------------------------------------------------------
   Raw step length:  0.280 a.u.      ;  The Raw step for this mode is:
    1 Si                  14.0000     0.06146377    -0.01113781    -0.00000001
    2 C                    6.0000    -0.06208465     0.19109769     0.00000002
    3 C                    6.0000    -0.08121265    -0.16513087     0.00000000


  Geometry after 100.0% step for mode  1; Step length =  0.280 a.u.      
   Maximum component (any atom: x,y, or z) displacement:  0.191
    1 Si                  14.0000     0.05527861     1.72545399     0.00000145
    2 C                    6.0000     1.43048508    -1.51450156     0.00000112
    3 C                    6.0000    -1.32602588    -1.84225711     0.00000139


  Geometry after  50.0% step for mode  1; Step length =  0.140 a.u.      
   Maximum component (any atom: x,y, or z) displacement:  0.096
    1 Si                  14.0000     0.02454672     1.73102290     0.00000145
    2 C                    6.0000     1.46152740    -1.61005040     0.00000111
    3 C                    6.0000    -1.28541956    -1.75969168     0.00000139


  Geometry after 104.7% step for mode  1; Step length =  0.293 a.u.      
   Maximum component (any atom: x,y, or z) displacement:  0.200
    1 Si                  14.0000     0.05814191     1.72493513     0.00000145
    2 C                    6.0000     1.42759286    -1.50559924     0.00000112
    3 C                    6.0000    -1.32980919    -1.84994976     0.00000139


  Geometry after  52.3% step for mode  1; Step length =  0.146 a.u.      
   Maximum component (any atom: x,y, or z) displacement:  0.100
    1 Si                  14.0000     0.02597837     1.73076347     0.00000145
    2 C                    6.0000     1.46008129    -1.60559924     0.00000111
    3 C                    6.0000    -1.28731121    -1.76353800     0.00000139


 vib:animation  F

 Task  times  cpu:      139.1s     wall:      170.1s


                                NWChem Input Module
                                -------------------


 Summary of allocated global arrays
-----------------------------------
  No active global arrays



                         GA Statistics for process    0
                         ------------------------------

       create   destroy   get      put      acc     scatter   gather  read&inc
calls:    0        0        0        0        0        0        0        0     
bytes total:             0.00e+00 0.00e+00 0.00e+00 0.00e+00 0.00e+00 0.00e+00
bytes remote:            0.00e+00 0.00e+00 0.00e+00 0.00e+00 0.00e+00 0.00e+00
Max memory consumed for GA by this process: 0 bytes

MA_summarize_allocated_blocks: starting scan ...
MA_summarize_allocated_blocks: scan completed: 0 heap blocks, 0 stack blocks
MA usage statistics:

	allocation statistics:
					      heap	     stack
					      ----	     -----
	current number of blocks	         0	         0
	maximum number of blocks	        79	        23
	current total bytes		         0	         0
	maximum total bytes		   1007956	    479364
	maximum total K-bytes		      1008	       480
	maximum total M-bytes		         2	         1



                                  ACKNOWLEDGEMENT
                                  ---------------

            Please use the following acknowledgement where appropriate 
            for results obtained with NWChem:

            High Performance Computational Chemistry Group, "NWChem, A
            Computational Chemistry Package for Parallel Computers, 
            Version 4.0" (2000), Pacific Northwest National Laboratory,
            Richland, Washington 99352-0999, USA.


                                     CITATION
                                     --------

            Please use the following citation when publishing results
            obtained with NWChem:

            Anchell, J.; Apra, E.; Bernholdt, D.; Borowski, P.; Bylaska, E.; 
            Clark, T.; Clerc, D.; Dachsel, H.; de Jong, W.A.; Deegan, M.; 
            Dupuis, M.; Dyall, K.; Elwood, D.; Fann, G.; Fruchtl, H.; 
            Glendenning, E.; Gutowski, M.; Harrison, R.; Hess, A.; 
            Jaffe, J.; Johnson, B.; Ju, J.; Kendall, R.; Kobayashi, R.; 
            Kutteh, R.; Lin, Z.; Littlefield, R.; Long, X.; Meng, B.; 
            Nichols, J.; Nieplocha, J.; Rendall, A.; Rosing, M.;Sandrone, G; 
            Stave, M.; Straatsma, T.;Taylor, H.; Thomas, G.; van Lenthe, J.; 
            Windus, T; Wolinski, K.; Wong, A.; Zhang, Z.; "NWChem, A 
            Computational Chemistry Package for Parallel Computers, 
            Version 4.0" (1999),
                      Pacific Northwest National Laboratory,
                      Richland, Washington 99352-0999, USA.


                                    REFERENCES
                                    ----------

            Where appropriate, please cite the following reference(s) 
            when publishing results obtained with NWChem:


     1. D. E. Bernholdt, E. Apra, H. A. Fruchtl, M.F. Guest, R. J. Harrison, 
        R. A. Kendall, R. A. Kutteh, X. Long, J. B. Nicholas, J. A. Nichols, 
        H. L. Taylor, A. T. Wong, G. I. Fann, R. J. Littlefield and J. Nieplocha,
        "Parallel Computational Chemistry Made Easier: The Development of NWChem,"
        Int. J. Quantum Chem. Symposium  29, 475-483 (1995).



 Total times  cpu:      588.7s     wall:      670.3s







 Creating: host=boys, user=bylaska,
           file=/afs/msrc.pnl.gov/files/home/bylaska/bin/nwchem, port=23095
