 argument  1 = pspw_md.nw
                                         
                                         


              Northwest Computational Chemistry Package (NWChem) 4.0
              ------------------------------------------------------


                    Environmental Molecular Sciences Laboratory
                       Pacific Northwest National Laboratory
                                Richland, WA 99352

                                         
                                         


                COPYRIGHT (C) 1994, 1995, 1996, 1997, 1998, 1999, 2000
                        Pacific Northwest National Laboratory,
                             Battelle Memorial Institute.

                            >>> All Rights Reserved <<<


                                    DISCLAIMER
                                    ----------

            This material was prepared as an account of work sponsored
            by an agency of the United States Government.  Neither the
            United States Government nor the United States Department
            of Energy, nor Battelle, nor any of their employees, MAKES
            ANY WARRANTY, EXPRESS OR IMPLIED, OR ASSUMES ANY LEGAL
            LIABILITY OR RESPONSIBILITY FOR THE ACCURACY, COMPLETENESS,
            OR USEFULNESS OF ANY INFORMATION, APPARATUS, PRODUCT,
            SOFTWARE, OR PROCESS DISCLOSED, OR REPRESENTS THAT ITS USE
            WOULD NOT INFRINGE PRIVATELY OWNED RIGHTS.


                                    LIMITED USE
                                    -----------

            This software (including any documentation) is being made
            available to you for your internal use only, solely for use
            in performance of work directly for the U.S. Federal
            Government or work under contracts with the U.S. Department
            of Energy or other U.S. Federal Government agencies.  This
            software is a version which has not yet been evaluated and
            cleared for commercialization.  Adherence to this notice
            may be necessary for the author, Battelle Memorial
            Institute, to successfully assert copyright in and
            commercialize this software. This software is not intended
            for duplication or distribution to third parties without
            the permission of the Manager of Software Products at
            Pacific Northwest National Laboratory, Richland,
            Washington, 99352.


                                  ACKNOWLEDGMENT
                                  --------------

            This software and its documentation were produced with
            Government support under Contract Number DE-AC06-76RLO-1830
            awarded by the United States Department of Energy.  The
            Government retains a paid-up non-exclusive, irrevocable
            worldwide license to reproduce, prepare derivative works,
            perform publicly and display publicly by or for the
            Government, including the right to distribute to other
            Government contractors.


           Job information
           ---------------

    hostname      = pspw.emsl.pnl.gov
    program       = nwchem
    date          = Mon Nov 27 13:07:10 2000

    compiled      = Mon Nov 27 11:04:15 PST 2000
    source        = /home/bylaska/nwchem
    nwchem branch = Development
    input         = pspw_md.nw
    prefix        = SiC2-MD.
    data base     = ./SiC2-MD.db
    status        = startup
    nproc         =    1
    time left     =     -1s



           Memory information
           ------------------

    heap      =    3538938 doubles =     28.3 Mbytes
    stack     =    1572851 doubles =     12.6 Mbytes
    global    =    5111812 doubles =     40.9 Mbytes (within heap+stack)
    total     =    5111789 doubles =     40.9 Mbytes
    verify    = yes
    hardfail  = no 


           Directory information
           ---------------------

  0 permanent = .
  0 scratch   = .




                                NWChem Input Module
                                -------------------


                                     SiC2-MD
                                     -------


          ------
          auto-z
          ------


                             Geometry "geometry" -> ""
                             -------------------------

 Output coordinates in a.u. (scale by  1.000000000 to convert to a.u.)

  No.       Tag          Charge          X              Y              Z
 ---- ---------------- ---------- -------------- -------------- --------------
    1 Si                  14.0000     0.00000000     0.92307692     0.00000000
    2 C                    6.0000     1.24000000    -1.07692308     0.00000000
    3 C                    6.0000    -1.24000000    -1.07692308     0.00000000

      Atomic Mass 
      ----------- 

      Si                27.976930
      C                 12.000000


 Effective nuclear repulsion energy (a.u.)      85.9079551361

            Nuclear Dipole moment (a.u.) 
            ----------------------------
        X                 Y               Z
 ---------------- ---------------- ----------------
     0.0000000000     0.0000000000     0.0000000000



                                Z-matrix (autoz)
                                -------- 

 Units are Angstrom for bonds and degrees for angles

      Type          Name      I     J     K     L     M      Value
      ----------- --------  ----- ----- ----- ----- ----- ----------
    1 Stretch                  1     2                       1.24527
    2 Stretch                  1     3                       1.24527
    3 Stretch                  2     3                       1.31236
    4 Bend                     1     2     3                58.20109
    5 Bend                     1     3     2                58.20109
    6 Bend                     2     1     3                63.59783

 ==============================================================================
                                internuclear distances
 ------------------------------------------------------------------------------
       center one      |      center two      | atomic units |       a.u.
 ------------------------------------------------------------------------------
    2 C                |   1 Si               |     2.35321  |     2.35321
    3 C                |   1 Si               |     2.35321  |     2.35321
    3 C                |   2 C                |     2.48000  |     2.48000
 ------------------------------------------------------------------------------
                         number of included internuclear distances:          3
 ==============================================================================



 ==============================================================================
                                 internuclear angles
 ------------------------------------------------------------------------------
        center 1       |       center 2       |       center 3       |  degrees
 ------------------------------------------------------------------------------
    2 C                |   1 Si               |   3 C                |    63.60
    2 C                |   1 Si               |   3 C                |    63.60
    3 C                |   1 Si               |   2 C                |    63.60
 ------------------------------------------------------------------------------
                            number of included internuclear angles:          3
 ==============================================================================



 >>>> PSPW Serial Module - 1d pseudopotential solver <<<<
All electron atom solver

Atom name: C
Zcharge  : 6.000000e+00
Amass    : 1.200000e+01
Ncore    : 1
Nvalence : 2
         : restricted calculation

------ Solver information ------
solver type      : Pauli
hartree type     : On
exchange type    : Dirac
           alpha : 0.666667
correlation type : Vosko parameterization
Solver iterations: 22

------- Grid information -------
Zcharge  : 6.000000e+00
amesh    : 1.005000e+00
R_max    : 4.467913e+01
Ngrid    : 2785
------------------------------------------------------------
n	l	population	Eigenvalue	Outer Peak
1	s	2.00		-9.952135e+00	1.743589e-01
2	s	2.00		-5.012954e-01	1.213506e+00
2	p	2.00		-1.990710e-01	1.189537e+00
------------------------------------------------------------
charge      = 6.000000e+00
core charge = 2.000000e+00

Total E       = -3.744197e+01

E_Hartree     = 1.763555e+01
<Vh>          = 3.527111e+01

E_exchange    = -4.358252e+00
<Vx>          = -5.811003e+00

E_correlation = -3.729106e-01
<Vc>          = -4.187471e-01


Hamann pseudopotential check

l	rcore     rmatch    E in       E psp      norm test slope test
0	0.800000  1.978409  -0.501295  -0.501295  1.000000  1.000007
1	0.850000  2.175060  -0.199071  -0.199071  1.000000  1.000008
2	0.850000  2.121490  -0.199071  -0.199071  1.000000  1.000000


PSP solver information

Atom name: C
Zcharge  : 4.000000e+00
Nvalence : 3
         : restricted calculation

------ Solver information ------
solver type      : Hamann
hartree type     : On
exchange type    : Dirac
           alpha : 0.666667
correlation type : Vosko parameterization
----------------------------------------------------------------------------
n	l	population	Ecut		Rcut		Outer Peak
1	s	2.00		-5.012954e-01	8.000000e-01	1.225672e+00
2	p	2.00		-1.990710e-01	8.500000e-01	1.050089e+00
3	d	0.00		-1.990710e-01	8.500000e-01	4.467913e+01
----------------------------------------------------------------------------
Pseudopotential Charge: 4.000000

Total E       = -5.339938e+00

E_Hartree     = 4.359439e+00
<Vh>          = 8.718878e+00

E_exchange    = -1.176866e+00
<Vx>          = -1.569155e+00

E_correlation = -1.935145e-01
<Vc>          = -2.214593e-01

Outputing pseudowavefunctions: ./C.psw.plt
Outputing pseudopotentials: ./C.psp.plt
Creating datafile for Kleinman-Bylander input: ./C.psp
  + Appending pseudopotentials:    s thru d
  + Appending pseudowavefunctions: s thru d
Outputing all-electron wavefunctions: ./C.1s ./C.2s ./C.2p ./C.3d
Outputing atom density: ./C.dns.plt
Outputing core density: ./C.cdns.plt
Outputing core density gradient: ./C.cddns.plt
Outputing semicore density: ./C.sdns.plt
Outputing semicore density gradient: ./C.sddns.plt
Outputing all-electron potential(non-screened): ./C.pot.plt
     >>>  JOB COMPLETED     AT Mon Nov 27 13:07:14 2000  <<<
 >>>> PSPW Serial Module - 1d pseudopotential solver <<<<
All electron atom solver

Atom name: Si
Zcharge  : 1.400000e+01
Amass    : 2.800000e+01
Ncore    : 3
Nvalence : 2
         : restricted calculation

------ Solver information ------
solver type      : Pauli
hartree type     : On
exchange type    : Dirac
           alpha : 0.666667
correlation type : Vosko parameterization
Solver iterations: 24

------- Grid information -------
Zcharge  : 1.400000e+01
amesh    : 1.005000e+00
R_max    : 4.470524e+01
Ngrid    : 2955
------------------------------------------------------------
n	l	population	Eigenvalue	Outer Peak
1	s	2.00		-6.535740e+01	7.252218e-02
2	s	2.00		-5.098976e+00	4.545499e-01
2	p	6.00		-3.513807e+00	3.855685e-01
3	s	2.00		-3.998215e-01	1.765023e+00
3	p	2.00		-1.529635e-01	2.144010e+00
------------------------------------------------------------
charge      = 1.400000e+01
core charge = 1.000000e+01

Total E       = -2.888262e+02

E_Hartree     = 1.320216e+02
<Vh>          = 2.640433e+02

E_exchange    = -1.854621e+01
<Vx>          = -2.472829e+01

E_correlation = -1.054685e+00
<Vc>          = -1.169188e+00


Hamann pseudopotential check

l	rcore     rmatch    E in       E psp      norm test slope test
0	1.059014  2.710389  -0.399821  -0.399821  1.000000  1.000005
1	1.286406  3.460738  -0.152964  -0.152964  1.000000  1.000004
2	1.286406  3.211277  -0.152964  -0.152964  1.000000  1.000000


PSP solver information

Atom name: Si
Zcharge  : 4.000000e+00
Nvalence : 3
         : restricted calculation

------ Solver information ------
solver type      : Hamann
hartree type     : On
exchange type    : Dirac
           alpha : 0.666667
correlation type : Vosko parameterization
----------------------------------------------------------------------------
n	l	population	Ecut		Rcut		Outer Peak
1	s	2.00		-3.998215e-01	1.059014e+00	1.773848e+00
2	p	2.00		-1.529635e-01	1.286406e+00	2.144010e+00
3	d	0.00		-1.529635e-01	1.286406e+00	4.470524e+01
----------------------------------------------------------------------------
Pseudopotential Charge: 4.000000

Total E       = -3.749888e+00

E_Hartree     = 2.936877e+00
<Vh>          = 5.873754e+00

E_exchange    = -8.005235e-01
<Vx>          = -1.067365e+00

E_correlation = -1.635775e-01
<Vc>          = -1.892953e-01

Outputing pseudowavefunctions: ./Si.psw.plt
Outputing pseudopotentials: ./Si.psp.plt
Creating datafile for Kleinman-Bylander input: ./Si.psp
  + Appending pseudopotentials:    s thru d
  + Appending pseudowavefunctions: s thru d
Outputing all-electron wavefunctions: ./Si.1s ./Si.2s ./Si.2p ./Si.3s ./Si.3p ./Si.3d
Outputing atom density: ./Si.dns.plt
Outputing core density: ./Si.cdns.plt
Outputing core density gradient: ./Si.cddns.plt
Outputing semicore density: ./Si.sdns.plt
Outputing semicore density gradient: ./Si.sddns.plt
Outputing all-electron potential(non-screened): ./Si.pot.plt
     >>>  JOB COMPLETED     AT Mon Nov 27 13:07:20 2000  <<<

== C.psp   expansion coefficients ==

ATOM       S            P            D            F
C  :   0.68653E+00  0.19338E+01



== Si.psp   expansion coefficients ==

ATOM       S            P            D            F
Si :   0.21344E+00  0.34796E+00


 >>>> PSPW parallel Module - psp_formatter <<<<
      ********************************************
      *                                          *
      *     KBPPV3 - Pseudopotential Formatter   *
      *                                          *
      *      version last updated 4/15/99        *
      *                                          *
      * This code was written by Eric J. Bylaska *
      * and was based upon algorithms and code   *
      * developed by the group of                *
      * Prof. John H. Weare                      *
      ********************************************
     >>>  JOB STARTED       AT Mon Nov 27 13:07:25 2000  <<<

 Pseudpotential Data
 -------------------
   atom     :C 
   charge   :  4.
   mass no. :  12.
   highest angular component      : 2
   highest angular component used : 2
   local potential used           : 0
  cutoffs:      0.800     0.850     0.850

 Simulation Cell
 ---------------
  boundry: periodic
  ngrid  :  24  24  24
  unita  :    20.000     0.000     0.000
               0.000    20.000     0.000
               0.000     0.000    20.000

     >>>  JOB COMPLETED     AT Mon Nov 27 13:07:25 2000  <<<

 Task  times  cpu:        5.0s     wall:        5.0s


                                NWChem Input Module
                                -------------------


 >>>> PSPW parallel Module - psp_formatter <<<<
      ********************************************
      *                                          *
      *     KBPPV3 - Pseudopotential Formatter   *
      *                                          *
      *      version last updated 4/15/99        *
      *                                          *
      * This code was written by Eric J. Bylaska *
      * and was based upon algorithms and code   *
      * developed by the group of                *
      * Prof. John H. Weare                      *
      ********************************************
     >>>  JOB STARTED       AT Mon Nov 27 13:07:29 2000  <<<

 Pseudpotential Data
 -------------------
   atom     :Si
   charge   :  4.
   mass no. :  28.
   highest angular component      : 2
   highest angular component used : 2
   local potential used           : 2
  cutoffs:      1.059     1.286     1.286

 Simulation Cell
 ---------------
  boundry: periodic
  ngrid  :  24  24  24
  unita  :    20.000     0.000     0.000
               0.000    20.000     0.000
               0.000     0.000    20.000

     >>>  JOB COMPLETED     AT Mon Nov 27 13:07:29 2000  <<<

 Task  times  cpu:        4.1s     wall:        4.1s


                                NWChem Input Module
                                -------------------


 >>>> PSPW Serial Module - wavefunction_initializer <<<<
 writing <spin= 1,psi=  1>    -     (  0  0  0 :   0)
 writing <spin= 1,psi=  2>    -     (  0  1  0 :  -1)
 writing <spin= 1,psi=  3>    -     (  1 23  0 :  -1)
 writing <spin= 1,psi=  4>    -     (  1  1  1 :  -1)
 writing <spin= 1,psi=  5>    -     (  1 23 23 :   1)
 writing <spin= 1,psi=  6>    -     (  0  2  0 :  -1)
  JOB HAS BEEN COMPLETED.  CODE= 0
     >>>  JOB COMPLETED     AT Mon Nov 27 13:07:29 2000  <<<

 Task  times  cpu:        0.0s     wall:        0.0s


                                NWChem Input Module
                                -------------------


 >>>> PSPW Parallel Module - steepest_descent <<<<
          ****************************************************
          *                                                  *
          *     Car-Parrinello microcluster calculation      *
          *                                                  *
          *     [     steepest descent minimization   ]      *
          *                                                  *
          *      [ NortWest Chemistry implementation ]       *
          *                                                  *
          *            version #5.00   06/01/99              *
          *                                                  *
          *    This code was developed by Eric J. Bylaska,   *
          *    and was based upon algorithms and code        *
          *    developed by the group of Prof. John H. Weare *
          *                                                  *
          ****************************************************
     >>>  JOB STARTED       AT Mon Nov 27 13:07:29 2000  <<<
          ================ input data ========================

 number of processors used:  1

 options:
      ionic motion         = no
      boundry conditions   = periodic    (version3)
      electron spin        = restricted
      exchange-correlation = Vosko et al parameterization

 elements involved in the cluster:
      1: C   mass no.:  12.0   core charge:  4.  lmax=2
             highest angular component      :  2
             local potential used           :  0
             number of non-local projections:  8
             cutoff =   0.800   0.850   0.850
      2: Si  mass no.:  28.0   core charge:  4.  lmax=2
             highest angular component      :  2
             local potential used           :  2
             number of non-local projections:  4
             cutoff =   1.059   1.286   1.286

 atomic composition:
     C :  2     Si:  1

 initial position of ions:
        1 Si (    0.00000    0.92308    0.00000 )
        2 C  (    1.24000   -1.07692    0.00000 )
        3 C  (   -1.24000   -1.07692    0.00000 )
       G.C.  (    0.00000   -0.41026    0.00000 )
      C.O.M. (    0.00000    0.00000    0.00000 )

 number of electrons: spin up=  6  spin down=  6 ( fourier space)

 supercell:
      lattice: a1=<  20.000   0.000   0.000 >
               a2=<   0.000  20.000   0.000 >
               a3=<   0.000   0.000  20.000 >
               b1=<   0.314   0.000   0.000 >
               b2=<   0.000   0.314   0.000 >
               b3=<   0.000   0.000   0.314 >
      volume :     8000.0
      density cutoff=  7.106  fft= 24x 24x 24(     3562 waves     3562 per task)
      wavefnc cutoff=  7.106  fft= 24x 24x 24(     3562 waves     3562 per task)
      ewald summation: cut radius=    6.37  and  1
                        mandelung= 1.76011888

 technical parameters:
      time step=     51.80     fictacious mass=  400000.0
      tolerance=.100E-08 (energy)   0.100E-08 (electron)   0.100E-03 (ion)



          ================ iteration =========================
     >>>  ITERATION STARTED AT Mon Nov 27 13:07:34 2000  <<<
      10   -0.3635108910E+01   -0.70176E-02    0.94015E-01    0.00000E+00
      20   -0.1091461995E+02   -0.14053E-01    0.19616E-01    0.00000E+00
      30   -0.1243972635E+02   -0.29442E-02    0.46488E-02    0.00000E+00
      40   -0.1288174018E+02   -0.85331E-03    0.20835E-02    0.00000E+00
      50   -0.1309957105E+02   -0.42052E-03    0.17514E-02    0.00000E+00
      60   -0.1325136120E+02   -0.29303E-03    0.17779E-02    0.00000E+00
      70   -0.1337054992E+02   -0.23009E-03    0.15766E-02    0.00000E+00
      80   -0.1346356166E+02   -0.17956E-03    0.12454E-02    0.00000E+00
      90   -0.1353378697E+02   -0.13557E-03    0.91952E-03    0.00000E+00
     100   -0.1358580146E+02   -0.10041E-03    0.66081E-03    0.00000E+00
 *** arived at the Maximum iiteration.   terminated.
     >>>  ITERATION ENDED   AT Mon Nov 27 13:08:50 2000  <<<



          =============  summary of results  =================
 final position of ions:
        1 Si (    0.00000    0.92308    0.00000 )
        2 C  (    1.24000   -1.07692    0.00000 )
        3 C  (   -1.24000   -1.07692    0.00000 )
       G.C.  (    0.00000   -0.41026    0.00000 )
      C.O.M. (    0.00000    0.00000    0.00000 )

 number of electrons: spin up=    6.00000  down=    6.00000 (real space)

 total     energy    :  -0.1358580146E+02 (   -0.45286E+01/ion)
 total orbital energy:  -0.6026025492E+01 (   -0.10043E+01/electron)
 hartree   energy    :   0.1884588633E+02 (    0.31410E+01/electron)
 exc-corr  energy    :  -0.4477769332E+01 (   -0.74629E+00/electron)
 ion-ion   energy    :   0.9908523769E+01 (    0.33028E+01/ion)

 K.S. kinetic energy :   0.8948775114E+01 (    0.14915E+01/electron)
 K.S. V_l  energy    :  -0.4641591444E+02 (   -0.77360E+01/electron)
 K.S. V_nl energy    :  -0.3953029020E+00 (   -0.65884E-01/electron)
 K.S. V_Hart energy  :   0.3769177266E+02 (    0.62820E+01/electron)
 K.S. V_xc energy    :  -0.5855355930E+01 (   -0.97589E+00/electron)
 Virial Coefficient  :  -0.1673391097E+01

 orbital energies:
    -0.1508581E+00 (  -4.105eV)
    -0.3404421E+00 (  -9.264eV)
    -0.4779576E+00 ( -13.006eV)
    -0.4919646E+00 ( -13.387eV)
    -0.5761228E+00 ( -15.677eV)
    -0.9756674E+00 ( -26.549eV)

 Total PSPW energy   :  -0.1358580146E+02


=== Spin Contamination ===

 <Sexact^2> =   0.
 <S^2>      =   0.



== Center of Charge ==

spin up     (   -0.0515,   -0.3826,    0.0132 )
spin down   (   -0.0515,   -0.3826,    0.0132 )
     total  (   -0.0515,   -0.3826,    0.0132 )
ionic       (    0.0000,   -0.4103,    0.0000 )


== Molecular Dipole ==

mu   =  (    0.6177,   -0.3315,   -0.1584 ) au
|mu| =     0.7187 au,       1.8266 Debye



 *************************************************************
 **                                                         **
 **                  PSPW Mulliken analysis                 **
 **                                                         **
 ** Population analysis algorithm devloped by Ryoichi Kawai **
 **                                                         **
 **                   Mon Nov 27 13:08                      **
 **                                                         **
 *************************************************************


== EXPANSION COEFFICIENTS ==

ATOM       S            P            D            F
C  :   0.68653E+00  0.19338E+01
Si :   0.21344E+00  0.34796E+00


 ===============================================
 |  POPULATION ANALYSIS OF MOLECULAR ORBITALS  |
 ===============================================


------------------------------------------------


*** ORBITAL= 1***  SPIN=BOTH    SUM= 0.69297E+00 E=-0.15086E+00

NO  ATOM  L     POPULATION
 1   Si   0    0.00074    0.02718
 1   Si   1    0.62187    0.55053   -0.54569   -0.14495
 2   C    0    0.04197   -0.20487
 2   C    1    0.20094    0.00906    0.41099    0.17874
 3   C    0    0.07335    0.27082
 3   C    1    0.06113   -0.20658   -0.07097   -0.11585


=== DISTRIBUTION ===

     1(Si)   0.6226     2(C )   0.2429     3(C )   0.1345


== ANGULAR MOMENTUM POPULATIONS ===

      s         p         d         f
    0.1161    0.8839    0.0000    0.0000


------------------------------------------------


*** ORBITAL= 2***  SPIN=BOTH    SUM= 0.88999E+00 E=-0.34044E+00

NO  ATOM  L     POPULATION
 1   Si   0    0.05256   -0.22925
 1   Si   1    0.36123   -0.04449    0.59934    0.00640
 2   C    0    0.11594    0.34050
 2   C    1    0.20861    0.36928   -0.26508   -0.04436
 3   C    0    0.07252    0.26930
 3   C    1    0.18914   -0.36056   -0.24288    0.01217


=== DISTRIBUTION ===

     1(Si)   0.4138     2(C )   0.3245     3(C )   0.2617


== ANGULAR MOMENTUM POPULATIONS ===

      s         p         d         f
    0.2410    0.7590    0.0000    0.0000


------------------------------------------------


*** ORBITAL= 3***  SPIN=BOTH    SUM= 0.81001E+00 E=-0.47796E+00

NO  ATOM  L     POPULATION
 1   Si   0    0.14456    0.38021
 1   Si   1    0.49731   -0.02798    0.13600    0.69140
 2   C    0    0.00596   -0.07721
 2   C    1    0.15392    0.13490    0.15786    0.33288
 3   C    0    0.00868   -0.09318
 3   C    1    0.18956   -0.13218    0.19484    0.36623


=== DISTRIBUTION ===

     1(Si)   0.6419     2(C )   0.1599     3(C )   0.1982


== ANGULAR MOMENTUM POPULATIONS ===

      s         p         d         f
    0.1592    0.8408    0.0000    0.0000


------------------------------------------------


*** ORBITAL= 4***  SPIN=BOTH    SUM= 0.79471E+00 E=-0.49196E+00

NO  ATOM  L     POPULATION
 1   Si   0    0.36559   -0.60464
 1   Si   1    0.26304    0.02935   -0.18934    0.47574
 2   C    0    0.02153    0.14674
 2   C    1    0.14736   -0.18051   -0.24859    0.23016
 3   C    0    0.02825    0.16807
 3   C    1    0.17423    0.17553   -0.29416    0.23852


=== DISTRIBUTION ===

     1(Si)   0.6286     2(C )   0.1689     3(C )   0.2025


== ANGULAR MOMENTUM POPULATIONS ===

      s         p         d         f
    0.4154    0.5846    0.0000    0.0000


------------------------------------------------


*** ORBITAL= 5***  SPIN=BOTH    SUM= 0.22254E+01 E=-0.57612E+00

NO  ATOM  L     POPULATION
 1   Si   0    0.00024   -0.01537
 1   Si   1    0.31689   -0.56293   -0.00106    0.00060
 2   C    0    0.31573   -0.56190
 2   C    1    0.01948   -0.06295   -0.12454   -0.00267
 3   C    0    0.32650    0.57140
 3   C    1    0.02117   -0.07901    0.12217   -0.00012


=== DISTRIBUTION ===

     1(Si)   0.3171     2(C )   0.3352     3(C )   0.3477


== ANGULAR MOMENTUM POPULATIONS ===

      s         p         d         f
    0.6425    0.3575    0.0000    0.0000


------------------------------------------------


*** ORBITAL= 6***  SPIN=BOTH    SUM= 0.20155E+01 E=-0.97567E+00

NO  ATOM  L     POPULATION
 1   Si   0    0.06537   -0.25567
 1   Si   1    0.21762    0.00788    0.46639    0.00571
 2   C    0    0.30513   -0.55238
 2   C    1    0.03348    0.16577   -0.07743   -0.00221
 3   C    0    0.34384   -0.58638
 3   C    1    0.03457   -0.16740   -0.08087   -0.00104


=== DISTRIBUTION ===

     1(Si)   0.2830     2(C )   0.3386     3(C )   0.3784


== ANGULAR MOMENTUM POPULATIONS ===

      s         p         d         f
    0.7143    0.2857    0.0000    0.0000


 ========================================
 |   POPULATION ANALYSIS ON EACH ATOM   |
 ========================================


NO  ATOM  SPIN    TOTAL       s          p          d          f
 1   Si   UP      2.90702    0.62905    2.27797
 1   Si   DOWN    2.90702    0.62905    2.27797
 2   C    UP      1.57005    0.80626    0.76379
 2   C    DOWN    1.57005    0.80626    0.76379
 3   C    UP      1.52293    0.85314    0.66979
 3   C    DOWN    1.52293    0.85314    0.66979



=== TOTAL ANGULAR MOMENTUM POPULATION ===

 SPIN       s           p           d           f
  UP       38.14%      61.86%       0.00%       0.00% 
  UP       38.14%      61.86%       0.00%       0.00% 
 TOTAL     38.14%      61.86%       0.00%       0.00% 

 -----------------
 cputime in seconds
 prologue    :   4.681468
 main loop   :   76.152474
 epilogue    :   0.238264
 total       :   81.072206
 cputime/step:   0.76152474

 -------------------------------
 Time spent doing:
   FFTs                       :   28.475872
   dot products               :   0.000118
   orthonormalization         :   6.612042
   exchange correlation       :   6.806104
   local pseudopotentials     :   2.712168
   non-local pseudopotentials :   19.48141
   hartree potentials         :   0.185632
   structure factors          :   1.77054
   masking                    :   0.

     >>>  JOB COMPLETED     AT Mon Nov 27 13:08:50 2000  <<<

 Task  times  cpu:       80.8s     wall:       81.1s


                                NWChem Input Module
                                -------------------


          ****************************************************
          *                                                  *
          *     Car-Parrinello microcluster calculation      *
          *                                                  *
          *     [     conjugate gradient minimization   ]    *
          *     [   (Grassman manifold implementation)  ]    *
          *                                                  *
          *      [ NortWest Chemistry implementation ]       *
          *                                                  *
          *            version #5.00   06/01/00              *
          *                                                  *
          *    This code was developed by Eric J. Bylaska,   *
          *    and was based upon algorithms and code        *
          *    developed by the group of Prof. John H. Weare *
          *                                                  *
          ****************************************************
     >>>  JOB STARTED       AT Mon Nov 27 13:08:50 2000  <<<
          ================ input data ========================

 number of processors used:  1

 options:
      boundry conditions   = periodic    (version3)
      electron spin        = restricted
      exchange-correlation = Vosko et al parameterization

 elements involved in the cluster:
      1: C   mass no.:  12.0   core charge:  4.  lmax=2
             highest angular component      :  2
             local potential used           :  0
             number of non-local projections:  8
             cutoff =   0.800   0.850   0.850
      2: Si  mass no.:  28.0   core charge:  4.  lmax=2
             highest angular component      :  2
             local potential used           :  2
             number of non-local projections:  4
             cutoff =   1.059   1.286   1.286

 atomic composition:
     C :  2     Si:  1

 initial position of ions:
        1 Si (    0.00000    0.92308    0.00000 )
        2 C  (    1.24000   -1.07692    0.00000 )
        3 C  (   -1.24000   -1.07692    0.00000 )
       G.C.  (    0.00000   -0.41026    0.00000 )
      C.O.M. (    0.00000    0.00000    0.00000 )

 number of electrons: spin up=  6  spin down=  6 (fourier space)

 supercell:
      lattice: a1=<  20.000   0.000   0.000 >
               a2=<   0.000  20.000   0.000 >
               a3=<   0.000   0.000  20.000 >
               b1=<   0.314   0.000   0.000 >
               b2=<   0.000   0.314   0.000 >
               b3=<   0.000   0.000   0.314 >
      volume :     8000.0
      density cutoff=  7.106  fft= 24x 24x 24(     3562 waves     3562 per task)
      wavefnc cutoff=  7.106  fft= 24x 24x 24(     3562 waves     3562 per task)
      ewald summation: cut radius=    6.37  and  1
                        mandelung= 1.76011888

 technical parameters:
      time step=      5.80     fictacious mass=  400000.0
      tolerance=.100E-08 (energy)   0.100E-08 (density)   0.100E-03 (ion)





======================
= energy calculation =
======================


          ============ electron iteration ====================
     >>>  ITERATION STARTED AT Mon Nov 27 13:08:56 2000  <<<
      10   -0.1375155646E+02   -0.11781E-02    0.34010E-04
      20   -0.1375473619E+02   -0.12999E-03    0.11363E-04
      30   -0.1375532405E+02   -0.29157E-04    0.13363E-05
      40   -0.1375547785E+02   -0.72320E-05    0.55571E-06
      50   -0.1375552558E+02   -0.26267E-05    0.12910E-06
      60   -0.1375554198E+02   -0.81799E-06    0.62461E-07
      70   -0.1375554798E+02   -0.34044E-06    0.17322E-07
      80   -0.1375555025E+02   -0.11524E-06    0.85915E-08
      90   -0.1375555113E+02   -0.50619E-07    0.26292E-08
     100   -0.1375555148E+02   -0.17716E-07    0.12883E-08
     110   -0.1375555162E+02   -0.79613E-08    0.41905E-09
     120   -0.1375555168E+02   -0.28261E-08    0.20110E-09
     130   -0.1375555170E+02   -0.12833E-08    0.68184E-10
     140   -0.1375555170E+02   -0.98044E-09    0.30292E-10
  *** tolerance ok.     iteration terminated.
     >>>  ITERATION ENDED   AT Mon Nov 27 13:16:18 2000  <<<


          =============  summary of results  =================
 final position of ions:
        1 Si (    0.00000    0.92308    0.00000 )
        2 C  (    1.24000   -1.07692    0.00000 )
        3 C  (   -1.24000   -1.07692    0.00000 )
       G.C.  (    0.00000   -0.41026    0.00000 )
      C.O.M. (    0.00000    0.00000    0.00000 )

 number of electrons: spin up=    6.00000  down=    6.00000 (real space)

 total     energy    :  -0.1375555170E+02 (   -0.45852E+01/ion)
 total orbital energy:  -0.5419686316E+01 (   -0.90328E+00/electron)
 hartree   energy    :   0.1965581341E+02 (    0.32760E+01/electron)
 exc-corr  energy    :  -0.4588502288E+01 (   -0.76475E+00/electron)
 ion-ion   energy    :   0.9908523769E+01 (    0.33028E+01/ion)

 K.S. kinetic energy :   0.9008936615E+01 (    0.15015E+01/electron)
 K.S. V_l  energy    :  -0.4737834621E+02 (   -0.78964E+01/electron)
 K.S. V_nl energy    :  -0.3619770089E+00 (   -0.60330E-01/electron)
 K.S. V_Hart energy  :   0.3931162683E+02 (    0.65519E+01/electron)
 K.S. V_xc energy    :  -0.5999926545E+01 (   -0.99999E+00/electron)
 Virial Coefficient  :  -0.1601590015E+01

 orbital energies:
    -0.1531785E+00 (  -4.168eV)
    -0.3009242E+00 (  -8.189eV)
    -0.4080906E+00 ( -11.105eV)
    -0.4232952E+00 ( -11.519eV)
    -0.5096333E+00 ( -13.868eV)
    -0.9147214E+00 ( -24.891eV)

 Total PSPW energy   :  -0.1375555170E+02


=== Spin Contamination ===

 <Sexact^2> =   0.
 <S^2>      =   0.



== Center of Charge ==

spin up     (   -0.0192,   -0.3655,   -0.0001 )
spin down   (   -0.0192,   -0.3655,   -0.0001 )
     total  (   -0.0192,   -0.3655,   -0.0001 )
ionic       (    0.0000,   -0.4103,    0.0000 )


== Molecular Dipole ==

mu   =  (    0.2299,   -0.5373,    0.0012 ) au
|mu| =     0.5844 au,       1.4853 Debye


========================
= Gradient calculation =
========================


Translation force removed: (    0.00776    0.62634    0.00000)


          =============  Ion Gradients =================
 Ion Positions:
        1 Si (    0.00000    0.92308    0.00000 )
        2 C  (    1.24000   -1.07692    0.00000 )
        3 C  (   -1.24000   -1.07692    0.00000 )
 Ion Forces:
        1 Si (    0.00670    1.23245    0.00000 )
        2 C  (    0.46572   -1.40845    0.00000 )
        3 C  (   -0.48135   -1.46727    0.00000 )
      C.O.M. (    0.00000    0.00000    0.00000 )
          ===============================================
          |F|=     0.2470661631E+01





 *************************************************************
 **                                                         **
 **                  PSPW Mulliken analysis                 **
 **                                                         **
 ** Population analysis algorithm devloped by Ryoichi Kawai **
 **                                                         **
 **                   Mon Nov 27 13:16                      **
 **                                                         **
 *************************************************************


== EXPANSION COEFFICIENTS ==

ATOM       S            P            D            F
C  :   0.68653E+00  0.19338E+01
Si :   0.21344E+00  0.34796E+00


 ===============================================
 |  POPULATION ANALYSIS OF MOLECULAR ORBITALS  |
 ===============================================


------------------------------------------------


*** ORBITAL= 1***  SPIN=BOTH    SUM= 0.12180E+01 E=-0.15318E+00

NO  ATOM  L     POPULATION
 1   Si   0    0.08928    0.29880
 1   Si   1    0.68027   -0.21395    0.79655    0.00001
 2   C    0    0.02016   -0.14199
 2   C    1    0.09640   -0.08621   -0.29828    0.00000
 3   C    0    0.08113   -0.28484
 3   C    1    0.03275    0.16178   -0.08109    0.00000


=== DISTRIBUTION ===

     1(Si)   0.7696     2(C )   0.1166     3(C )   0.1139


== ANGULAR MOMENTUM POPULATIONS ===

      s         p         d         f
    0.1906    0.8094    0.0000    0.0000


------------------------------------------------


*** ORBITAL= 2***  SPIN=BOTH    SUM= 0.82427E+00 E=-0.30092E+00

NO  ATOM  L     POPULATION
 1   Si   0    0.04075    0.20186
 1   Si   1    0.34512    0.01039   -0.58738    0.00000
 2   C    0    0.08556   -0.29251
 2   C    1    0.21098   -0.39586    0.23298    0.00000
 3   C    0    0.10311   -0.32110
 3   C    1    0.21447    0.40109    0.23153    0.00000


=== DISTRIBUTION ===

     1(Si)   0.3859     2(C )   0.2965     3(C )   0.3176


== ANGULAR MOMENTUM POPULATIONS ===

      s         p         d         f
    0.2294    0.7706    0.0000    0.0000


------------------------------------------------


*** ORBITAL= 3***  SPIN=BOTH    SUM= 0.64755E+00 E=-0.40809E+00

NO  ATOM  L     POPULATION
 1   Si   0    0.51417    0.71705
 1   Si   1    0.00438    0.00666    0.06582    0.00002
 2   C    0    0.02415   -0.15539
 2   C    1    0.20606    0.22471    0.39442    0.00001
 3   C    0    0.03722   -0.19294
 3   C    1    0.21403   -0.21859    0.40773    0.00001


=== DISTRIBUTION ===

     1(Si)   0.5185     2(C )   0.2302     3(C )   0.2513


== ANGULAR MOMENTUM POPULATIONS ===

      s         p         d         f
    0.5755    0.4245    0.0000    0.0000


------------------------------------------------


*** ORBITAL= 4***  SPIN=BOTH    SUM= 0.76387E+00 E=-0.42330E+00

NO  ATOM  L     POPULATION
 1   Si   0    0.00000    0.00001
 1   Si   1    0.62450    0.00000    0.00000   -0.79026
 2   C    0    0.00000   -0.00001
 2   C    1    0.18350    0.00000    0.00001   -0.42836
 3   C    0    0.00000    0.00000
 3   C    1    0.19200    0.00000    0.00001   -0.43818


=== DISTRIBUTION ===

     1(Si)   0.6245     2(C )   0.1835     3(C )   0.1920


== ANGULAR MOMENTUM POPULATIONS ===

      s         p         d         f
    0.0000    1.0000    0.0000    0.0000


------------------------------------------------


*** ORBITAL= 5***  SPIN=BOTH    SUM= 0.21465E+01 E=-0.50963E+00

NO  ATOM  L     POPULATION
 1   Si   0    0.00000   -0.00197
 1   Si   1    0.28346    0.53240    0.00258    0.00000
 2   C    0    0.34710    0.58916
 2   C    1    0.01695    0.07337    0.10753    0.00000
 3   C    0    0.33197   -0.57617
 3   C    1    0.02051    0.07671   -0.12094    0.00000


=== DISTRIBUTION ===

     1(Si)   0.2835     2(C )   0.3641     3(C )   0.3525


== ANGULAR MOMENTUM POPULATIONS ===

      s         p         d         f
    0.6791    0.3209    0.0000    0.0000


------------------------------------------------


*** ORBITAL= 6***  SPIN=BOTH    SUM= 0.20072E+01 E=-0.91472E+00

NO  ATOM  L     POPULATION
 1   Si   0    0.05465   -0.23377
 1   Si   1    0.22177    0.00780    0.47086    0.00000
 2   C    0    0.31585   -0.56200
 2   C    1    0.03311    0.16743   -0.07121    0.00000
 3   C    0    0.33966   -0.58280
 3   C    1    0.03498   -0.17025   -0.07741    0.00000


=== DISTRIBUTION ===

     1(Si)   0.2764     2(C )   0.3490     3(C )   0.3746


== ANGULAR MOMENTUM POPULATIONS ===

      s         p         d         f
    0.7101    0.2899    0.0000    0.0000


 ========================================
 |   POPULATION ANALYSIS ON EACH ATOM   |
 ========================================


NO  ATOM  SPIN    TOTAL       s          p          d          f
 1   Si   UP      2.85835    0.69885    2.15951
 1   Si   DOWN    2.85835    0.69885    2.15951
 2   C    UP      1.53981    0.79282    0.74699
 2   C    DOWN    1.53981    0.79282    0.74699
 3   C    UP      1.60183    0.89309    0.70874
 3   C    DOWN    1.60183    0.89309    0.70874



=== TOTAL ANGULAR MOMENTUM POPULATION ===

 SPIN       s           p           d           f
  UP       39.75%      60.25%       0.00%       0.00% 
  UP       39.75%      60.25%       0.00%       0.00% 
 TOTAL     39.75%      60.25%       0.00%       0.00% 

 -----------------
 cputime in seconds
 prologue    :   5.79984
 main loop   :   442.805854
 epilogue    :   0.172846
 total       :   448.77854
 cputime/step:   0.756933084   ( 585 evalulations)

 -------------------------------
 Time spent doing:
   FFTs                       :   161.936304
   dot products               :   0.041008
   geodesic                   :   33.737752
   exchange correlation       :   39.532414
   local pseudopotentials     :   0.054616
   non-local pseudopotentials :   111.165934
   hartree potentials         :   1.394886
   structure factors          :   5.7299
   masking                    :   0.

     >>>  JOB COMPLETED     AT Mon Nov 27 13:16:19 2000  <<<

 Task  times  cpu:      448.0s     wall:      448.8s


                                NWChem Input Module
                                -------------------


 >>>> PSPW Parallel Module - steepest_descent <<<<
          ****************************************************
          *                                                  *
          *     Car-Parrinello microcluster calculation      *
          *                                                  *
          *     [     steepest descent minimization   ]      *
          *                                                  *
          *      [ NortWest Chemistry implementation ]       *
          *                                                  *
          *            version #5.00   06/01/99              *
          *                                                  *
          *    This code was developed by Eric J. Bylaska,   *
          *    and was based upon algorithms and code        *
          *    developed by the group of Prof. John H. Weare *
          *                                                  *
          ****************************************************
     >>>  JOB STARTED       AT Mon Nov 27 13:16:19 2000  <<<
          ================ input data ========================

 number of processors used:  1

 options:
      ionic motion         = no
      boundry conditions   = periodic    (version3)
      electron spin        = restricted
      exchange-correlation = Vosko et al parameterization

 elements involved in the cluster:
      1: C   mass no.:  12.0   core charge:  4.  lmax=2
             highest angular component      :  2
             local potential used           :  0
             number of non-local projections:  8
             cutoff =   0.800   0.850   0.850
      2: Si  mass no.:  28.0   core charge:  4.  lmax=2
             highest angular component      :  2
             local potential used           :  2
             number of non-local projections:  4
             cutoff =   1.059   1.286   1.286

 atomic composition:
     C :  2     Si:  1

 initial position of ions:
        1 Si (    0.00000    0.92308    0.00000 )
        2 C  (    1.24000   -1.07692    0.00000 )
        3 C  (   -1.24000   -1.07692    0.00000 )
       G.C.  (    0.00000   -0.41026    0.00000 )
      C.O.M. (    0.00000    0.00000    0.00000 )

 number of electrons: spin up=  6  spin down=  6 ( fourier space)

 supercell:
      lattice: a1=<  20.000   0.000   0.000 >
               a2=<   0.000  20.000   0.000 >
               a3=<   0.000   0.000  20.000 >
               b1=<   0.314   0.000   0.000 >
               b2=<   0.000   0.314   0.000 >
               b3=<   0.000   0.000   0.314 >
      volume :     8000.0
      density cutoff=  7.106  fft= 24x 24x 24(     3562 waves     3562 per task)
      wavefnc cutoff=  7.106  fft= 24x 24x 24(     3562 waves     3562 per task)
      ewald summation: cut radius=    6.37  and  1
                        mandelung= 1.76011888

 technical parameters:
      time step=     51.80     fictacious mass=  400000.0
      tolerance=.100E-08 (energy)   0.100E-08 (electron)   0.100E-03 (ion)



          ================ iteration =========================
     >>>  ITERATION STARTED AT Mon Nov 27 13:16:23 2000  <<<
      10   -0.1375555171E+02   -0.26555E-01    0.91132E-11    0.00000E+00
      20   -0.1375555171E+02   -0.70873E-12    0.72196E-11    0.00000E+00
  *** tolerance ok.     iteration terminated.
     >>>  ITERATION ENDED   AT Mon Nov 27 13:16:39 2000  <<<



          =============  summary of results  =================
 final position of ions:
        1 Si (    0.00000    0.92308    0.00000 )
        2 C  (    1.24000   -1.07692    0.00000 )
        3 C  (   -1.24000   -1.07692    0.00000 )
       G.C.  (    0.00000   -0.41026    0.00000 )
      C.O.M. (    0.00000    0.00000    0.00000 )

 number of electrons: spin up=    6.00000  down=    6.00000 (real space)

 total     energy    :  -0.1375555171E+02 (   -0.45852E+01/ion)
 total orbital energy:  -0.5419701799E+01 (   -0.90328E+00/electron)
 hartree   energy    :   0.1965579705E+02 (    0.32760E+01/electron)
 exc-corr  energy    :  -0.4588499491E+01 (   -0.76475E+00/electron)
 ion-ion   energy    :   0.9908523769E+01 (    0.33028E+01/ion)

 K.S. kinetic energy :   0.9008925199E+01 (    0.15015E+01/electron)
 K.S. V_l  energy    :  -0.4737832381E+02 (   -0.78964E+01/electron)
 K.S. V_nl energy    :  -0.3619744180E+00 (   -0.60329E-01/electron)
 K.S. V_Hart energy  :   0.3931159409E+02 (    0.65519E+01/electron)
 K.S. V_xc energy    :  -0.5999922863E+01 (   -0.99999E+00/electron)
 Virial Coefficient  :  -0.1601592496E+01

 orbital energies:
    -0.1531790E+00 (  -4.168eV)
    -0.3009255E+00 (  -8.189eV)
    -0.4080917E+00 ( -11.105eV)
    -0.4232966E+00 ( -11.519eV)
    -0.5096348E+00 ( -13.868eV)
    -0.9147233E+00 ( -24.891eV)

 Total PSPW energy   :  -0.1375555171E+02


=== Spin Contamination ===

 <Sexact^2> =   0.
 <S^2>      =   0.



== Center of Charge ==

spin up     (   -0.0192,   -0.3655,   -0.0001 )
spin down   (   -0.0192,   -0.3655,   -0.0001 )
     total  (   -0.0192,   -0.3655,   -0.0001 )
ionic       (    0.0000,   -0.4103,    0.0000 )


== Molecular Dipole ==

mu   =  (    0.2299,   -0.5373,    0.0012 ) au
|mu| =     0.5844 au,       1.4853 Debye



 *************************************************************
 **                                                         **
 **                  PSPW Mulliken analysis                 **
 **                                                         **
 ** Population analysis algorithm devloped by Ryoichi Kawai **
 **                                                         **
 **                   Mon Nov 27 13:16                      **
 **                                                         **
 *************************************************************


== EXPANSION COEFFICIENTS ==

ATOM       S            P            D            F
C  :   0.68653E+00  0.19338E+01
Si :   0.21344E+00  0.34796E+00


 ===============================================
 |  POPULATION ANALYSIS OF MOLECULAR ORBITALS  |
 ===============================================


------------------------------------------------


*** ORBITAL= 1***  SPIN=BOTH    SUM= 0.12180E+01 E=-0.15318E+00

NO  ATOM  L     POPULATION
 1   Si   0    0.08929    0.29881
 1   Si   1    0.68027   -0.21394    0.79655    0.00000
 2   C    0    0.02016   -0.14200
 2   C    1    0.09640   -0.08621   -0.29828    0.00000
 3   C    0    0.08113   -0.28484
 3   C    1    0.03275    0.16177   -0.08110    0.00000


=== DISTRIBUTION ===

     1(Si)   0.7696     2(C )   0.1166     3(C )   0.1139


== ANGULAR MOMENTUM POPULATIONS ===

      s         p         d         f
    0.1906    0.8094    0.0000    0.0000


------------------------------------------------


*** ORBITAL= 2***  SPIN=BOTH    SUM= 0.82427E+00 E=-0.30093E+00

NO  ATOM  L     POPULATION
 1   Si   0    0.04075   -0.20186
 1   Si   1    0.34512   -0.01039    0.58738    0.00000
 2   C    0    0.08556    0.29251
 2   C    1    0.21098    0.39586   -0.23298    0.00000
 3   C    0    0.10311    0.32110
 3   C    1    0.21447   -0.40109   -0.23152    0.00000


=== DISTRIBUTION ===

     1(Si)   0.3859     2(C )   0.2965     3(C )   0.3176


== ANGULAR MOMENTUM POPULATIONS ===

      s         p         d         f
    0.2294    0.7706    0.0000    0.0000


------------------------------------------------


*** ORBITAL= 3***  SPIN=BOTH    SUM= 0.64755E+00 E=-0.40809E+00

NO  ATOM  L     POPULATION
 1   Si   0    0.51416    0.71705
 1   Si   1    0.00438    0.00666    0.06582    0.00001
 2   C    0    0.02415   -0.15540
 2   C    1    0.20606    0.22471    0.39442    0.00000
 3   C    0    0.03722   -0.19293
 3   C    1    0.21403   -0.21859    0.40773    0.00001


=== DISTRIBUTION ===

     1(Si)   0.5185     2(C )   0.2302     3(C )   0.2513


== ANGULAR MOMENTUM POPULATIONS ===

      s         p         d         f
    0.5755    0.4245    0.0000    0.0000


------------------------------------------------


*** ORBITAL= 4***  SPIN=BOTH    SUM= 0.76387E+00 E=-0.42330E+00

NO  ATOM  L     POPULATION
 1   Si   0    0.00000    0.00001
 1   Si   1    0.62450    0.00000    0.00000   -0.79026
 2   C    0    0.00000    0.00000
 2   C    1    0.18350    0.00000    0.00000   -0.42836
 3   C    0    0.00000    0.00000
 3   C    1    0.19200    0.00000    0.00000   -0.43818


=== DISTRIBUTION ===

     1(Si)   0.6245     2(C )   0.1835     3(C )   0.1920


== ANGULAR MOMENTUM POPULATIONS ===

      s         p         d         f
    0.0000    1.0000    0.0000    0.0000


------------------------------------------------


*** ORBITAL= 5***  SPIN=BOTH    SUM= 0.21465E+01 E=-0.50963E+00

NO  ATOM  L     POPULATION
 1   Si   0    0.00000   -0.00197
 1   Si   1    0.28346    0.53240    0.00258    0.00000
 2   C    0    0.34710    0.58916
 2   C    1    0.01695    0.07337    0.10753    0.00000
 3   C    0    0.33197   -0.57617
 3   C    1    0.02051    0.07671   -0.12093    0.00000


=== DISTRIBUTION ===

     1(Si)   0.2835     2(C )   0.3641     3(C )   0.3525


== ANGULAR MOMENTUM POPULATIONS ===

      s         p         d         f
    0.6791    0.3209    0.0000    0.0000


------------------------------------------------


*** ORBITAL= 6***  SPIN=BOTH    SUM= 0.20072E+01 E=-0.91472E+00

NO  ATOM  L     POPULATION
 1   Si   0    0.05465   -0.23377
 1   Si   1    0.22177    0.00780    0.47085    0.00000
 2   C    0    0.31585   -0.56200
 2   C    1    0.03311    0.16743   -0.07121    0.00000
 3   C    0    0.33965   -0.58280
 3   C    1    0.03498   -0.17025   -0.07741    0.00000


=== DISTRIBUTION ===

     1(Si)   0.2764     2(C )   0.3490     3(C )   0.3746


== ANGULAR MOMENTUM POPULATIONS ===

      s         p         d         f
    0.7102    0.2898    0.0000    0.0000


 ========================================
 |   POPULATION ANALYSIS ON EACH ATOM   |
 ========================================


NO  ATOM  SPIN    TOTAL       s          p          d          f
 1   Si   UP      2.85835    0.69885    2.15950
 1   Si   DOWN    2.85835    0.69885    2.15950
 2   C    UP      1.53982    0.79283    0.74699
 2   C    DOWN    1.53982    0.79283    0.74699
 3   C    UP      1.60183    0.89309    0.70874
 3   C    DOWN    1.60183    0.89309    0.70874



=== TOTAL ANGULAR MOMENTUM POPULATION ===

 SPIN       s           p           d           f
  UP       39.75%      60.25%       0.00%       0.00% 
  UP       39.75%      60.25%       0.00%       0.00% 
 TOTAL     39.75%      60.25%       0.00%       0.00% 

 -----------------
 cputime in seconds
 prologue    :   4.666492
 main loop   :   15.2405
 epilogue    :   0.234524
 total       :   20.141516
 cputime/step:   0.762025

 -------------------------------
 Time spent doing:
   FFTs                       :   5.694428
   dot products               :   0.000118
   orthonormalization         :   1.320382
   exchange correlation       :   1.364944
   local pseudopotentials     :   0.542518
   non-local pseudopotentials :   3.904876
   hartree potentials         :   0.039728
   structure factors          :   0.360748
   masking                    :   0.

     >>>  JOB COMPLETED     AT Mon Nov 27 13:16:39 2000  <<<

 Task  times  cpu:       20.1s     wall:       20.1s


                                NWChem Input Module
                                -------------------


 >>>> PSPW Serial Module - v_wavefunction_initializer <<<<
  JOB HAS BEEN COMPLETED.  CODE= 0
     >>>  JOB COMPLETED     AT Mon Nov 27 13:16:39 2000  <<<

 Task  times  cpu:        0.0s     wall:        0.0s


                                NWChem Input Module
                                -------------------


 >>>> PSPW Parallel Module - Car-Parrinello <<<<
          ****************************************************
          *                                                  *
          *     Car-Parrinello microcluster calculation      *
          *                                                  *
          *      [   extended Lagrangian molecular   ]       *
          *      [        dynamics simulation        ]       *
          *                                                  *
          *      [ NortWest Chemistry implementation ]       *
          *                                                  *
          *            version #5.00   06/01/99              *
          *                                                  *
          *    This code was developed by Eric J. Bylaska,   *
          *    and was based upon algorithms and code        *
          *    developed by the group of Prof. John H. Weare *
          *                                                  *
          ****************************************************
     >>>  JOB STARTED       AT Mon Nov 27 13:16:39 2000  <<<
          ================ input data ========================

 number of processors used:  1

 options:
      boundry conditions   = periodic    (version3)
      electron spin        = restricted
      exchange-correlation = Vosko et al parameterization

 elements involved in the cluster:
      1: C   mass no.:  12.0   core charge:  4.  lmax=2
             highest angular component      :  2
             local potential used           :  0
             number of non-local projections:  8
             cutoff =   0.800   0.850   0.850
      2: Si  mass no.:  28.0   core charge:  4.  lmax=2
             highest angular component      :  2
             local potential used           :  2
             number of non-local projections:  4
             cutoff =   1.059   1.286   1.286

 atomic composition:
     C :  2     Si:  1

 initial position of ions:
        1 Si (    0.00000    0.92308    0.00000 )
        2 C  (    1.24000   -1.07692    0.00000 )
        3 C  (   -1.24000   -1.07692    0.00000 )
       G.C.  (    0.00000   -0.41026    0.00000 )
      C.O.M. (    0.00000    0.00000    0.00000 )

 initial velocity of ions:
        1 Si (    0.00000    0.00000    0.00000 )
        2 C  (    0.00000    0.00000    0.00000 )
        3 C  (    0.00000    0.00000    0.00000 )
       G.C.  (    0.00000    0.00000    0.00000 )
      C.O.M. (    0.00000    0.00000    0.00000 )

 number of electrons: spin up=  6  spin down=  6 (fourier space)

 supercell:
      lattice: a1=<  20.000   0.000   0.000 >
               a2=<   0.000  20.000   0.000 >
               a3=<   0.000   0.000  20.000 >
               b1=<   0.314   0.000   0.000 >
               b2=<   0.000   0.314   0.000 >
               b3=<   0.000   0.000   0.314 >
      volume :     8000.0
      density cutoff=  7.106  fft= 24x 24x 24(     3562 waves     3562 per task)
      wavefnc cutoff=  7.106  fft= 24x 24x 24(     3562 waves     3562 per task)
      ewald summation: cut radius=    6.37  and  1
                        mandelung= 1.76011888

 technical parameters:
      time step=      5.00     fictacious mass=     500.0
      cooling/heatting rates:  0.10000E+01 (psi)   0.10000E+01 (ion)
      initial kinetic energy:  0.00000E+00 (psi)   0.00000E+00 (ion)
                                                   0.00000E+00 (c.o.m.)
      after scaling:           0.00000E+00 (psi)   0.00000E+00 (ion)
      increased energy:        0.00000E+00 (psi)   0.00000E+00 (ion)

 Constant Energy Simulation                     



          ================ iteration =========================
     >>>  ITERATION STARTED AT Mon Nov 27 13:16:45 2000  <<<
      10  -0.1375919686E+02  -0.1390972002E+02   0.34931E-02   0.14703E+00
      20  -0.1376779449E+02  -0.1418761351E+02   0.11964E-01   0.40785E+00
      30  -0.1377246363E+02  -0.1438115879E+02   0.16658E-01   0.59204E+00
      40  -0.1377459322E+02  -0.1447283530E+02   0.18821E-01   0.67942E+00
      50  -0.1377426364E+02  -0.1449467866E+02   0.18508E-01   0.70191E+00
      60  -0.1377319054E+02  -0.1447054773E+02   0.17463E-01   0.67989E+00
      70  -0.1377137969E+02  -0.1443151876E+02   0.15668E-01   0.64447E+00
      80  -0.1376931104E+02  -0.1439594678E+02   0.13600E-01   0.61304E+00
      90  -0.1376703464E+02  -0.1436529253E+02   0.11321E-01   0.58694E+00
     100  -0.1376683973E+02  -0.1433866368E+02   0.11126E-01   0.56070E+00
 *** arived at the Maximum iiteration.   terminated.
     >>>  ITERATION ENDED   AT Mon Nov 27 13:18:29 2000  <<<



          =============  summary of results  =================
 final position of ions:
        1 Si (    0.02744    2.49774    0.00000 )
        2 C  (    1.82048   -2.51624    0.00000 )
        3 C  (   -1.85927   -2.71357    0.00000 )
       G.C.  (   -0.00378   -0.91069    0.00000 )
      C.O.M. (    0.00582    0.13806    0.00000 )
 final velocity of ions:
        1 Si (    0.00010    0.00347    0.00000 )
        2 C  (    0.00026   -0.00314    0.00000 )
        3 C  (   -0.00041   -0.00360    0.00000 )
       G.C.  (   -0.00002   -0.00109    0.00000 )
      C.O.M. (    0.00002    0.00032    0.00000 )

 number of electrons: spin up=    6.00000  down=    6.00000 (real space)

 total     energy    :  -0.1433866368E+02 (   -0.47796E+01/ion)
 total orbital energy:  -0.4006637251E+01 (   -0.66777E+00/electron)
 hartree   energy    :   0.1180656246E+02 (    0.19678E+01/electron)
 exc-corr  energy    :  -0.3713562246E+01 (   -0.61893E+00/electron)
 ion-ion   energy    :   0.3397001578E+00 (    0.11323E+00/ion)

 Kinetic energy (elc)    :   0.1112648619E-01 (    0.18544E-02/elc)
 Kinetic energy (ion)    :   0.5606974625E+00 (    0.18690E+00/ion)

 final kinetic energy:   0.11126E-01 (psi)   0.56070E+00 (ion)
                                             0.47307E-02 (c.o.m.)
 Temperature :        8754.8 K (elc)
 Temperature :      111790.8 K (ion)
             :        2443.2 K (c.o.m.)

 orbital energies:
    -0.1751817E+00 (  -4.767eV)
    -0.1892872E+00 (  -5.151eV)
    -0.2098973E+00 (  -5.712eV)
    -0.4181328E+00 ( -11.378eV)
    -0.4370146E+00 ( -11.892eV)
    -0.5738050E+00 ( -15.614eV)

 Total PSPW energy   :  -0.1433866368E+02


=== Spin Contamination ===

 <Sexact^2> =   0.
 <S^2>      =   0.



== Center of Charge ==

spin up     (    0.0052,   -1.0262,   -0.0001 )
spin down   (    0.0052,   -1.0262,   -0.0001 )
     total  (    0.0052,   -1.0262,   -0.0001 )
ionic       (   -0.0038,   -0.9107,    0.0000 )


== Molecular Dipole ==

mu   =  (   -0.1079,    1.3857,    0.0013 ) au
|mu| =     1.3899 au,       3.5325 Debye

 ===== Calculating pair distribution function ====


 ===== Calculating velocity auto correlation ====


 -----------------
 cputime in seconds
 prologue    :   5.81611
 main loop   :   104.37288
 epilogue    :   0.79884
 total       :   110.98783
 cputime/step:   1.0437288

 -------------------------------
 Time spent doing:
   FFTs                       :   28.009266
   dot products               :   0.537576
   orthonormalization         :   7.11719
   exchange correlation       :   6.973788
   local pseudopotentials     :   3.310686
   non-local pseudopotentials :   42.399948
   hartree potentials         :   0.138924
   structure factors          :   3.387278
   masking                    :   0.

     >>>  JOB COMPLETED     AT Mon Nov 27 13:18:30 2000  <<<

 Task  times  cpu:      110.2s     wall:      111.0s


                                NWChem Input Module
                                -------------------



          ------
          auto-z
          ------


                         Geometry "geometry" -> "        "
                         ---------------------------------

 Output coordinates in a.u. (scale by  1.000000000 to convert to a.u.)

  No.       Tag          Charge          X              Y              Z
 ---- ---------------- ---------- -------------- -------------- --------------
    1 Si                  14.0000     0.00000000     0.92307692     0.00000000
    2 C                    6.0000     1.24000000    -1.07692308     0.00000000
    3 C                    6.0000    -1.24000000    -1.07692308     0.00000000

      Atomic Mass 
      ----------- 

      Si                27.976930
      C                 12.000000


 Effective nuclear repulsion energy (a.u.)      85.9079551361

            Nuclear Dipole moment (a.u.) 
            ----------------------------
        X                 Y               Z
 ---------------- ---------------- ----------------
     0.0000000000     0.0000000000     0.0000000000



                                Z-matrix (autoz)
                                -------- 

 Units are Angstrom for bonds and degrees for angles

      Type          Name      I     J     K     L     M      Value
      ----------- --------  ----- ----- ----- ----- ----- ----------
    1 Stretch                  1     2                       1.24527
    2 Stretch                  1     3                       1.24527
    3 Stretch                  2     3                       1.31236
    4 Bend                     1     2     3                58.20109
    5 Bend                     1     3     2                58.20109
    6 Bend                     2     1     3                63.59783

 ==============================================================================
                                internuclear distances
 ------------------------------------------------------------------------------
       center one      |      center two      | atomic units |       a.u.
 ------------------------------------------------------------------------------
    2 C                |   1 Si               |     2.35321  |     2.35321
    3 C                |   1 Si               |     2.35321  |     2.35321
    3 C                |   2 C                |     2.48000  |     2.48000
 ------------------------------------------------------------------------------
                         number of included internuclear distances:          3
 ==============================================================================



 ==============================================================================
                                 internuclear angles
 ------------------------------------------------------------------------------
        center 1       |       center 2       |       center 3       |  degrees
 ------------------------------------------------------------------------------
    2 C                |   1 Si               |   3 C                |    63.60
    2 C                |   1 Si               |   3 C                |    63.60
    3 C                |   1 Si               |   2 C                |    63.60
 ------------------------------------------------------------------------------
                            number of included internuclear angles:          3
 ==============================================================================



 >>>> PSPW Parallel Module - Car-Parrinello <<<<
          ****************************************************
          *                                                  *
          *     Car-Parrinello microcluster calculation      *
          *                                                  *
          *      [   extended Lagrangian molecular   ]       *
          *      [        dynamics simulation        ]       *
          *                                                  *
          *      [ NortWest Chemistry implementation ]       *
          *                                                  *
          *            version #5.00   06/01/99              *
          *                                                  *
          *    This code was developed by Eric J. Bylaska,   *
          *    and was based upon algorithms and code        *
          *    developed by the group of Prof. John H. Weare *
          *                                                  *
          ****************************************************
     >>>  JOB STARTED       AT Mon Nov 27 13:18:30 2000  <<<
          ================ input data ========================

 number of processors used:  1

 options:
      boundry conditions   = periodic    (version3)
      electron spin        = restricted
      exchange-correlation = Vosko et al parameterization

 elements involved in the cluster:
      1: C   mass no.:  12.0   core charge:  4.  lmax=2
             highest angular component      :  2
             local potential used           :  0
             number of non-local projections:  8
             cutoff =   0.800   0.850   0.850
      2: Si  mass no.:  28.0   core charge:  4.  lmax=2
             highest angular component      :  2
             local potential used           :  2
             number of non-local projections:  4
             cutoff =   1.059   1.286   1.286

 atomic composition:
     C :  2     Si:  1

 initial position of ions:
        1 Si (    0.00000    0.92308    0.00000 )
        2 C  (    1.24000   -1.07692    0.00000 )
        3 C  (   -1.24000   -1.07692    0.00000 )
       G.C.  (    0.00000   -0.41026    0.00000 )
      C.O.M. (    0.00000    0.00000    0.00000 )

 initial velocity of ions:
        1 Si (    0.00000    0.00000    0.00000 )
        2 C  (    0.00000    0.00000    0.00000 )
        3 C  (    0.00000    0.00000    0.00000 )
       G.C.  (    0.00000    0.00000    0.00000 )
      C.O.M. (    0.00000    0.00000    0.00000 )

 number of electrons: spin up=  6  spin down=  6 (fourier space)

 supercell:
      lattice: a1=<  20.000   0.000   0.000 >
               a2=<   0.000  20.000   0.000 >
               a3=<   0.000   0.000  20.000 >
               b1=<   0.314   0.000   0.000 >
               b2=<   0.000   0.314   0.000 >
               b3=<   0.000   0.000   0.314 >
      volume :     8000.0
      density cutoff=  7.106  fft= 24x 24x 24(     3562 waves     3562 per task)
      wavefnc cutoff=  7.106  fft= 24x 24x 24(     3562 waves     3562 per task)
      ewald summation: cut radius=    6.37  and  1
                        mandelung= 1.76011888

 technical parameters:
      time step=      5.00     fictacious mass=     500.0
      cooling/heatting rates:  0.10000E+01 (psi)   0.10000E+01 (ion)
      initial kinetic energy:  0.00000E+00 (psi)   0.00000E+00 (ion)
                                                   0.00000E+00 (c.o.m.)
      after scaling:           0.00000E+00 (psi)   0.00000E+00 (ion)
      increased energy:        0.00000E+00 (psi)   0.00000E+00 (ion)

 Nose-Hoover Simulation - thermostat parameters:
     Te =  298.15 Qe =.546E+00 2*pi/we=.100E+03 Ee0=.538E-03
     Tr =  298.15 Qr =.143E+01 2*pi/wr=.100E+03 Er0=.142E-02



          ================ iteration =========================
     >>>  ITERATION STARTED AT Mon Nov 27 13:18:36 2000  <<<
      10  -0.1375360900E+02  -0.1380470731E+02   0.10121E-02   0.17033E-02
      20  -0.1375319740E+02  -0.1383543820E+02   0.56920E-03   0.12443E-02
      30  -0.1375385863E+02  -0.1386365675E+02   0.40326E-03   0.13436E-02
      40  -0.1375380151E+02  -0.1389024705E+02   0.46960E-03   0.13143E-02
      50  -0.1375331322E+02  -0.1391519555E+02   0.71420E-03   0.13199E-02
      60  -0.1375375322E+02  -0.1394037895E+02   0.47509E-03   0.12893E-02
      70  -0.1375385895E+02  -0.1396415724E+02   0.45873E-03   0.13273E-02
      80  -0.1375350619E+02  -0.1398654610E+02   0.65728E-03   0.13251E-02
      90  -0.1375372044E+02  -0.1400885535E+02   0.50674E-03   0.13069E-02
     100  -0.1375387590E+02  -0.1403019196E+02   0.47410E-03   0.13310E-02
 *** arived at the Maximum iiteration.   terminated.
     >>>  ITERATION ENDED   AT Mon Nov 27 13:20:21 2000  <<<



          =============  summary of results  =================
 final position of ions:
        1 Si (    0.00073    1.00624    0.00000 )
        2 C  (    1.28660   -1.15755    0.00000 )
        3 C  (   -1.28692   -1.16440    0.00000 )
       G.C.  (    0.00014   -0.43857    0.00000 )
      C.O.M. (    0.00032    0.00599    0.00000 )
 final velocity of ions:
        1 Si (    0.00000    0.00016    0.00000 )
        2 C  (    0.00008   -0.00015    0.00000 )
        3 C  (   -0.00008   -0.00016    0.00000 )
       G.C.  (    0.00000   -0.00005    0.00000 )
      C.O.M. (    0.00000    0.00001    0.00000 )

 number of electrons: spin up=    6.00000  down=    6.00000 (real space)

 total     energy    :  -0.1403019196E+02 (   -0.46767E+01/ion)
 total orbital energy:  -0.5296296967E+01 (   -0.88272E+00/electron)
 hartree   energy    :   0.1889221661E+02 (    0.31487E+01/electron)
 exc-corr  energy    :  -0.4481916745E+01 (   -0.74699E+00/electron)
 ion-ion   energy    :   0.8780825164E+01 (    0.29269E+01/ion)

 Kinetic energy (elc)    :   0.4740996304E-03 (    0.79017E-04/elc)
 Kinetic energy (ion)    :   0.1331049452E-02 (    0.44368E-03/ion)
 thermostat energy (elc) :  -0.8572913196E-03 (   -0.14288E-03/elc)
 thermostat energy (ion) :   0.2753682023E+00 (    0.91789E-01/ion)

 final kinetic energy:   0.47410E-03 (psi)   0.13310E-02 (ion)
                                             0.64138E-05 (c.o.m.)
 Temperature :         362.5 K (elc)
 Temperature :         343.3 K (ion)
             :           4.7 K (c.o.m.)

 orbital energies:
    -0.1600915E+00 (  -4.356eV)
    -0.2954087E+00 (  -8.039eV)
    -0.3938406E+00 ( -10.717eV)
    -0.3994747E+00 ( -10.870eV)
    -0.5044334E+00 ( -13.726eV)
    -0.8948996E+00 ( -24.352eV)

 Total PSPW energy   :  -0.1403019196E+02


=== Spin Contamination ===

 <Sexact^2> =   0.
 <S^2>      =   0.



== Center of Charge ==

spin up     (   -0.0152,   -0.3933,   -0.0001 )
spin down   (   -0.0152,   -0.3933,   -0.0001 )
     total  (   -0.0152,   -0.3933,   -0.0001 )
ionic       (    0.0001,   -0.4386,    0.0000 )


== Molecular Dipole ==

mu   =  (    0.1844,   -0.5434,    0.0012 ) au
|mu| =     0.5738 au,       1.4585 Debye

 ===== Calculating pair distribution function ====


 ===== Calculating velocity auto correlation ====


 -----------------
 cputime in seconds
 prologue    :   5.919792
 main loop   :   105.511068
 epilogue    :   0.219268
 total       :   111.650128
 cputime/step:   1.05511068

 -------------------------------
 Time spent doing:
   FFTs                       :   28.009554
   dot products               :   0.538744
   orthonormalization         :   7.113632
   exchange correlation       :   6.976348
   local pseudopotentials     :   3.313086
   non-local pseudopotentials :   42.408846
   hartree potentials         :   0.13868
   structure factors          :   3.388548
   masking                    :   0.

     >>>  JOB COMPLETED     AT Mon Nov 27 13:20:22 2000  <<<

 Task  times  cpu:      111.2s     wall:      111.7s


                                NWChem Input Module
                                -------------------


 Summary of allocated global arrays
-----------------------------------
  No active global arrays



                         GA Statistics for process    0
                         ------------------------------

       create   destroy   get      put      acc     scatter   gather  read&inc
calls:    0        0        0        0        0        0        0        0     
bytes total:             0.00e+00 0.00e+00 0.00e+00 0.00e+00 0.00e+00 0.00e+00
bytes remote:            0.00e+00 0.00e+00 0.00e+00 0.00e+00 0.00e+00 0.00e+00
Max memory consumed for GA by this process: 0 bytes

MA_summarize_allocated_blocks: starting scan ...
MA_summarize_allocated_blocks: scan completed: 0 heap blocks, 0 stack blocks
MA usage statistics:

	allocation statistics:
					      heap	     stack
					      ----	     -----
	current number of blocks	         0	         0
	maximum number of blocks	        80	        23
	current total bytes		         0	         0
	maximum total bytes		   6773436	   2093404
	maximum total K-bytes		      6774	      2094
	maximum total M-bytes		         7	         3



                                  ACKNOWLEDGEMENT
                                  ---------------

            Please use the following acknowledgement where appropriate 
            for results obtained with NWChem:

            High Performance Computational Chemistry Group, "NWChem, A
            Computational Chemistry Package for Parallel Computers, 
            Version 4.0" (2000), Pacific Northwest National Laboratory,
            Richland, Washington 99352-0999, USA.


                                     CITATION
                                     --------

            Please use the following citation when publishing results
            obtained with NWChem:

            Anchell, J.; Apra, E.; Bernholdt, D.; Borowski, P.; Bylaska, E.; 
            Clark, T.; Clerc, D.; Dachsel, H.; de Jong, W.A.; Deegan, M.; 
            Dupuis, M.; Dyall, K.; Elwood, D.; Fann, G.; Fruchtl, H.; 
            Glendenning, E.; Gutowski, M.; Harrison, R.; Hess, A.; 
            Jaffe, J.; Johnson, B.; Ju, J.; Kendall, R.; Kobayashi, R.; 
            Kutteh, R.; Lin, Z.; Littlefield, R.; Long, X.; Meng, B.; 
            Nichols, J.; Nieplocha, J.; Rendall, A.; Rosing, M.;Sandrone, G; 
            Stave, M.; Straatsma, T.;Taylor, H.; Thomas, G.; van Lenthe, J.; 
            Windus, T; Wolinski, K.; Wong, A.; Zhang, Z.; "NWChem, A 
            Computational Chemistry Package for Parallel Computers, 
            Version 4.0" (1999),
                      Pacific Northwest National Laboratory,
                      Richland, Washington 99352-0999, USA.


                                    REFERENCES
                                    ----------

            Where appropriate, please cite the following reference(s) 
            when publishing results obtained with NWChem:


     1. D. E. Bernholdt, E. Apra, H. A. Fruchtl, M.F. Guest, R. J. Harrison, 
        R. A. Kendall, R. A. Kutteh, X. Long, J. B. Nicholas, J. A. Nichols, 
        H. L. Taylor, A. T. Wong, G. I. Fann, R. J. Littlefield and J. Nieplocha,
        "Parallel Computational Chemistry Made Easier: The Development of NWChem,"
        Int. J. Quantum Chem. Symposium  29, 475-483 (1995).



 Total times  cpu:      789.1s     wall:      791.7s
