 argument  1 = /home/edo/nnnn/nwchem/QA/tests/metagga_li4h4_0_m06_m06/metagga_li4h4_0_m06_m06.nw
  NWChem w/ OpenMP: maximum threads =  1
 


============================== echo of input deck ==============================
echo
start metagga_dat
geometry noautosym
   li           -0.86951255    -0.86951258    -0.86951257
   h            -0.94323913    -0.94323915     0.94323910
   h            -0.94323915     0.94323911    -0.94323918
   h             0.94323909    -0.94323917    -0.94323918
   li            0.86951263     0.86951263    -0.86951264
   li            0.86951266    -0.86951265     0.86951266
   li           -0.86951267     0.86951268     0.86951268
   h             0.94323913     0.94323913     0.94323914
end

basis
  * library "6-311++G(2d,2p)"
end

dft
  direct
  xc xm06 cm06
  maxiter 1000
end

driver
  clear
  maxiter 100
end

task dft optimize
task dft frequencies numerical
================================================================================


                                         
                                         
 
 
              Northwest Computational Chemistry Package (NWChem) 6.6
              ------------------------------------------------------
 
 
                    Environmental Molecular Sciences Laboratory
                       Pacific Northwest National Laboratory
                                Richland, WA 99352
 
                              Copyright (c) 1994-2015
                       Pacific Northwest National Laboratory
                            Battelle Memorial Institute
 
             NWChem is an open-source computational chemistry package
                        distributed under the terms of the
                      Educational Community License (ECL) 2.0
             A copy of the license is included with this distribution
                              in the LICENSE.TXT file
 
                                  ACKNOWLEDGMENT
                                  --------------

            This software and its documentation were developed at the
            EMSL at Pacific Northwest National Laboratory, a multiprogram
            national laboratory, operated for the U.S. Department of Energy
            by Battelle under Contract Number DE-AC05-76RL01830. Support
            for this work was provided by the Department of Energy Office
            of Biological and Environmental Research, Office of Basic
            Energy Sciences, and the Office of Advanced Scientific Computing.


           Job information
           ---------------

    hostname        = g791
    program         = /home/edo/nnnn/nwchem/bin/LINUX64/nwchem
    date            = Mon Sep 11 18:52:27 2017

    compiled        = Mon_Sep_11_18:06:43_2017
    source          = /home/edo/nnnn/nwchem
    nwchem branch   = Development
    nwchem revision = 29420
    ga revision     = N/A
    input           = /home/edo/nnnn/nwchem/QA/tests/metagga_li4h4_0_m06_m06/metagga_li4h4_0_m06_m06.nw
    prefix          = metagga_dat.
    data base       = /scratch/metagga_dat.db
    status          = startup
    nproc           =       30
    time left       =     -1s



           Memory information
           ------------------

    heap     =   13107194 doubles =    100.0 Mbytes
    stack    =   13107199 doubles =    100.0 Mbytes
    global   =   26214400 doubles =    200.0 Mbytes (distinct from heap & stack)
    total    =   52428793 doubles =    400.0 Mbytes
    verify   = yes
    hardfail = no 


           Directory information
           ---------------------
 
  0 permanent = /scratch
  0 scratch   = /scratch
 
 
                     0  ppn                     15
                     0  offload_master 
                     1  offload_master 
01: micdev=1 nprocs=59 rank_on_dev=0 ranks_per_device=1 affinity='KMP_PLACE_THREADS=59c@0,4t' pos=26
16: micdev=1 nprocs=59 rank_on_dev=0 ranks_per_device=1 affinity='KMP_PLACE_THREADS=59c@0,4t' pos=26
OMP: Info #256: KMP_PLACE_THREADS variable deprecated, please use KMP_HW_SUBSET instead.
OMP: Info #256: KMP_PLACE_THREADS variable deprecated, please use KMP_HW_SUBSET instead.
00: micdev=0 nprocs=59 rank_on_dev=0 ranks_per_device=1 affinity='KMP_PLACE_THREADS=59c@0,4t' pos=26
15: micdev=0 nprocs=59 rank_on_dev=0 ranks_per_device=1 affinity='KMP_PLACE_THREADS=59c@0,4t' pos=26
 
 
                                NWChem Input Module
                                -------------------
 
 

 Scaling coordinates for geometry "geometry" by  1.889725989
 (inverse scale =  0.529177249)


          ------
          auto-z
          ------
  no constraints, skipping   0.000000000000000E+000
  no constraints, skipping   0.000000000000000E+000
 
 
                             Geometry "geometry" -> ""
                             -------------------------
 
 Output coordinates in angstroms (scale by  1.889725989 to convert to a.u.)
 
  No.       Tag          Charge          X              Y              Z
 ---- ---------------- ---------- -------------- -------------- --------------
    1 li                   3.0000    -0.86951256    -0.86951259    -0.86951259
    2 h                    1.0000    -0.94323914    -0.94323916     0.94323908
    3 h                    1.0000    -0.94323916     0.94323910    -0.94323920
    4 h                    1.0000     0.94323908    -0.94323918    -0.94323920
    5 li                   3.0000     0.86951262     0.86951262    -0.86951266
    6 li                   3.0000     0.86951265    -0.86951266     0.86951264
    7 li                   3.0000    -0.86951268     0.86951267     0.86951266
    8 h                    1.0000     0.94323912     0.94323912     0.94323912
 
      Atomic Mass 
      ----------- 
 
      li                 7.016000
      h                  1.007825
 

 Effective nuclear repulsion energy (a.u.)      25.3234783205

            Nuclear Dipole moment (a.u.) 
            ----------------------------
        X                 Y               Z
 ---------------- ---------------- ----------------
    -0.0000000000    -0.0000000000     0.0000000000
 


                                Z-matrix (autoz)
                                -------- 

 Units are Angstrom for bonds and degrees for angles
 
      Type          Name      I     J     K     L     M      Value
      ----------- --------  ----- ----- ----- ----- ----- ----------
    1 Stretch                  1     2                       1.81575
    2 Stretch                  1     3                       1.81575
    3 Stretch                  1     4                       1.81575
    4 Stretch                  1     5                       2.45935
    5 Stretch                  1     6                       2.45935
    6 Stretch                  1     7                       2.45935
    7 Stretch                  2     6                       1.81575
    8 Stretch                  2     7                       1.81575
    9 Stretch                  3     5                       1.81575
   10 Stretch                  3     7                       1.81575
   11 Stretch                  4     5                       1.81575
   12 Stretch                  4     6                       1.81575
   13 Stretch                  5     6                       2.45935
   14 Stretch                  5     7                       2.45935
   15 Stretch                  5     8                       1.81575
   16 Stretch                  6     7                       2.45935
   17 Stretch                  6     8                       1.81575
   18 Stretch                  7     8                       1.81575
   19 Bend                     1     2     6                85.25492
   20 Bend                     1     2     7                85.25493
   21 Bend                     1     3     5                85.25492
   22 Bend                     1     3     7                85.25492
   23 Bend                     1     4     5                85.25492
   24 Bend                     1     4     6                85.25492
   25 Bend                     1     5     3                47.37254
   26 Bend                     1     5     4                47.37254
   27 Bend                     1     5     6                60.00000
   28 Bend                     1     5     7                60.00000
   29 Bend                     1     5     8                93.29188
   30 Bend                     1     6     2                47.37254
   31 Bend                     1     6     4                47.37254
   32 Bend                     1     6     5                60.00000
   33 Bend                     1     6     7                60.00000
   34 Bend                     1     6     8                93.29188
   35 Bend                     1     7     2                47.37253
   36 Bend                     1     7     3                47.37254
   37 Bend                     1     7     5                60.00000
   38 Bend                     1     7     6                60.00000
   39 Bend                     1     7     8                93.29188
   40 Bend                     2     1     3                94.55553
   41 Bend                     2     1     4                94.55553
   42 Bend                     2     1     5                93.29189
   43 Bend                     2     1     6                47.37254
   44 Bend                     2     1     7                47.37254
   45 Bend                     2     6     4                94.55552
   46 Bend                     2     6     5                93.29188
   47 Bend                     2     6     7                47.37254
   48 Bend                     2     6     8                94.55553
   49 Bend                     2     7     3                94.55552
   50 Bend                     2     7     5                93.29188
   51 Bend                     2     7     6                47.37254
   52 Bend                     2     7     8                94.55552
   53 Bend                     3     1     4                94.55553
   54 Bend                     3     1     5                47.37254
   55 Bend                     3     1     6                93.29189
   56 Bend                     3     1     7                47.37254
   57 Bend                     3     5     4                94.55552
   58 Bend                     3     5     6                93.29189
   59 Bend                     3     5     7                47.37254
   60 Bend                     3     5     8                94.55553
   61 Bend                     3     7     5                47.37254
   62 Bend                     3     7     6                93.29188
   63 Bend                     3     7     8                94.55552
   64 Bend                     4     1     5                47.37254
   65 Bend                     4     1     6                47.37254
   66 Bend                     4     1     7                93.29189
   67 Bend                     4     5     6                47.37254
   68 Bend                     4     5     7                93.29189
   69 Bend                     4     5     8                94.55553
   70 Bend                     4     6     5                47.37254
   71 Bend                     4     6     7                93.29188
   72 Bend                     4     6     8                94.55553
   73 Bend                     5     1     6                60.00000
   74 Bend                     5     1     7                60.00000
   75 Bend                     5     3     7                85.25492
   76 Bend                     5     4     6                85.25492
   77 Bend                     5     6     7                60.00000
   78 Bend                     5     6     8                47.37254
   79 Bend                     5     7     6                60.00000
   80 Bend                     5     7     8                47.37254
   81 Bend                     5     8     6                85.25493
   82 Bend                     5     8     7                85.25493
   83 Bend                     6     1     7                60.00000
   84 Bend                     6     2     7                85.25493
   85 Bend                     6     5     7                60.00000
   86 Bend                     6     5     8                47.37254
   87 Bend                     6     7     8                47.37254
   88 Bend                     6     8     7                85.25493
   89 Bend                     7     5     8                47.37254
   90 Bend                     7     6     8                47.37254
   91 Torsion                  1     2     6     4          -4.66566
   92 Torsion                  1     2     6     5          42.80910
   93 Torsion                  1     2     6     7          85.61820
   94 Torsion                  1     2     6     8          90.28385
   95 Torsion                  1     2     7     3           4.66566
   96 Torsion                  1     2     7     5         -42.80910
   97 Torsion                  1     2     7     6         -85.61820
   98 Torsion                  1     2     7     8         -90.28385
   99 Torsion                  1     3     5     4           4.66566
  100 Torsion                  1     3     5     6         -42.80910
  101 Torsion                  1     3     5     7         -85.61820
  102 Torsion                  1     3     5     8         -90.28385
  103 Torsion                  1     3     7     2          -4.66566
  104 Torsion                  1     3     7     5          85.61820
  105 Torsion                  1     3     7     6          42.80910
  106 Torsion                  1     3     7     8          90.28385
  107 Torsion                  1     4     5     3          -4.66566
  108 Torsion                  1     4     5     6          85.61820
  109 Torsion                  1     4     5     7          42.80910
  110 Torsion                  1     4     5     8          90.28385
  111 Torsion                  1     4     6     2           4.66566
  112 Torsion                  1     4     6     5         -85.61820
  113 Torsion                  1     4     6     7         -42.80910
  114 Torsion                  1     4     6     8         -90.28385
  115 Torsion                  1     5     3     7          85.61820
  116 Torsion                  1     5     4     6         -85.61820
  117 Torsion                  1     5     6     2         -35.26439
  118 Torsion                  1     5     6     4          57.89911
  119 Torsion                  1     5     6     7         -70.52878
  120 Torsion                  1     5     6     8        -128.42789
  121 Torsion                  1     5     7     2          35.26439
  122 Torsion                  1     5     7     3         -57.89911
  123 Torsion                  1     5     7     6          70.52878
  124 Torsion                  1     5     7     8         128.42789
  125 Torsion                  1     5     8     6          42.80910
  126 Torsion                  1     5     8     7         -42.80910
  127 Torsion                  1     6     2     7         -85.61820
  128 Torsion                  1     6     4     5          85.61820
  129 Torsion                  1     6     5     3          35.26439
  130 Torsion                  1     6     5     4         -57.89911
  131 Torsion                  1     6     5     7          70.52878
  132 Torsion                  1     6     5     8         128.42789
  133 Torsion                  1     6     7     2          57.89911
  134 Torsion                  1     6     7     3         -35.26439
  135 Torsion                  1     6     7     5         -70.52878
  136 Torsion                  1     6     7     8        -128.42789
  137 Torsion                  1     6     8     5         -42.80910
  138 Torsion                  1     6     8     7          42.80910
  139 Torsion                  1     7     2     6          85.61820
  140 Torsion                  1     7     3     5         -85.61820
  141 Torsion                  1     7     5     3          57.89911
  142 Torsion                  1     7     5     4         -35.26439
  143 Torsion                  1     7     5     6         -70.52878
  144 Torsion                  1     7     5     8        -128.42789
  145 Torsion                  1     7     6     2         -57.89911
  146 Torsion                  1     7     6     4          35.26439
  147 Torsion                  1     7     6     5          70.52878
  148 Torsion                  1     7     6     8         128.42789
  149 Torsion                  1     7     8     5          42.80910
  150 Torsion                  1     7     8     6         -42.80910
  151 Torsion                  2     1     3     5          90.28386
  152 Torsion                  2     1     3     7           4.66566
  153 Torsion                  2     1     4     5         -90.28385
  154 Torsion                  2     1     4     6          -4.66566
  155 Torsion                  2     1     5     3         -93.16350
  156 Torsion                  2     1     5     4          93.16350
  157 Torsion                  2     1     5     6          35.26439
  158 Torsion                  2     1     5     7         -35.26439
  159 Torsion                  2     1     5     8           0.00000
  160 Torsion                  2     1     6     4         173.67300
  161 Torsion                  2     1     6     5        -128.42789
  162 Torsion                  2     1     6     7         -57.89911
  163 Torsion                  2     1     6     8         -93.16350
  164 Torsion                  2     1     7     3        -173.67300
  165 Torsion                  2     1     7     5         128.42789
  166 Torsion                  2     1     7     6          57.89911
  167 Torsion                  2     1     7     8          93.16350
  168 Torsion                  2     6     1     3          93.16350
  169 Torsion                  2     6     1     4        -173.67300
  170 Torsion                  2     6     1     5         128.42789
  171 Torsion                  2     6     1     7          57.89911
  172 Torsion                  2     6     4     5          90.28385
  173 Torsion                  2     6     5     3           0.00000
  174 Torsion                  2     6     5     4         -93.16350
  175 Torsion                  2     6     5     7          35.26439
  176 Torsion                  2     6     5     8          93.16350
  177 Torsion                  2     6     7     3         -93.16350
  178 Torsion                  2     6     7     5        -128.42789
  179 Torsion                  2     6     7     8         173.67300
  180 Torsion                  2     6     8     5         -90.28385
  181 Torsion                  2     6     8     7          -4.66565
  182 Torsion                  2     7     1     3         173.67300
  183 Torsion                  2     7     1     4         -93.16350
  184 Torsion                  2     7     1     5        -128.42789
  185 Torsion                  2     7     1     6         -57.89911
  186 Torsion                  2     7     3     5         -90.28385
  187 Torsion                  2     7     5     3          93.16350
  188 Torsion                  2     7     5     4           0.00000
  189 Torsion                  2     7     5     6         -35.26439
  190 Torsion                  2     7     5     8         -93.16350
  191 Torsion                  2     7     6     4          93.16349
  192 Torsion                  2     7     6     5         128.42789
  193 Torsion                  2     7     6     8        -173.67300
  194 Torsion                  2     7     8     5          90.28385
  195 Torsion                  2     7     8     6           4.66565
  196 Torsion                  3     1     2     6         -90.28386
  197 Torsion                  3     1     2     7          -4.66566
  198 Torsion                  3     1     4     5           4.66566
  199 Torsion                  3     1     4     6          90.28386
  200 Torsion                  3     1     5     4        -173.67299
  201 Torsion                  3     1     5     6         128.42789
  202 Torsion                  3     1     5     7          57.89911
  203 Torsion                  3     1     5     8          93.16350
  204 Torsion                  3     1     6     4         -93.16350
  205 Torsion                  3     1     6     5         -35.26439
  206 Torsion                  3     1     6     7          35.26439
  207 Torsion                  3     1     6     8           0.00000
  208 Torsion                  3     1     7     5         -57.89911
  209 Torsion                  3     1     7     6        -128.42789
  210 Torsion                  3     1     7     8         -93.16350
  211 Torsion                  3     5     1     4         173.67299
  212 Torsion                  3     5     1     6        -128.42789
  213 Torsion                  3     5     1     7         -57.89911
  214 Torsion                  3     5     4     6         -90.28386
  215 Torsion                  3     5     6     4          93.16350
  216 Torsion                  3     5     6     7         -35.26439
  217 Torsion                  3     5     6     8         -93.16350
  218 Torsion                  3     5     7     6         128.42789
  219 Torsion                  3     5     7     8        -173.67300
  220 Torsion                  3     5     8     6          90.28385
  221 Torsion                  3     5     8     7           4.66565
  222 Torsion                  3     7     1     4          93.16350
  223 Torsion                  3     7     1     5          57.89911
  224 Torsion                  3     7     1     6         128.42789
  225 Torsion                  3     7     2     6          90.28385
  226 Torsion                  3     7     5     4         -93.16350
  227 Torsion                  3     7     5     6        -128.42789
  228 Torsion                  3     7     5     8         173.67300
  229 Torsion                  3     7     6     4           0.00000
  230 Torsion                  3     7     6     5          35.26439
  231 Torsion                  3     7     6     8          93.16350
  232 Torsion                  3     7     8     5          -4.66565
  233 Torsion                  3     7     8     6         -90.28385
  234 Torsion                  4     1     2     6           4.66566
  235 Torsion                  4     1     2     7          90.28386
  236 Torsion                  4     1     3     5          -4.66566
  237 Torsion                  4     1     3     7         -90.28386
  238 Torsion                  4     1     5     6         -57.89911
  239 Torsion                  4     1     5     7        -128.42789
  240 Torsion                  4     1     5     8         -93.16350
  241 Torsion                  4     1     6     5          57.89911
  242 Torsion                  4     1     6     7         128.42789
  243 Torsion                  4     1     6     8          93.16350
  244 Torsion                  4     1     7     5          35.26439
  245 Torsion                  4     1     7     6         -35.26439
  246 Torsion                  4     1     7     8           0.00000
  247 Torsion                  4     5     1     6          57.89911
  248 Torsion                  4     5     1     7         128.42789
  249 Torsion                  4     5     3     7          90.28386
  250 Torsion                  4     5     6     7        -128.42789
  251 Torsion                  4     5     6     8         173.67300
  252 Torsion                  4     5     7     6          35.26439
  253 Torsion                  4     5     7     8          93.16350
  254 Torsion                  4     5     8     6          -4.66565
  255 Torsion                  4     5     8     7         -90.28385
  256 Torsion                  4     6     1     5         -57.89911
  257 Torsion                  4     6     1     7        -128.42789
  258 Torsion                  4     6     2     7         -90.28386
  259 Torsion                  4     6     5     7         128.42789
  260 Torsion                  4     6     5     8        -173.67300
  261 Torsion                  4     6     7     5         -35.26439
  262 Torsion                  4     6     7     8         -93.16350
  263 Torsion                  4     6     8     5           4.66565
  264 Torsion                  4     6     8     7          90.28385
  265 Torsion                  5     1     2     6         -42.80910
  266 Torsion                  5     1     2     7          42.80910
  267 Torsion                  5     1     3     7         -85.61820
  268 Torsion                  5     1     4     6          85.61820
  269 Torsion                  5     1     6     7          70.52878
  270 Torsion                  5     1     6     8          35.26439
  271 Torsion                  5     1     7     6         -70.52878
  272 Torsion                  5     1     7     8         -35.26439
  273 Torsion                  5     3     1     6          42.80910
  274 Torsion                  5     3     1     7          85.61820
  275 Torsion                  5     3     7     6         -42.80910
  276 Torsion                  5     3     7     8           4.66565
  277 Torsion                  5     4     1     6         -85.61820
  278 Torsion                  5     4     1     7         -42.80910
  279 Torsion                  5     4     6     7          42.80910
  280 Torsion                  5     4     6     8          -4.66565
  281 Torsion                  5     6     1     7         -70.52878
  282 Torsion                  5     6     2     7         -42.80910
  283 Torsion                  5     6     7     8         -57.89911
  284 Torsion                  5     6     8     7          85.61820
  285 Torsion                  5     7     1     6          70.52878
  286 Torsion                  5     7     2     6          42.80910
  287 Torsion                  5     7     6     8          57.89911
  288 Torsion                  5     7     8     6         -85.61820
  289 Torsion                  5     8     6     7         -85.61820
  290 Torsion                  5     8     7     6          85.61820
  291 Torsion                  6     1     2     7          85.61820
  292 Torsion                  6     1     3     7         -42.80910
  293 Torsion                  6     1     5     7         -70.52878
  294 Torsion                  6     1     5     8         -35.26439
  295 Torsion                  6     1     7     8          35.26439
  296 Torsion                  6     2     1     7         -85.61820
  297 Torsion                  6     2     7     8          -4.66565
  298 Torsion                  6     4     1     7          42.80910
  299 Torsion                  6     4     5     7         -42.80910
  300 Torsion                  6     4     5     8           4.66565
  301 Torsion                  6     5     1     7          70.52878
  302 Torsion                  6     5     3     7          42.80910
  303 Torsion                  6     5     7     8          57.89911
  304 Torsion                  6     5     8     7         -85.61820
  305 Torsion                  6     7     5     8         -57.89911
  306 Torsion                  6     8     5     7          85.61820
  307 Torsion                  7     1     5     8          35.26439
  308 Torsion                  7     1     6     8         -35.26439
  309 Torsion                  7     2     6     8           4.66565
  310 Torsion                  7     3     5     8          -4.66565
  311 Torsion                  7     5     6     8         -57.89911
  312 Torsion                  7     6     5     8          57.89911
 
 
            XYZ format geometry
            -------------------
     8
 geometry
 li                   -0.86951256    -0.86951259    -0.86951259
 h                    -0.94323914    -0.94323916     0.94323908
 h                    -0.94323916     0.94323910    -0.94323920
 h                     0.94323908    -0.94323918    -0.94323920
 li                    0.86951262     0.86951262    -0.86951266
 li                    0.86951265    -0.86951266     0.86951264
 li                   -0.86951268     0.86951267     0.86951266
 h                     0.94323912     0.94323912     0.94323912
 
 ==============================================================================
                                internuclear distances
 ------------------------------------------------------------------------------
       center one      |      center two      | atomic units |  angstroms
 ------------------------------------------------------------------------------
    5 li               |   1 li               |     4.64750  |     2.45935
    6 li               |   1 li               |     4.64750  |     2.45935
    6 li               |   5 li               |     4.64750  |     2.45935
    7 li               |   1 li               |     4.64750  |     2.45935
    7 li               |   5 li               |     4.64750  |     2.45935
    7 li               |   6 li               |     4.64750  |     2.45935
 ------------------------------------------------------------------------------
                         number of included internuclear distances:          6
 ==============================================================================



 ==============================================================================
                                 internuclear angles
 ------------------------------------------------------------------------------
        center 1       |       center 2       |       center 3       |  degrees
 ------------------------------------------------------------------------------
    5 li               |   1 li               |   6 li               |    60.00
    5 li               |   1 li               |   7 li               |    60.00
    6 li               |   1 li               |   7 li               |    60.00
    5 li               |   1 li               |   6 li               |    60.00
    5 li               |   1 li               |   7 li               |    60.00
    6 li               |   5 li               |   7 li               |    60.00
    6 li               |   1 li               |   5 li               |    60.00
    6 li               |   1 li               |   7 li               |    60.00
    6 li               |   5 li               |   7 li               |    60.00
    7 li               |   1 li               |   5 li               |    60.00
    7 li               |   1 li               |   6 li               |    60.00
    7 li               |   5 li               |   6 li               |    60.00
 ------------------------------------------------------------------------------
                            number of included internuclear angles:         12
 ==============================================================================





 Summary of "ao basis" -> "" (cartesian)
 ------------------------------------------------------------------------------
       Tag                 Description            Shells   Functions and Types
 ---------------- ------------------------------  ------  ---------------------
 *                      6-311++G(2d,2p)               on all atoms 


 cm06 uses PW91LDA as defaults.These defaults cannot be changed 
 
  Deleted DRIVER restart files 
 
 
 
                           NWChem Geometry Optimization
                           ----------------------------
 
 
  no constraints, skipping   0.000000000000000E+000
 maximum gradient threshold         (gmax) =   0.000450
 rms gradient threshold             (grms) =   0.000300
 maximum cartesian step threshold   (xmax) =   0.001800
 rms cartesian step threshold       (xrms) =   0.001200
 fixed trust radius                (trust) =   0.300000
 maximum step size to saddle      (sadstp) =   0.100000
 energy precision                  (eprec) =   5.0D-06
 maximum number of steps          (nptopt) =  100
 initial hessian option           (inhess) =    0
 line search option               (linopt) =    1
 hessian update option            (modupd) =    1
 saddle point option              (modsad) =    0
 initial eigen-mode to follow     (moddir) =    0
 initial variable to follow       (vardir) =    0
 follow first negative mode     (firstneg) =    T
 apply conjugacy                    (opcg) =    F
 source of zmatrix                         =   autoz   


          -------------------
          Energy Minimization
          -------------------

 
 Names of Z-matrix variables 
    1              2              3              4              5         
    6              7              8              9             10         
   11             12             13             14             15         
   16             17             18             19             20         
   21             22             23             24             25         
   26             27             28             29             30         
   31             32             33             34             35         
   36             37             38             39             40         
   41             42             43             44             45         
   46             47             48             49             50         
   51             52             53             54             55         
   56             57             58             59             60         
   61             62             63             64             65         
   66             67             68             69             70         
   71             72             73             74             75         
   76             77             78             79             80         
   81             82             83             84             85         
   86             87             88             89             90         
   91             92             93             94             95         
   96             97             98             99            100         
  101            102            103            104            105         
  106            107            108            109            110         
  111            112            113            114            115         
  116            117            118            119            120         
  121            122            123            124            125         
  126            127            128            129            130         
  131            132            133            134            135         
  136            137            138            139            140         
  141            142            143            144            145         
  146            147            148            149            150         
  151            152            153            154            155         
  156            157            158            159            160         
  161            162            163            164            165         
  166            167            168            169            170         
  171            172            173            174            175         
  176            177            178            179            180         
  181            182            183            184            185         
  186            187            188            189            190         
  191            192            193            194            195         
  196            197            198            199            200         
  201            202            203            204            205         
  206            207            208            209            210         
  211            212            213            214            215         
  216            217            218            219            220         
  221            222            223            224            225         
  226            227            228            229            230         
  231            232            233            234            235         
  236            237            238            239            240         
  241            242            243            244            245         
  246            247            248            249            250         
  251            252            253            254            255         
  256            257            258            259            260         
  261            262            263            264            265         
  266            267            268            269            270         
  271            272            273            274            275         
  276            277            278            279            280         
  281            282            283            284            285         
  286            287            288            289            290         
  291            292            293            294            295         
  296            297            298            299            300         
  301            302            303            304            305         
  306            307            308            309            310         
  311            312         
 
 Variables with the same non-blank name are constrained to be equal
 
 
 Using diagonal initial Hessian 
 Scaling for Hessian diagonals: bonds = 1.00  angles = 0.25  torsions = 0.10

          --------
          Step   0
          --------
 
 
                         Geometry "geometry" -> "geometry"
                         ---------------------------------
 
 Output coordinates in angstroms (scale by  1.889725989 to convert to a.u.)
 
  No.       Tag          Charge          X              Y              Z
 ---- ---------------- ---------- -------------- -------------- --------------
    1 li                   3.0000    -0.86951256    -0.86951259    -0.86951259
    2 h                    1.0000    -0.94323914    -0.94323916     0.94323908
    3 h                    1.0000    -0.94323916     0.94323910    -0.94323920
    4 h                    1.0000     0.94323908    -0.94323918    -0.94323920
    5 li                   3.0000     0.86951262     0.86951262    -0.86951266
    6 li                   3.0000     0.86951265    -0.86951266     0.86951264
    7 li                   3.0000    -0.86951268     0.86951267     0.86951266
    8 h                    1.0000     0.94323912     0.94323912     0.94323912
 
      Atomic Mass 
      ----------- 
 
      li                 7.016000
      h                  1.007825
 

 Effective nuclear repulsion energy (a.u.)      25.3234783205

            Nuclear Dipole moment (a.u.) 
            ----------------------------
        X                 Y               Z
 ---------------- ---------------- ----------------
    -0.0000000000    -0.0000000000     0.0000000000
 
 
                                 NWChem DFT Module
                                 -----------------
 
 
                      Basis "ao basis" -> "ao basis" (cartesian)
                      -----
  li (Lithium)
  ------------
            Exponent  Coefficients 
       -------------- ---------------------------------------------------------
  1 S  9.00460000E+02  0.002287
  1 S  1.34433000E+02  0.017635
  1 S  3.04365000E+01  0.087343
  1 S  8.62639000E+00  0.280977
  1 S  2.48332000E+00  0.658741
  1 S  3.03179000E-01  0.118712
 
  2 S  4.86890000E+00  0.093329
  2 S  8.56924000E-01  0.943045
  2 S  2.43227000E-01 -0.002798
 
  3 P  4.86890000E+00  0.032766
  3 P  8.56924000E-01  0.159792
  3 P  2.43227000E-01  0.885667
 
  4 S  6.35070000E-02  1.000000
 
  5 P  6.35070000E-02  1.000000
 
  6 S  2.43683000E-02  1.000000
 
  7 P  2.43683000E-02  1.000000
 
  8 S  7.40000000E-03  1.000000
 
  9 P  7.40000000E-03  1.000000
 
 10 D  4.00000000E-01  1.000000
 
 11 D  1.00000000E-01  1.000000
 
  h (Hydrogen)
  ------------
            Exponent  Coefficients 
       -------------- ---------------------------------------------------------
  1 S  3.38650000E+01  0.025494
  1 S  5.09479000E+00  0.190373
  1 S  1.15879000E+00  0.852161
 
  2 S  3.25840000E-01  1.000000
 
  3 S  1.02741000E-01  1.000000
 
  4 S  3.60000000E-02  1.000000
 
  5 P  1.50000000E+00  1.000000
 
  6 P  3.75000000E-01  1.000000
 


 Summary of "ao basis" -> "ao basis" (cartesian)
 ------------------------------------------------------------------------------
       Tag                 Description            Shells   Functions and Types
 ---------------- ------------------------------  ------  ---------------------
 li                     6-311++G(2d,2p)             11       29   5s4p2d
 h                      6-311++G(2d,2p)              6       10   4s2p




 Summary of "ao basis" -> "ao basis" (cartesian)
 ------------------------------------------------------------------------------
       Tag                 Description            Shells   Functions and Types
 ---------------- ------------------------------  ------  ---------------------
 li                     6-311++G(2d,2p)             11       29   5s4p2d
 h                      6-311++G(2d,2p)              6       10   4s2p


  Caching 1-el integrals 
 
            General Information
            -------------------
          SCF calculation type: DFT
          Wavefunction type:  closed shell.
          No. of atoms     :     8
          No. of electrons :    16
           Alpha electrons :     8
            Beta electrons :     8
          Charge           :     0
          Spin multiplicity:     1
          Use of symmetry is: off; symmetry adaption is: off
          Maximum number of iterations: ***
          This is a Direct SCF calculation.
          AO basis - number of functions:   156
                     number of shells:    68
          Convergence on energy requested:  1.00D-06
          Convergence on density requested:  1.00D-05
          Convergence on gradient requested:  5.00D-04
 
              XC Information
              --------------
                           M06 Exchange Functional  1.000          
                         M06 Correlation Potential  1.000 non-local
 
             Grid Information
             ----------------
          Grid used for XC integration:  medium    
          Radial quadrature: Mura-Knowles        
          Angular quadrature: Lebedev. 
          Tag              B.-S. Rad. Rad. Pts. Rad. Cut. Ang. Pts.
          ---              ---------- --------- --------- ---------
          li                  1.45       49          22.0       434
          h                   0.35       45          17.0       434
          Grid pruning is: on 
          Number of quadrature shells:   376
          Spatial weights used:  Erf1
 
          Convergence Information
          -----------------------
          Convergence aids based upon iterative change in 
          total energy or number of iterations. 
          Levelshifting, if invoked, occurs when the 
          HOMO/LUMO gap drops below (HL_TOL):  1.00D-02
          DIIS, if invoked, will attempt to extrapolate 
          using up to (NFOCK): 10 stored Fock matrices.

                    Damping( 0%)  Levelshifting(0.5)       DIIS
                  --------------- ------------------- ---------------
          dE  on:    start            ASAP                start   
          dE off:    2 iters        *** iters           *** iters 

 
      Screening Tolerance Information
      -------------------------------
          Density screening/tol_rho:  1.00D-10
          AO Gaussian exp screening on grid/accAOfunc:  14
          CD Gaussian exp screening on grid/accCDfunc:  20
          XC Gaussian exp screening on grid/accXCfunc:  20
          Schwarz screening/accCoul:  1.00D-08

 
      Superposition of Atomic Density Guess
      -------------------------------------
 
 Sum of atomic energies:         -31.72729480
 
      Non-variational initial energy
      ------------------------------

 Total energy =     -31.934051
 1-e energy   =     -90.491177
 2-e energy   =      33.233648
 HOMO         =      -0.380570
 LUMO         =      -0.044914
 
   Time after variat. SCF:      1.1
   Time prior to 1st pass:      1.1
OMP: Info #256: KMP_PLACE_THREADS variable deprecated, please use KMP_HW_SUBSET instead.
OMP: Info #256: KMP_PLACE_THREADS variable deprecated, please use KMP_HW_SUBSET instead.

 Grid_pts file          = /scratch/metagga_dat.gridpts.00
 Record size in doubles =  12289        No. of grid_pts per rec  =   3070
 Max. records in memory =      3        Max. recs in file   =  33775025

 Grid integrated density:      16.000129731894
 Requested integration accuracy:   0.10E-05

           Memory utilization after 1st SCF pass: 
           Heap Space remaining (MW):        6.75             6750794
          Stack Space remaining (MW):       13.11            13106180

   convergence    iter        energy       DeltaE   RMS-Dens  Diis-err    time
 ---------------- ----- ----------------- --------- --------- ---------  ------
 d= 0,ls=0.0,diis     1    -30.1512102632 -5.55D+01  2.32D-01  7.67D-01     1.4
 d= 0,ls=0.0,diis     2    -26.2735283027  3.88D+00  2.30D-01  4.44D+00     1.7
 Grid integrated density:      16.000161722396
 Requested integration accuracy:   0.10E-05
 d= 0,ls=0.0,diis     3    -30.2605194407 -3.99D+00  1.42D+00  1.80D-01     2.0
 Grid integrated density:      16.000086843570
 Requested integration accuracy:   0.10E-05
 d= 0,ls=0.0,diis     4    -28.6021543496  1.66D+00  8.95D-01  3.22D+00     2.3
 Grid integrated density:      16.000125084885
 Requested integration accuracy:   0.10E-05
 d= 0,ls=0.0,diis     5    -29.7185208439 -1.12D+00  2.86D-02  2.29D+00     2.6
 Grid integrated density:      16.000123291129
 Requested integration accuracy:   0.10E-05
  Resetting Diis
 d= 0,ls=0.0,diis     6    -29.6902140106  2.83D-02  1.49D-02  2.34D+00     2.9
 Grid integrated density:      16.000122695442
 Requested integration accuracy:   0.10E-05
 d= 0,ls=0.0,diis     7    -29.2650408314  4.25D-01  5.95D-01  2.16D+00     3.2
 Grid integrated density:      16.000220147077
 Requested integration accuracy:   0.10E-05
 d= 0,ls=0.0,diis     8    -29.8007179052 -5.36D-01  1.20D-02  1.44D+00     3.5
 Grid integrated density:      16.000118539072
 Requested integration accuracy:   0.10E-05
 d= 0,ls=0.0,diis     9    -30.2257552364 -4.25D-01  3.04D-02  3.36D-02     3.8
 Grid integrated density:      16.000133928901
 Requested integration accuracy:   0.10E-05
 d= 0,ls=0.0,diis    10    -30.2329429798 -7.19D-03  1.11D-02  4.61D-03     4.1
 Grid integrated density:      16.000127626311
 Requested integration accuracy:   0.10E-05
 d= 0,ls=0.0,diis    11    -30.2341044220 -1.16D-03  1.06D-03  3.80D-04     4.4
 Grid integrated density:      16.000130097490
 Requested integration accuracy:   0.10E-05
 d= 0,ls=0.0,diis    12    -30.2341721157 -6.77D-05  9.15D-04  3.72D-05     4.8
 Grid integrated density:      16.000129918396
 Requested integration accuracy:   0.10E-05
 d= 0,ls=0.0,diis    13    -30.2341770841 -4.97D-06  3.57D-04  1.45D-06     5.1
 Grid integrated density:      16.000130029365
 Requested integration accuracy:   0.10E-05
 d= 0,ls=0.0,diis    14    -30.2341776773 -5.93D-07  1.13D-04  4.75D-08     5.4
 Grid integrated density:      16.000130027518
 Requested integration accuracy:   0.10E-05
 d= 0,ls=0.0,diis    15    -30.2341776955 -1.82D-08  1.57D-05  3.91D-09     5.7
 Grid integrated density:      16.000130024619
 Requested integration accuracy:   0.10E-05
 d= 0,ls=0.0,diis    16    -30.2341776965 -1.02D-09  3.01D-06  1.81D-10     6.0


         Total DFT energy =      -30.234177696501
      One electron energy =      -92.251305945040
           Coulomb energy =       43.188838739216
    Exchange-Corr. energy =       -6.495188811163
 Nuclear repulsion energy =       25.323478320486

 Numeric. integr. density =       16.000130024619

     Total iterative time =      4.8s


 
                       DFT Final Molecular Orbital Analysis
                       ------------------------------------
 
 Vector    1  Occ=2.000000D+00  E=-1.597580D+00
              MO Center=  6.6D-05,  5.8D-05,  4.9D-05, r^2= 2.4D+00
   Bfn.  Coefficient  Atom+Function         Bfn.  Coefficient  Atom+Function  
  ----- ------------  ---------------      ----- ------------  ---------------
     1      0.291083  1 Li s                 60      0.291125  5 Li s          
    89      0.291121  6 Li s                118      0.291119  7 Li s          
     2      0.217331  1 Li s                 61      0.217362  5 Li s          
    90      0.217359  6 Li s                119      0.217357  7 Li s          
     6      0.055894  1 Li s                 65      0.055900  5 Li s          
 
 Vector    2  Occ=2.000000D+00  E=-1.594810D+00
              MO Center=  7.8D-01,  3.5D-01, -2.5D-01, r^2= 1.6D+00
   Bfn.  Coefficient  Atom+Function         Bfn.  Coefficient  Atom+Function  
  ----- ------------  ---------------      ----- ------------  ---------------
    60      0.470723  5 Li s                 61      0.343410  5 Li s          
    89     -0.321230  6 Li s                 73      0.256212  5 Li s          
    90     -0.234349  6 Li s                102     -0.174835  6 Li s          
   118     -0.135214  7 Li s                119     -0.098644  7 Li s          
    69      0.094349  5 Li s                131     -0.073587  7 Li s          
 
 Vector    3  Occ=2.000000D+00  E=-1.594810D+00
              MO Center= -1.7D-01,  2.3D-01,  8.1D-01, r^2= 1.7D+00
   Bfn.  Coefficient  Atom+Function         Bfn.  Coefficient  Atom+Function  
  ----- ------------  ---------------      ----- ------------  ---------------
   118      0.452772  7 Li s                 89     -0.354485  6 Li s          
   119      0.330314  7 Li s                 90     -0.258610  6 Li s          
   131      0.246400  7 Li s                102     -0.192920  6 Li s          
    60     -0.111449  5 Li s                127      0.090742  7 Li s          
    61     -0.081306  5 Li s                 98     -0.071046  6 Li s          
 
 Vector    4  Occ=2.000000D+00  E=-1.594810D+00
              MO Center= -6.1D-01, -5.8D-01, -5.5D-01, r^2= 1.4D+00
   Bfn.  Coefficient  Atom+Function         Bfn.  Coefficient  Atom+Function  
  ----- ------------  ---------------      ----- ------------  ---------------
     1      0.507032  1 Li s                  2      0.369899  1 Li s          
    14      0.276023  1 Li s                118     -0.184805  7 Li s          
    89     -0.169082  6 Li s                 60     -0.153078  5 Li s          
   119     -0.134822  7 Li s                 90     -0.123351  6 Li s          
    61     -0.111676  5 Li s                 10      0.101635  1 Li s          
 
 Vector    5  Occ=2.000000D+00  E=-2.023622D-01
              MO Center=  3.4D-06,  3.1D-06,  2.8D-06, r^2= 3.1D+00
   Bfn.  Coefficient  Atom+Function         Bfn.  Coefficient  Atom+Function  
  ----- ------------  ---------------      ----- ------------  ---------------
     6      0.201531  1 Li s                 65      0.201534  5 Li s          
    94      0.201534  6 Li s                123      0.201535  7 Li s          
    32      0.133156  2 H  s                 42      0.133157  3 H  s          
    52      0.133158  4 H  s                149      0.133156  8 H  s          
    31      0.127154  2 H  s                 41      0.127154  3 H  s          
 
 Vector    6  Occ=2.000000D+00  E=-1.397445D-01
              MO Center=  5.8D-01,  5.6D-01,  5.4D-01, r^2= 3.3D+00
   Bfn.  Coefficient  Atom+Function         Bfn.  Coefficient  Atom+Function  
  ----- ------------  ---------------      ----- ------------  ---------------
    14      0.518290  1 Li s                 10      0.512330  1 Li s          
   149      0.341695  8 H  s                148      0.242321  8 H  s          
   131     -0.181980  7 Li s                127     -0.180154  7 Li s          
   102     -0.173902  6 Li s                 98     -0.171863  6 Li s          
    73     -0.162407  5 Li s                 69     -0.160255  5 Li s          
 
 Vector    7  Occ=2.000000D+00  E=-1.397442D-01
              MO Center=  1.5D-01, -1.9D-01, -8.0D-01, r^2= 3.6D+00
   Bfn.  Coefficient  Atom+Function         Bfn.  Coefficient  Atom+Function  
  ----- ------------  ---------------      ----- ------------  ---------------
   131      0.455925  7 Li s                127      0.452769  7 Li s          
   102     -0.371847  6 Li s                 98     -0.369063  6 Li s          
    52      0.302264  4 H  s                 42     -0.246349  3 H  s          
    51      0.214369  4 H  s                 41     -0.174711  3 H  s          
    50      0.138802  4 H  s                123     -0.135310  7 Li s          
 
 Vector    8  Occ=2.000000D+00  E=-1.397442D-01
              MO Center= -7.2D-01, -3.8D-01,  2.6D-01, r^2= 3.5D+00
   Bfn.  Coefficient  Atom+Function         Bfn.  Coefficient  Atom+Function  
  ----- ------------  ---------------      ----- ------------  ---------------
    73      0.482211  5 Li s                 69      0.477943  5 Li s          
    32      0.318939  2 H  s                102     -0.313398  6 Li s          
    98     -0.310680  6 Li s                 31      0.226190  2 H  s          
    42     -0.207334  3 H  s                131     -0.158367  7 Li s          
   127     -0.157135  7 Li s                 30      0.146456  2 H  s          
 
 Vector    9  Occ=0.000000D+00  E=-5.180902D-02
              MO Center= -2.4D-05, -8.7D-05, -1.4D-04, r^2= 2.9D+01
   Bfn.  Coefficient  Atom+Function         Bfn.  Coefficient  Atom+Function  
  ----- ------------  ---------------      ----- ------------  ---------------
    33     -0.269368  2 H  s                 43     -0.269368  3 H  s          
    53     -0.269366  4 H  s                150     -0.269380  8 H  s          
    98      0.256439  6 Li s                127      0.257001  7 Li s          
    10      0.254732  1 Li s                 69      0.255978  5 Li s          
     6      0.214953  1 Li s                 65      0.214963  5 Li s          
 
 Vector   10  Occ=0.000000D+00  E=-4.223821D-02
              MO Center= -9.4D-01, -1.1D+00, -1.4D+00, r^2= 2.7D+01
   Bfn.  Coefficient  Atom+Function         Bfn.  Coefficient  Atom+Function  
  ----- ------------  ---------------      ----- ------------  ---------------
    10      5.219596  1 Li s                 14     -4.599702  1 Li s          
    69     -2.487126  5 Li s                 73      2.190901  5 Li s          
    98     -1.598074  6 Li s                102      1.410269  6 Li s          
    11      1.383270  1 Li px                12      1.343674  1 Li py         
    13      1.267779  1 Li pz               127     -1.134136  7 Li s          
 
 Vector   11  Occ=0.000000D+00  E=-4.223742D-02
              MO Center=  1.6D+00,  2.6D-01, -1.7D-01, r^2= 2.8D+01
   Bfn.  Coefficient  Atom+Function         Bfn.  Coefficient  Atom+Function  
  ----- ------------  ---------------      ----- ------------  ---------------
    69      4.465192  5 Li s                 73     -3.940959  5 Li s          
    98     -3.927104  6 Li s                102      3.465255  6 Li s          
    72      1.322926  5 Li pz               101      1.216249  6 Li pz         
   127     -1.202099  7 Li s                 71     -1.163650  5 Li py         
   100     -1.056935  6 Li py               131      1.060204  7 Li s          
 
 Vector   12  Occ=0.000000D+00  E=-4.223698D-02
              MO Center= -6.5D-01,  8.0D-01,  1.6D+00, r^2= 2.7D+01
   Bfn.  Coefficient  Atom+Function         Bfn.  Coefficient  Atom+Function  
  ----- ------------  ---------------      ----- ------------  ---------------
   127      5.019459  7 Li s                131     -4.433155  7 Li s          
    98     -3.155431  6 Li s                102      2.785887  6 Li s          
   128      1.379312  7 Li px                69     -1.346926  5 Li s          
   129     -1.308503  7 Li py                73      1.189073  5 Li s          
   130     -1.154143  7 Li pz                99      1.009830  6 Li px         
 
 Vector   13  Occ=0.000000D+00  E=-2.158417D-02
              MO Center=  8.0D-01,  8.9D-01,  1.1D+00, r^2= 3.8D+01
   Bfn.  Coefficient  Atom+Function         Bfn.  Coefficient  Atom+Function  
  ----- ------------  ---------------      ----- ------------  ---------------
    10      2.061814  1 Li s                150     -1.840862  8 H  s          
    14      0.980607  1 Li s                 69     -0.937821  5 Li s          
    33      0.837030  2 H  s                128      0.785269  7 Li px         
   100      0.774842  6 Li py                72      0.756572  5 Li pz         
    98     -0.643583  6 Li s                 43      0.573993  3 H  s          
 
 Vector   14  Occ=0.000000D+00  E=-2.158361D-02
              MO Center= -1.3D+00, -2.0D-01,  1.3D-01, r^2= 3.9D+01
   Bfn.  Coefficient  Atom+Function         Bfn.  Coefficient  Atom+Function  
  ----- ------------  ---------------      ----- ------------  ---------------
    69      1.756243  5 Li s                 33     -1.573800  2 H  s          
    98     -1.557344  6 Li s                 43      1.395710  3 H  s          
    73      0.781043  5 Li s                 13      0.709432  1 Li pz         
   102     -0.689719  6 Li s                129     -0.670810  7 Li py         
   130      0.643118  7 Li pz                12     -0.604251  1 Li py         
 
 Vector   15  Occ=0.000000D+00  E=-2.158331D-02
              MO Center=  5.4D-01, -6.9D-01, -1.3D+00, r^2= 3.9D+01
   Bfn.  Coefficient  Atom+Function         Bfn.  Coefficient  Atom+Function  
  ----- ------------  ---------------      ----- ------------  ---------------
   127      1.969364  7 Li s                 53     -1.768446  4 H  s          
    98     -1.205295  6 Li s                 43      1.082649  3 H  s          
   131      0.839853  7 Li s                 11      0.770860  1 Li px         
    71     -0.746499  5 Li py               101     -0.708399  6 Li pz         
    69     -0.581939  5 Li s                 33      0.522626  2 H  s          
 
 Vector   16  Occ=0.000000D+00  E=-1.999737D-02
              MO Center= -7.0D-06, -4.3D-04, -6.2D-04, r^2= 4.0D+01
   Bfn.  Coefficient  Atom+Function         Bfn.  Coefficient  Atom+Function  
  ----- ------------  ---------------      ----- ------------  ---------------
    17     -0.490688  1 Li pz               105      0.492761  6 Li pz         
   134      0.492156  7 Li pz                76     -0.489404  5 Li pz         
    16      0.486507  1 Li py                75     -0.488635  5 Li py         
   104      0.485550  6 Li py               133     -0.487017  7 Li py         
    13     -0.360624  1 Li pz                72     -0.360225  5 Li pz         
 
 Vector   17  Occ=0.000000D+00  E=-1.999731D-02
              MO Center= -2.4D-04, -1.5D-04, -2.5D-04, r^2= 4.0D+01
   Bfn.  Coefficient  Atom+Function         Bfn.  Coefficient  Atom+Function  
  ----- ------------  ---------------      ----- ------------  ---------------
    15      0.565157  1 Li px                74     -0.565427  5 Li px         
   103     -0.564867  6 Li px               132      0.563537  7 Li px         
    11      0.414848  1 Li px                70     -0.414839  5 Li px         
    99     -0.414674  6 Li px               128      0.414309  7 Li px         
   133      0.287443  7 Li py                16     -0.285234  1 Li py         
 
 Vector   18  Occ=0.000000D+00  E=-2.824328D-03
              MO Center=  4.3D-06,  3.1D-05,  3.5D-05, r^2= 4.5D+01
   Bfn.  Coefficient  Atom+Function         Bfn.  Coefficient  Atom+Function  
  ----- ------------  ---------------      ----- ------------  ---------------
    33      2.040288  2 H  s                 43      2.040307  3 H  s          
    53      2.040332  4 H  s                150      2.040223  8 H  s          
    11     -1.050546  1 Li px                12     -1.051094  1 Li py         
    13     -1.051264  1 Li pz                70      1.048413  5 Li px         
    71      1.048077  5 Li py                72     -1.049745  5 Li pz         
 
 Vector   19  Occ=0.000000D+00  E= 6.182280D-04
              MO Center=  3.5D-02, -4.9D-02, -4.0D-01, r^2= 5.2D+01
   Bfn.  Coefficient  Atom+Function         Bfn.  Coefficient  Atom+Function  
  ----- ------------  ---------------      ----- ------------  ---------------
    76     -4.935577  5 Li pz                17      4.884885  1 Li pz         
   104      3.223089  6 Li py                16     -3.172917  1 Li py         
   133      2.703080  7 Li py                75     -2.652734  5 Li py         
   103      2.182683  6 Li px                74     -2.144907  5 Li px         
    72     -2.101895  5 Li pz                13      2.090033  1 Li pz         
 
 Vector   20  Occ=0.000000D+00  E= 6.183154D-04
              MO Center= -3.8D-01, -2.1D-01,  1.9D-01, r^2= 5.2D+01
   Bfn.  Coefficient  Atom+Function         Bfn.  Coefficient  Atom+Function  
  ----- ------------  ---------------      ----- ------------  ---------------
   132     -4.731815  7 Li px                15      4.654574  1 Li px         
   104      3.769297  6 Li py                16     -3.742247  1 Li py         
   105      3.347297  6 Li pz               134     -3.347490  7 Li pz         
   128     -2.015152  7 Li px                11      1.997164  1 Li px         
    12     -1.599684  1 Li py               100      1.605653  6 Li py         
 
 Vector   21  Occ=0.000000D+00  E= 6.184986D-04
              MO Center=  3.5D-01,  2.7D-01,  2.2D-01, r^2= 5.2D+01
   Bfn.  Coefficient  Atom+Function         Bfn.  Coefficient  Atom+Function  
  ----- ------------  ---------------      ----- ------------  ---------------
    74      4.484658  5 Li px               103     -4.495958  6 Li px         
    75     -3.994387  5 Li py               133      4.013253  7 Li py         
   105      3.545441  6 Li pz               134     -3.550733  7 Li pz         
    70      1.918172  5 Li px                99     -1.920833  6 Li px         
    71     -1.710162  5 Li py               129      1.714425  7 Li py         
 
 Vector   22  Occ=0.000000D+00  E= 4.726863D-03
              MO Center= -3.6D-03, -9.0D-03, -1.3D-02, r^2= 6.8D+01
   Bfn.  Coefficient  Atom+Function         Bfn.  Coefficient  Atom+Function  
  ----- ------------  ---------------      ----- ------------  ---------------
    33      4.022491  2 H  s                 43      4.023037  3 H  s          
    53      4.023692  4 H  s                150      4.020961  8 H  s          
    10     -1.917126  1 Li s                 69     -1.884344  5 Li s          
    98     -1.872727  6 Li s                127     -1.858636  7 Li s          
    11     -1.606631  1 Li px                12     -1.607361  1 Li py         
 
 Vector   23  Occ=0.000000D+00  E= 7.810130D-03
              MO Center= -1.7D+00, -1.9D+00, -2.5D+00, r^2= 6.7D+01
   Bfn.  Coefficient  Atom+Function         Bfn.  Coefficient  Atom+Function  
  ----- ------------  ---------------      ----- ------------  ---------------
    14     56.978295  1 Li s                 73    -27.002833  5 Li s          
   102    -17.280884  6 Li s                131    -12.696292  7 Li s          
    15      6.382955  1 Li px                16      6.227406  1 Li py         
    17      5.900974  1 Li pz                74      3.805473  5 Li px         
    75      3.653027  5 Li py               103      2.968155  6 Li px         
 
 Vector   24  Occ=0.000000D+00  E= 7.813528D-03
              MO Center=  2.8D+00,  5.1D-01, -3.2D-01, r^2= 7.2D+01
   Bfn.  Coefficient  Atom+Function         Bfn.  Coefficient  Atom+Function  
  ----- ------------  ---------------      ----- ------------  ---------------
    73     48.577639  5 Li s                102    -42.288217  6 Li s          
   131    -13.484120  7 Li s                 14      7.193929  1 Li s          
    76      6.044271  5 Li pz               105      5.508195  6 Li pz         
    75     -5.358804  5 Li py               104     -4.813861  6 Li py         
    74     -4.395331  5 Li px               103      3.434597  6 Li px         
 
 Vector   25  Occ=0.000000D+00  E= 7.815361D-03
              MO Center= -1.1D+00,  1.4D+00,  2.8D+00, r^2= 6.9D+01
   Bfn.  Coefficient  Atom+Function         Bfn.  Coefficient  Atom+Function  
  ----- ------------  ---------------      ----- ------------  ---------------
   131     54.089335  7 Li s                102    -34.576582  6 Li s          
    73    -14.308283  5 Li s                132      6.293115  7 Li px         
   133     -5.992805  7 Li py               134     -5.318157  7 Li pz         
    14     -5.203639  1 Li s                103      4.611773  6 Li px         
   104     -4.306504  6 Li py                74      2.865992  5 Li px         
 
 Vector   26  Occ=0.000000D+00  E= 1.601135D-02
              MO Center=  8.2D-01,  9.3D-01,  1.2D+00, r^2= 7.6D+01
   Bfn.  Coefficient  Atom+Function         Bfn.  Coefficient  Atom+Function  
  ----- ------------  ---------------      ----- ------------  ---------------
    14    147.158184  1 Li s                 73    -69.715899  5 Li s          
   102    -45.516462  6 Li s                131    -31.927577  7 Li s          
    10     14.527531  1 Li s                 15     13.841601  1 Li px         
    16     13.298499  1 Li py                17     12.330732  1 Li pz         
    74      8.985811  5 Li px                75      8.442028  5 Li py         
 
 Vector   27  Occ=0.000000D+00  E= 1.605841D-02
              MO Center= -1.4D+00, -2.3D-01,  1.5D-01, r^2= 7.7D+01
   Bfn.  Coefficient  Atom+Function         Bfn.  Coefficient  Atom+Function  
  ----- ------------  ---------------      ----- ------------  ---------------
    73    125.679899  5 Li s                102   -110.412414  6 Li s          
   131    -33.409075  7 Li s                 14     18.140810  1 Li s          
    76     13.639060  5 Li pz               105     12.682104  6 Li pz         
    69     12.381668  5 Li s                 75    -11.573621  5 Li py         
    98    -10.878512  6 Li s                104    -10.618680  6 Li py         
 
 Vector   28  Occ=0.000000D+00  E= 1.608385D-02
              MO Center=  5.8D-01, -7.1D-01, -1.4D+00, r^2= 7.6D+01
   Bfn.  Coefficient  Atom+Function         Bfn.  Coefficient  Atom+Function  
  ----- ------------  ---------------      ----- ------------  ---------------
   131    140.995043  7 Li s                102    -88.305591  6 Li s          
    73    -37.975249  5 Li s                 14    -14.713323  1 Li s          
   127     13.875935  7 Li s                132     13.897322  7 Li px         
   133    -12.964443  7 Li py               134    -10.947574  7 Li pz         
   103     10.593015  6 Li px               104     -9.661338  6 Li py         
 
 Vector   29  Occ=0.000000D+00  E= 2.048188D-02
              MO Center= -1.3D-05, -4.2D-04, -5.8D-04, r^2= 5.4D+01
   Bfn.  Coefficient  Atom+Function         Bfn.  Coefficient  Atom+Function  
  ----- ------------  ---------------      ----- ------------  ---------------
    76     -0.930542  5 Li pz                16      0.924619  1 Li py         
    17     -0.928843  1 Li pz               104      0.926216  6 Li py         
   134      0.925619  7 Li pz                75     -0.920919  5 Li py         
   105      0.924477  6 Li pz               133     -0.923209  7 Li py         
   101     -0.513975  6 Li pz                12     -0.511263  1 Li py         
 
 Vector   30  Occ=0.000000D+00  E= 2.048209D-02
              MO Center= -2.4D-04, -1.3D-04, -3.0D-04, r^2= 5.4D+01
   Bfn.  Coefficient  Atom+Function         Bfn.  Coefficient  Atom+Function  
  ----- ------------  ---------------      ----- ------------  ---------------
    15      1.068364  1 Li px                74     -1.067654  5 Li px         
   103     -1.068267  6 Li px               132      1.070667  7 Li px         
    11     -0.591814  1 Li px                70      0.591830  5 Li px         
    99      0.591497  6 Li px               128     -0.590899  7 Li px         
    16     -0.538915  1 Li py                75      0.537615  5 Li py         
 
 Vector   31  Occ=0.000000D+00  E= 3.227123D-02
              MO Center= -7.8D-02, -9.9D-02, -1.4D-01, r^2= 6.7D+01
   Bfn.  Coefficient  Atom+Function         Bfn.  Coefficient  Atom+Function  
  ----- ------------  ---------------      ----- ------------  ---------------
    14    135.821374  1 Li s                 73    -64.394845  5 Li s          
   102    -41.999385  6 Li s                131    -29.421760  7 Li s          
    10     25.432796  1 Li s                 15     13.961986  1 Li px         
    16     13.611455  1 Li py                17     12.960064  1 Li pz         
    69    -11.986860  5 Li s                 74      8.305754  5 Li px         
 
 Vector   32  Occ=0.000000D+00  E= 3.233132D-02
              MO Center=  1.6D-01,  6.6D-03, -1.1D-02, r^2= 6.7D+01
   Bfn.  Coefficient  Atom+Function         Bfn.  Coefficient  Atom+Function  
  ----- ------------  ---------------      ----- ------------  ---------------
    73    116.657446  5 Li s                102   -102.480773  6 Li s          
   131    -31.025804  7 Li s                 69     21.872641  5 Li s          
    98    -19.071381  6 Li s                 14     16.858756  1 Li s          
    76     13.284914  5 Li pz               105     12.145104  6 Li pz         
    75    -11.804718  5 Li py               104    -10.757015  6 Li py         
 
 Vector   33  Occ=0.000000D+00  E= 3.235335D-02
              MO Center= -3.3D-02,  2.4D-02, -6.8D-03, r^2= 5.7D+01
   Bfn.  Coefficient  Atom+Function         Bfn.  Coefficient  Atom+Function  
  ----- ------------  ---------------      ----- ------------  ---------------
   102      6.133220  6 Li s                 98      5.195664  6 Li s          
    43     -4.951822  3 H  s                 33     -4.842623  2 H  s          
   150     -4.815367  8 H  s                 53     -4.752358  4 H  s          
   131     -4.656277  7 Li s                 69      4.098605  5 Li s          
    10      3.836709  1 Li s                127      3.177104  7 Li s          
 
 Vector   34  Occ=0.000000D+00  E= 3.236426D-02
              MO Center= -5.0D-02,  5.8D-02,  1.4D-01, r^2= 6.7D+01
   Bfn.  Coefficient  Atom+Function         Bfn.  Coefficient  Atom+Function  
  ----- ------------  ---------------      ----- ------------  ---------------
   131    131.231480  7 Li s                102    -82.046957  6 Li s          
    73    -35.356251  5 Li s                127     24.692416  7 Li s          
    98    -15.149914  6 Li s                132     13.944293  7 Li px         
    14    -13.804448  1 Li s                133    -13.262871  7 Li py         
   134    -11.849426  7 Li pz               103     10.082096  6 Li px         
 
 Vector   35  Occ=0.000000D+00  E= 3.714694D-02
              MO Center=  1.8D-01,  3.0D-01,  3.3D-01, r^2= 7.6D+01
   Bfn.  Coefficient  Atom+Function         Bfn.  Coefficient  Atom+Function  
  ----- ------------  ---------------      ----- ------------  ---------------
   105     -8.257208  6 Li pz               134      8.229670  7 Li pz         
    75      7.991329  5 Li py               133     -7.939645  7 Li py         
    74     -6.125141  5 Li px               103      6.104376  6 Li px         
   130     -3.091354  7 Li pz               101      3.073713  6 Li pz         
   129      3.010027  7 Li py                71     -2.976895  5 Li py         
 
 Vector   36  Occ=0.000000D+00  E= 3.714729D-02
              MO Center=  2.5D-03, -3.8D-01,  4.0D-03, r^2= 7.6D+01
   Bfn.  Coefficient  Atom+Function         Bfn.  Coefficient  Atom+Function  
  ----- ------------  ---------------      ----- ------------  ---------------
    16      9.086006  1 Li py               104     -9.036638  6 Li py         
    15     -5.776738  1 Li px               103     -5.766294  6 Li px         
    74      5.716881  5 Li px               132      5.727401  7 Li px         
   100      3.441058  6 Li py                12     -3.409697  1 Li py         
   105     -3.403450  6 Li pz               134      3.375122  7 Li pz         
 
 Vector   37  Occ=0.000000D+00  E= 3.714740D-02
              MO Center= -1.8D-01,  9.3D-02, -3.1D-01, r^2= 7.6D+01
   Bfn.  Coefficient  Atom+Function         Bfn.  Coefficient  Atom+Function  
  ----- ------------  ---------------      ----- ------------  ---------------
    17      8.584905  1 Li pz                76     -8.533066  5 Li pz         
    15     -7.458569  1 Li px               132      7.362222  7 Li px         
    75     -4.421892  5 Li py               133      4.394119  7 Li py         
    74     -4.295516  5 Li px               103      4.199221  6 Li px         
    72      3.264070  5 Li pz                13     -3.230848  1 Li pz         
 
 Vector   38  Occ=0.000000D+00  E= 3.895993D-02
              MO Center= -8.5D-01, -9.6D-01, -1.3D+00, r^2= 3.9D+01
   Bfn.  Coefficient  Atom+Function         Bfn.  Coefficient  Atom+Function  
  ----- ------------  ---------------      ----- ------------  ---------------
    14     52.692674  1 Li s                 10    -28.210525  1 Li s          
    73    -25.004672  5 Li s                102    -16.184585  6 Li s          
    69     13.386036  5 Li s                131    -11.503255  7 Li s          
    98      8.670135  6 Li s                127      6.157174  7 Li s          
    15      5.731503  1 Li px                11     -5.544138  1 Li px         
 
 Vector   39  Occ=0.000000D+00  E= 3.896318D-02
              MO Center=  1.4D+00,  2.4D-01, -1.5D-01, r^2= 4.0D+01
   Bfn.  Coefficient  Atom+Function         Bfn.  Coefficient  Atom+Function  
  ----- ------------  ---------------      ----- ------------  ---------------
    73     45.268820  5 Li s                102    -39.676298  6 Li s          
    69    -24.147526  5 Li s                 98     21.163570  6 Li s          
   131    -12.219426  7 Li s                 14      6.626979  1 Li s          
   127      6.516852  7 Li s                 76      5.451027  5 Li pz         
    72     -5.010126  5 Li pz               105      5.012514  6 Li pz         
 
 Vector   40  Occ=0.000000D+00  E= 3.896498D-02
              MO Center= -5.9D-01,  7.2D-01,  1.4D+00, r^2= 4.0D+01
   Bfn.  Coefficient  Atom+Function         Bfn.  Coefficient  Atom+Function  
  ----- ------------  ---------------      ----- ------------  ---------------
   131     50.871991  7 Li s                102    -32.062069  6 Li s          
   127    -27.080896  7 Li s                 98     17.065683  6 Li s          
    73    -13.608488  5 Li s                 69      7.242953  5 Li s          
   132      5.703277  7 Li px               133     -5.441227  7 Li py         
   128     -5.410289  7 Li px               129      5.278695  7 Li py         
 
 Vector   41  Occ=0.000000D+00  E= 6.999174D-02
              MO Center=  2.7D-06, -1.9D-05, -2.5D-05, r^2= 2.5D+01
   Bfn.  Coefficient  Atom+Function         Bfn.  Coefficient  Atom+Function  
  ----- ------------  ---------------      ----- ------------  ---------------
    13     -0.787662  1 Li pz                72     -0.787635  5 Li pz         
   101      0.787715  6 Li pz               130      0.787699  7 Li pz         
    12      0.783516  1 Li py                71     -0.783573  5 Li py         
   100      0.783505  6 Li py               129     -0.783528  7 Li py         
    17      0.584864  1 Li pz                76      0.585066  5 Li pz         
 
 Vector   42  Occ=0.000000D+00  E= 6.999182D-02
              MO Center= -8.1D-06, -1.1D-05, -1.8D-05, r^2= 2.5D+01
   Bfn.  Coefficient  Atom+Function         Bfn.  Coefficient  Atom+Function  
  ----- ------------  ---------------      ----- ------------  ---------------
    11      0.907156  1 Li px                70     -0.907151  5 Li px         
    99     -0.907138  6 Li px               128      0.907112  7 Li px         
    15     -0.673370  1 Li px                74      0.673230  5 Li px         
   103      0.673311  6 Li px               132     -0.673584  7 Li px         
     7     -0.633488  1 Li px                66      0.633514  5 Li px         
 
 Vector   43  Occ=0.000000D+00  E= 8.558599D-02
              MO Center= -3.3D-01, -3.8D-01, -5.0D-01, r^2= 3.4D+01
   Bfn.  Coefficient  Atom+Function         Bfn.  Coefficient  Atom+Function  
  ----- ------------  ---------------      ----- ------------  ---------------
    14    116.496733  1 Li s                 73    -55.258649  5 Li s          
   102    -35.973699  6 Li s                131    -25.265347  7 Li s          
    15     11.172668  1 Li px                16     10.783596  1 Li py         
    17     10.085507  1 Li pz                74      7.032638  5 Li px         
    10     -6.957194  1 Li s                 75      6.646531  5 Li py         
 
 Vector   44  Occ=0.000000D+00  E= 8.561505D-02
              MO Center=  5.7D-01,  9.4D-02, -6.0D-02, r^2= 3.4D+01
   Bfn.  Coefficient  Atom+Function         Bfn.  Coefficient  Atom+Function  
  ----- ------------  ---------------      ----- ------------  ---------------
    73     99.958489  5 Li s                102    -87.793141  6 Li s          
   131    -26.682416  7 Li s                 14     14.516655  1 Li s          
    76     10.890334  5 Li pz               105     10.072690  6 Li pz         
    75     -9.407157  5 Li py               104     -8.580923  6 Li py         
    74     -7.198345  5 Li px                69     -5.960629  5 Li s          
 
 Vector   45  Occ=0.000000D+00  E= 8.563099D-02
              MO Center= -2.4D-01,  2.9D-01,  5.6D-01, r^2= 3.4D+01
   Bfn.  Coefficient  Atom+Function         Bfn.  Coefficient  Atom+Function  
  ----- ------------  ---------------      ----- ------------  ---------------
   131    112.418516  7 Li s                102    -70.495742  6 Li s          
    73    -30.206345  5 Li s                 14    -11.715964  1 Li s          
   132     11.236067  7 Li px               133    -10.571805  7 Li py         
   134     -9.118524  7 Li pz               103      8.403218  6 Li px         
   104     -7.734134  6 Li py               127     -6.704760  7 Li s          
 
 Vector   46  Occ=0.000000D+00  E= 8.930341D-02
              MO Center= -8.0D-04, -1.9D-03, -2.8D-03, r^2= 3.6D+01
   Bfn.  Coefficient  Atom+Function         Bfn.  Coefficient  Atom+Function  
  ----- ------------  ---------------      ----- ------------  ---------------
    33     14.576994  2 H  s                 43     14.577573  3 H  s          
    53     14.578300  4 H  s                150     14.574987  8 H  s          
    10    -12.101172  1 Li s                 69    -12.086304  5 Li s          
    98    -12.081039  6 Li s                127    -12.074604  7 Li s          
    11     -2.986747  1 Li px                12     -2.986801  1 Li py         
 
 Vector   47  Occ=0.000000D+00  E= 9.672704D-02
              MO Center=  4.0D-01,  4.5D-01,  5.9D-01, r^2= 2.4D+01
   Bfn.  Coefficient  Atom+Function         Bfn.  Coefficient  Atom+Function  
  ----- ------------  ---------------      ----- ------------  ---------------
    10     27.864240  1 Li s                 14    -25.495764  1 Li s          
    69    -13.203643  5 Li s                 73     12.078095  5 Li s          
    98     -8.622623  6 Li s                102      7.880294  6 Li s          
   150     -7.512279  8 H  s                127     -6.054867  7 Li s          
[...]
   ----- ----- ----- ----- -----
   11    1.87178D+01
   12    2.03799D+00  1.87094D+01
   13    6.04925D-01 -1.52257D-01  3.40637D+00
   14   -3.80633D+00  2.83516D-01  4.38789D-01  3.40655D+00
   15   -6.07053D-01 -1.64797D+00 -4.38169D-01 -4.38037D-01  3.40799D+00
   16   -1.50611D-01  6.02930D-01  2.53155D-01 -8.98640D-02  9.10564D-02  3.40760D+00
   17   -1.64838D+00 -6.05217D-01  8.83163D-02 -4.43860D-01  6.99285D-01 -4.37598D-01  3.40680D+00
   18    2.86029D-01 -3.80436D+00 -8.67934D-02  6.99678D-01 -4.44636D-01  4.38491D-01 -4.37460D-01  3.40587D+00
   19   -2.04564D-01 -2.04085D-01 -4.43833D-01  8.76287D-02  6.99211D-01 -4.44107D-01  6.99602D-01  8.74158D-02  3.40542D+00
   20   -2.15209D-01  2.14374D-01 -8.95917D-02  2.53014D-01  9.02557D-02  6.99820D-01 -4.44277D-01 -8.79264D-02 -4.37919D-01  3.40660D+00
   21    2.14091D-01 -2.15127D-01  6.99809D-01 -8.74219D-02 -4.44897D-01 -9.00585D-02  9.01527D-02  2.53191D-01 -4.37721D-01  4.38182D-01
   22    7.16463D-01  7.18273D-01 -1.64616D+00  1.54540D-01  2.80636D-01 -1.64651D+00  2.81483D-01  1.52730D-01 -3.80520D+00 -6.07316D-01
   23   -9.31311D-01 -2.14456D+00  1.53211D-01 -1.64457D+00  2.79815D-01 -6.08206D-01 -3.80601D+00 -6.09599D-01  2.79234D-01 -1.64514D+00
   24   -2.14476D+00 -9.30880D-01 -6.10217D-01 -6.09746D-01 -3.80557D+00  1.51562D-01  2.80175D-01 -1.64507D+00  2.80076D-01  1.50357D-01


              21           22           23           24
   ----- ----- ----- ----- -----
   21    3.40752D+00
   22   -6.07652D-01  1.87079D+01
   23    1.50654D-01  2.03805D+00  1.87060D+01
   24   -1.64542D+00  2.03971D+00  2.03937D+00  1.87074D+01

 center of mass
 --------------
 x =  -0.00000178 y =  -0.00000137 z =  -0.00000048

 moments of inertia (a.u.)
 ------------------
         219.038076754290          -0.000048883684          -0.000074506643
          -0.000048883684         219.038030270771          -0.000036205842
          -0.000074506643          -0.000036205842         219.037999948091

 Rotational Constants
 --------------------
 A=   0.274839 cm-1  (  0.395423 K)
 B=   0.274839 cm-1  (  0.395423 K)
 C=   0.274839 cm-1  (  0.395423 K)


 Temperature                      =   298.15K
 frequency scaling parameter      =   1.0000

 Zero-Point correction to Energy  =   15.209 kcal/mol  (  0.024236 au)
 Thermal correction to Energy     =   19.259 kcal/mol  (  0.030692 au)
 Thermal correction to Enthalpy   =   19.852 kcal/mol  (  0.031636 au)

 Total Entropy                    =   71.383 cal/mol-K
   - Translational                =   36.314 cal/mol-K (mol. weight =  32.0953)
   - Rotational                   =   23.857 cal/mol-K (symmetry #  =        1)
   - Vibrational                  =   11.212 cal/mol-K

 Cv (constant volume heat capacity) =   25.204 cal/mol-K
   - Translational                  =    2.979 cal/mol-K
   - Rotational                     =    2.979 cal/mol-K
   - Vibrational                    =   19.246 cal/mol-K



          -------------------------------------------------
          NORMAL MODE EIGENVECTORS IN CARTESIAN COORDINATES
          -------------------------------------------------
             (Projected Frequencies expressed in cm-1)

                    1           2           3           4           5           6
 
 P.Frequency       -0.00        0.00        0.00        0.00        0.00        0.00
 
           1     0.02944    -0.22527     0.06241     0.02499     0.03757    -0.06313
           2     0.00119     0.00679    -0.09196    -0.21887     0.03694     0.06128
           3    -0.06954     0.04509    -0.00262     0.01186    -0.21898    -0.08099
           4     0.03056    -0.08471    -0.06154     0.03169    -0.01437    -0.23384
           5    -0.20377     0.03195     0.02970    -0.15453    -0.01822     0.01249
           6    -0.07909     0.05285    -0.00272     0.01519    -0.22399    -0.09127
           7    -0.11462    -0.19621    -0.07437    -0.01901     0.03717     0.09423
           8     0.00371     0.00737    -0.10466    -0.22403     0.03939     0.07091
           9     0.12839     0.02827    -0.13708    -0.05431    -0.16639    -0.03285
          10     0.03647    -0.23360     0.07522     0.02683     0.04015    -0.06247
          11     0.15480    -0.03002     0.04492    -0.17819     0.04236    -0.08579
          12    -0.07319    -0.09604     0.13403     0.01033    -0.16948     0.08010
          13    -0.10813    -0.19122    -0.07379    -0.01674     0.03487     0.07955
          14     0.13876    -0.02725     0.04424    -0.17713     0.03965    -0.08140
          15     0.12475    -0.11286    -0.00043    -0.05585    -0.11690     0.12824
          16     0.02407    -0.08970    -0.06211     0.02942    -0.01206    -0.21916
          17    -0.05016    -0.00487     0.16658    -0.11385    -0.01280    -0.13459
          18    -0.06417    -0.09048     0.12190     0.00744    -0.16934     0.07504
          19    -0.11350    -0.05566    -0.19831    -0.01231    -0.01477    -0.07648
          20    -0.18773     0.02917     0.03038    -0.15559    -0.01550     0.00809
          21     0.11937     0.02270    -0.12495    -0.05142    -0.16653    -0.02780
          22    -0.12053    -0.04733    -0.21112    -0.01415    -0.01734    -0.07714
          23    -0.05268    -0.00544     0.17928    -0.10869    -0.01524    -0.14422
          24     0.13429    -0.12062    -0.00033    -0.05917    -0.11188     0.13852

                    7           8           9          10          11          12
 
 P.Frequency      300.67      300.70      324.16      324.30      324.38      411.39
 
           1     0.14874     0.03913    -0.08697     0.06617     0.15030    -0.10899
           2    -0.10757     0.10982     0.08404     0.11499     0.11960    -0.10890
           3    -0.04058    -0.14857     0.04641    -0.05176     0.17225    -0.10888
           4    -0.03897    -0.00960    -0.00707     0.07188    -0.03680    -0.01549
           5     0.02848    -0.02807    -0.04294     0.06172    -0.03047    -0.01513
           6    -0.01058    -0.03937     0.02447    -0.04732     0.05994     0.01537
           7    -0.03927    -0.01096    -0.03885    -0.07006     0.00806    -0.01524
           8    -0.02804     0.02939     0.04829     0.05831     0.02671     0.01540
           9     0.01049     0.03829    -0.06725    -0.04557     0.00331    -0.01526
          10     0.03948     0.01043    -0.05952     0.02787     0.04648     0.01563
          11     0.02787    -0.02896     0.06933    -0.03955    -0.01140    -0.01510
          12     0.01020     0.03878     0.07740    -0.00445    -0.02248    -0.01489
          13    -0.14878    -0.04046    -0.03598    -0.17291     0.05685     0.10889
          14     0.10739    -0.10993     0.13572    -0.12459     0.02548     0.10884
          15    -0.04034    -0.14716    -0.04766     0.06143    -0.17000    -0.10885
          16    -0.14787    -0.03742     0.04228     0.17436    -0.05253     0.10882
          17    -0.10823     0.10814    -0.08832    -0.11933    -0.11315    -0.10872
          18     0.04043     0.14861     0.17560     0.05228    -0.03035     0.10879
          19     0.14790     0.03874     0.09389    -0.06802    -0.14632    -0.10874
          20     0.10844    -0.10818    -0.13905     0.12264    -0.01989     0.10871
          21     0.04057     0.14731    -0.17734    -0.04769     0.03366     0.10883
          22     0.03884     0.01020     0.01346    -0.02692    -0.07549     0.01521
          23    -0.02856     0.02862    -0.02166    -0.03663    -0.06864     0.01537
          24    -0.01074    -0.03900    -0.01381    -0.00184    -0.07946     0.01553

                   13          14          15          16          17          18
 
 P.Frequency      573.32      573.34      573.50      735.67      735.72      764.37
 
           1    -0.04528    -0.05662     0.00055     0.01484    -0.00316     0.03862
           2    -0.02636     0.06739     0.00091    -0.00473     0.01458     0.02956
           3     0.07149    -0.01093    -0.00152    -0.01017    -0.01147     0.01795
           4    -0.20045     0.16331     0.38050     0.39661    -0.08245    -0.33121
           5    -0.25532    -0.09512    -0.37115    -0.12608     0.38423    -0.26287
           6    -0.45353     0.06991     0.00978     0.26899     0.30241    -0.19330
           7     0.19908    -0.16445    -0.38031     0.39678    -0.08254    -0.32293
           8     0.16768    -0.42706    -0.00539     0.12591    -0.38412    -0.26822
           9    -0.03272    -0.26504     0.37450    -0.26895    -0.30191    -0.18838
          10     0.28775     0.35982    -0.00363    -0.39482     0.08314    -0.31911
          11     0.25394     0.09397     0.37072    -0.12852     0.38413    -0.27207
          12     0.03194     0.26356    -0.37494    -0.27100    -0.30173    -0.20594
          13    -0.03167     0.02594     0.05997    -0.01505     0.00305     0.04545
          14    -0.04034    -0.01500    -0.05846     0.00495    -0.01453     0.03640
          15    -0.07148     0.01107     0.00147    -0.01012    -0.01136     0.03845
          16     0.03165    -0.02598    -0.05996    -0.01498     0.00313     0.04832
          17     0.02656    -0.06736    -0.00093    -0.00468     0.01451     0.04708
          18    -0.00515    -0.04184     0.05922     0.01030     0.01141     0.02775
          19     0.04547     0.05678    -0.00063     0.01488    -0.00309     0.05495
          20     0.04033     0.01494     0.05854     0.00486    -0.01452     0.04025
          21     0.00509     0.04186    -0.05915     0.01023     0.01137     0.02871
          22    -0.28762    -0.35954     0.00392    -0.39642     0.08235    -0.33094
          23    -0.16764     0.42845     0.00544     0.12589    -0.38449    -0.26393
          24     0.45462    -0.06945    -0.00939     0.26922     0.30157    -0.19805

                   19          20          21          22          23          24
 
 P.Frequency      764.72      764.93      767.86      767.99      768.10      868.49
 
           1     0.01222     0.05338    -0.01738     0.01412     0.02069     0.00563
           2     0.03750    -0.04972     0.00704     0.01446     0.02025     0.00582
           3    -0.06392    -0.01834    -0.00414    -0.00586     0.02501     0.00585
           4    -0.08217    -0.31885    -0.23911    -0.42231     0.07384    -0.28498
           5    -0.23459     0.29564     0.27075    -0.37324     0.18473    -0.28678
           6     0.42148     0.14099     0.06882     0.12708    -0.45083     0.28743
           7    -0.04545    -0.33029     0.22612     0.42202    -0.12108    -0.28489
           8    -0.22124     0.33966    -0.14826    -0.26775    -0.35981     0.28773
           9     0.40749     0.09649     0.48858     0.02087     0.09294    -0.28697
          10    -0.06189    -0.31529     0.31152    -0.24180    -0.31191     0.28828
          11    -0.20496     0.32248    -0.23208     0.39579    -0.16643    -0.28818
          12     0.40056     0.13406    -0.47954    -0.05470    -0.06406    -0.28752
          13    -0.00251     0.05009    -0.01249    -0.02421     0.00898    -0.00606
          14     0.02270    -0.05283     0.01181    -0.02390     0.00836    -0.00568
          15    -0.05228    -0.01520     0.00309     0.01049    -0.02935     0.00591
          16     0.02071     0.04291     0.01424     0.02431    -0.00230    -0.00601
          17     0.02565    -0.03938    -0.01250    -0.01776    -0.02286     0.00587
          18    -0.05519    -0.02860     0.02735     0.00441     0.00197    -0.00577
          19     0.00619     0.04000     0.01887    -0.01390    -0.01392     0.00520
          20     0.04023    -0.03635    -0.01738     0.02066    -0.01089    -0.00589
          21    -0.06087    -0.00505    -0.02858     0.00041    -0.00612    -0.00589
          22    -0.06535    -0.33302    -0.32106     0.23992     0.26554     0.29019
          23    -0.21692     0.28332     0.18638     0.29080     0.37728     0.28643
          24     0.38744     0.09620    -0.06204    -0.15905     0.48097     0.28632



 ----------------------------------------------------------------------------
 Normal Eigenvalue ||    Projected Derivative Dipole Moments (debye/angs)
  Mode   [cm**-1]  ||      [d/dqX]             [d/dqY]           [d/dqZ]
 ------ ---------- || ------------------ ------------------ -----------------
    1       -0.000 ||      -0.006              -0.000             0.005
    2        0.000 ||       0.018               0.001             0.006
    3        0.000 ||      -0.007               0.005             0.003
    4        0.000 ||      -0.001               0.018             0.002
    5        0.000 ||       0.000              -0.002             0.018
    6        0.000 ||      -0.008              -0.005             0.003
    7      300.668 ||      -0.000               0.001             0.003
    8      300.698 ||       0.000              -0.005             0.006
    9      324.164 ||      -0.558               0.323             0.127
   10      324.304 ||      -0.017              -0.265             0.601
   11      324.380 ||       0.348               0.509             0.235
   12      411.387 ||      -0.000              -0.001            -0.002
   13      573.324 ||       0.004               0.007             0.007
   14      573.342 ||       0.006               0.005             0.011
   15      573.499 ||      -0.005               0.006            -0.000
   16      735.673 ||      -0.012               0.014             0.003
   17      735.721 ||      -0.002               0.007            -0.005
   18      764.367 ||      -3.591              -2.954            -2.171
   19      764.718 ||       0.717               2.438            -4.476
   20      764.926 ||       3.611              -3.425            -1.280
   21      767.860 ||      -0.254               0.207             0.023
   22      767.988 ||       0.086               0.006            -0.317
   23      768.098 ||      -0.147              -0.393            -0.310
   24      868.489 ||      -0.024               0.006             0.001
 ----------------------------------------------------------------------------



  
  
 ----------------------------------------------------------------------------
 Normal Eigenvalue ||           Projected Infra Red Intensities
  Mode   [cm**-1]  || [atomic units] [(debye/angs)**2] [(KM/mol)] [arbitrary]
 ------ ---------- || -------------- ----------------- ---------- -----------
    1       -0.000 ||    0.000003           0.000         0.003       0.000
    2        0.000 ||    0.000016           0.000         0.015       0.001
    3        0.000 ||    0.000004           0.000         0.003       0.000
    4        0.000 ||    0.000015           0.000         0.014       0.001
    5        0.000 ||    0.000015           0.000         0.014       0.001
    6        0.000 ||    0.000004           0.000         0.004       0.000
    7      300.668 ||    0.000000           0.000         0.000       0.000
    8      300.698 ||    0.000003           0.000         0.003       0.000
    9      324.164 ||    0.018734           0.432        18.263       1.280
   10      324.304 ||    0.018735           0.432        18.264       1.280
   11      324.380 ||    0.018864           0.435        18.390       1.289
   12      411.387 ||    0.000000           0.000         0.000       0.000
   13      573.324 ||    0.000005           0.000         0.005       0.000
   14      573.342 ||    0.000008           0.000         0.008       0.001
   15      573.499 ||    0.000003           0.000         0.003       0.000
   16      735.673 ||    0.000015           0.000         0.015       0.001
   17      735.721 ||    0.000003           0.000         0.003       0.000
   18      764.367 ||    1.141458          26.334      1112.750      78.002
   19      764.718 ||    1.148468          26.496      1119.584      78.481
   20      764.926 ||    1.144555          26.406      1115.768      78.214
   21      767.860 ||    0.004677           0.108         4.559       0.320
   22      767.988 ||    0.004666           0.108         4.549       0.319
   23      768.098 ||    0.011814           0.273        11.517       0.807
   24      868.489 ||    0.000028           0.001         0.027       0.002
 ----------------------------------------------------------------------------



 vib:animation  F

 Task  times  cpu:      122.6s     wall:      127.1s
 
 
                                NWChem Input Module
                                -------------------
 
 
 Summary of allocated global arrays
-----------------------------------
  No active global arrays



                         GA Statistics for process    0
                         ------------------------------

       create   destroy   get      put      acc     scatter   gather  read&inc
calls: 8362     8362     2.54e+05 4.21e+04 8.20e+04    0        0     1.95e+04 
number of processes/call 1.72e+00 3.53e+00 1.82e+00 0.00e+00 0.00e+00
bytes total:             2.46e+09 2.45e+08 1.01e+09 0.00e+00 0.00e+00 1.56e+05
bytes remote:            1.73e+09 1.80e+08 6.95e+08 0.00e+00 0.00e+00 0.00e+00
Max memory consumed for GA by this process: 790920 bytes
 
MA_summarize_allocated_blocks: starting scan ...
MA_summarize_allocated_blocks: scan completed: 0 heap blocks, 0 stack blocks
MA usage statistics:

	allocation statistics:
					      heap	     stack
					      ----	     -----
	current number of blocks	         0	         0
	maximum number of blocks	        25	        55
	current total bytes		         0	         0
	maximum total bytes		  50851104	  33547096
	maximum total K-bytes		     50852	     33548
	maximum total M-bytes		        51	        34
 
 
                                     CITATION
                                     --------
                Please cite the following reference when publishing
                           results obtained with NWChem:
 
                 M. Valiev, E.J. Bylaska, N. Govind, K. Kowalski,
              T.P. Straatsma, H.J.J. van Dam, D. Wang, J. Nieplocha,
                        E. Apra, T.L. Windus, W.A. de Jong
                 "NWChem: a comprehensive and scalable open-source
                  solution for large scale molecular simulations"
                      Comput. Phys. Commun. 181, 1477 (2010)
                           doi:10.1016/j.cpc.2010.04.018
 
                                      AUTHORS
                                      -------
          E. Apra, E. J. Bylaska, W. A. de Jong, N. Govind, K. Kowalski,
       T. P. Straatsma, M. Valiev, H. J. J. van Dam, D. Wang, T. L. Windus,
        J. Hammond, J. Autschbach, K. Bhaskaran-Nair, J. Brabec, K. Lopata,
       S. A. Fischer, S. Krishnamoorthy, W. Ma, M. Klemm, O. Villa, Y. Chen,
    V. Anisimov, F. Aquino, S. Hirata, M. T. Hackler, V. Konjkov, T. Risthaus,
       M. Malagoli, A. Marenich, A. Otero-de-la-Roza, J. Mullin, P. Nichols,
      R. Peverati, J. Pittner, Y. Zhao, P.-D. Fan, A. Fonari, M. Williamson,
      R. J. Harrison, J. R. Rehr, M. Dupuis, D. Silverstein, D. M. A. Smith,
            J. Nieplocha, V. Tipparaju, M. Krishnan, B. E. Van Kuiken,
        A. Vazquez-Mayagoitia, L. Jensen, M. Swart, Q. Wu, T. Van Voorhis,
     A. A. Auer, M. Nooijen, L. D. Crosby, E. Brown, G. Cisneros, G. I. Fann,
   H. Fruchtl, J. Garza, K. Hirao, R. A. Kendall, J. A. Nichols, K. Tsemekhman,
    K. Wolinski, J. Anchell, D. E. Bernholdt, P. Borowski, T. Clark, D. Clerc,
   H. Dachsel, M. J. O. Deegan, K. Dyall, D. Elwood, E. Glendening, M. Gutowski,
   A. C. Hess, J. Jaffe, B. G. Johnson, J. Ju, R. Kobayashi, R. Kutteh, Z. Lin,
   R. Littlefield, X. Long, B. Meng, T. Nakajima, S. Niu, L. Pollack, M. Rosing,
   K. Glaesemann, G. Sandrone, M. Stave, H. Taylor, G. Thomas, J. H. van Lenthe,
                               A. T. Wong, Z. Zhang.

 Total times  cpu:      167.4s     wall:      175.8s
