ARMCI configured for 4 cluster nodes. Network protocol is 'Quadrics ELAN-4'.
 argument  1 = tce_ozone_2eorb.nw
 Entered input_file-info
 input_file-info: before ga_brdcst
 Entered input_file-info
 Entered input_file-info
 input_file-info: before ga_brdcst
 input_file-info: before ga_brdcst
 Entered input_file-info
 input_file-info: before ga_brdcst
 Entered input_file-info
 input_file-info: before ga_brdcst
 Entered input_file-info
 Entered input_file-info
 input_file-info: before ga_brdcst
 Entered input_file-info
 input_file-info: before ga_brdcst
 


============================== echo of input deck ==============================
start tce_ozone_2eorb

echo

##memory 3500 mb

geometry units bohr
symmetry c2v
O   0.0000000000        0.0000000000        0.0000000000
O   0.0000000000       -2.0473224350       -1.2595211660
O   0.0000000000        2.0473224350       -1.2595211660
end

BASIS spherical
O    S
     10662.285000000      0.00079900
      1599.709700000      0.00615300
       364.725260000      0.03115700
       103.651790000      0.11559600
        33.905805000      0.30155200
O    S
        12.287469000      0.44487000
         4.756805000      0.24317200
O    S
         1.004271000      1.00000000
O    S
         0.300686000      1.00000000
O    S
         0.090030000      1.00000000
O    P
        34.856463000      0.01564800
         7.843131000      0.09819700
         2.306249000      0.30776800
         0.723164000      0.49247000
O    P
         0.214882000      1.00000000
O    P
         0.063850000      1.00000000
O    D
         2.306200000      0.20270000
         0.723200000      0.57910000
O    D
         0.214900000      0.78545000
         0.063900000      0.53387000
END

scf
thresh 1.0e-10
tol2e 1.0e-10
singlet
rhf
end

tce
freeze atomic
2eorb
ccsd(t)
tilesize 20
thresh 1.0d-6
end

task tce energy

================================================================================


 input_file-info: before ga_brdcst
 input_file-info: after ga_brdcst
 input_file-info: after ga_brdcst
 input_file-info: after ga_brdcst
 input_file-info: after ga_brdcst
 input_file-info: after ga_brdcst
 input_file-info: after ga_brdcst
 input_file-info: after ga_brdcst
 input_file-info: after ga_brdcst
                                         
                                         
 
 
              Northwest Computational Chemistry Package (NWChem) 4.7
              ------------------------------------------------------
 
 
                    Environmental Molecular Sciences Laboratory
                       Pacific Northwest National Laboratory
                                Richland, WA 99352
 
                                         
                                         
 
 
                     COPYRIGHT (C) 1994, 1995, 1996, 1997, 1998,
                         1999, 2000, 2001, 2002, 2003, 2004
                        Pacific Northwest National Laboratory,
                             Battelle Memorial Institute.
 
                            >>> All Rights Reserved <<<
 
 
                                    DISCLAIMER
                                    ----------

            This material was prepared as an account of work sponsored
            by an agency of the United States Government.  Neither the
            United States Government nor the United States Department
            of Energy, nor Battelle, nor any of their employees, MAKES
            ANY WARRANTY, EXPRESS OR IMPLIED, OR ASSUMES ANY LEGAL
            LIABILITY OR RESPONSIBILITY FOR THE ACCURACY, COMPLETENESS,
            OR USEFULNESS OF ANY INFORMATION, APPARATUS, PRODUCT,
            SOFTWARE, OR PROCESS DISCLOSED, OR REPRESENTS THAT ITS USE
            WOULD NOT INFRINGE PRIVATELY OWNED RIGHTS.


                                    LIMITED USE
                                    -----------

            This software (including any documentation) is being made
            available to you for your internal use only, solely for use
            in performance of work directly for the U.S. Federal
            Government or work under contracts with the U.S. Department
            of Energy or other U.S. Federal Government agencies.  This
            software is a version which has not yet been evaluated and
            cleared for commercialization.  Adherence to this notice
            may be necessary for the author, Battelle Memorial
            Institute, to successfully assert copyright in and
            commercialize this software. This software is not intended
            for duplication or distribution to third parties without
            the permission of the Manager of Software Products at
            Pacific Northwest National Laboratory, Richland,
            Washington, 99352.


                                  ACKNOWLEDGMENT
                                  --------------

            This software and its documentation were produced with
            Government support under Contract Number DE-AC06-76RLO-1830
            awarded by the United States Department of Energy.  The
            Government retains a paid-up non-exclusive, irrevocable
            worldwide license to reproduce, prepare derivative works,
            perform publicly and display publicly by or for the
            Government, including the right to distribute to other
            Government contractors.


           Job information
           ---------------

    hostname      = m572
    program       = /home/kowalski/nwchem-newintegrals2/bin/LINUX64/nwchem
    date          = Tue Jun  6 15:53:35 2006

    compiled      = Mon Jun  5 08:40:49 PDT 2006
    source        = /home/kowalski/nwchem-newintegrals2
    nwchem branch = Development
    input         = tce_ozone_2eorb.nw
    prefix        = tce_ozone_2eorb.
    data base     = ./tce_ozone_2eorb.db
    status        = startup
    nproc         =    8
    time left     =   1740s
    batch job id  = 321655

           Memory information
           ------------------

    heap      =   13107201 doubles =    100.0 Mbytes
    stack     =   13107201 doubles =    100.0 Mbytes
    global    =   26214400 doubles =    200.0 Mbytes (distinct from heap & stack)
    total     =   52428802 doubles =    400.0 Mbytes
    verify    = yes
    hardfail  = no 


           Directory information
           ---------------------
 
  0 permanent = .
  0 scratch   = /scratch
 
 
 
 
                                NWChem Input Module
                                -------------------
 
 
 Turning off AUTOSYM since
 SYMMETRY directive was detected!
 

          ------
          auto-z
          ------
 
 
                             Geometry "geometry" -> ""
                             -------------------------
 
 Output coordinates in a.u. (scale by  1.000000000 to convert to a.u.)
 
  No.       Tag          Charge          X              Y              Z
 ---- ---------------- ---------- -------------- -------------- --------------
    1 O                    8.0000     0.00000000     0.00000000     0.83968078
    2 O                    8.0000     0.00000000    -2.04732244    -0.41984039
    3 O                    8.0000     0.00000000     2.04732244    -0.41984039
 
      Atomic Mass 
      ----------- 
 
      O                 15.994910
 

 Effective nuclear repulsion energy (a.u.)      68.8807220355

            Nuclear Dipole moment (a.u.) 
            ----------------------------
        X                 Y               Z
 ---------------- ---------------- ----------------
     0.0000000000     0.0000000000     0.0000000000
 
      Symmetry information
      --------------------
 
 Group name             C2v       
 Group number             16
 Group order               4
 No. of unique centers     2
 
      Symmetry unique atoms
 
     1    2
 


                                Z-matrix (autoz)
                                -------- 

 Units are Angstrom for bonds and degrees for angles
 
      Type          Name      I     J     K     L     M      Value
      ----------- --------  ----- ----- ----- ----- ----- ----------
    1 Stretch                  1     2                       1.27200
    2 Stretch                  1     3                       1.27200
    3 Bend                     2     1     3               116.80000
 
 
            XYZ format geometry
            -------------------
     3
 geometry
 O                     0.00000000     0.00000000     0.44433996
 O                     0.00000000    -1.08339645    -0.22216998
 O                     0.00000000     1.08339645    -0.22216998
 
 ==============================================================================
                                internuclear distances
 ------------------------------------------------------------------------------
       center one      |      center two      | atomic units |       a.u.
 ------------------------------------------------------------------------------
    2 O                |   1 O                |     2.40373  |     2.40373
    3 O                |   1 O                |     2.40373  |     2.40373
 ------------------------------------------------------------------------------
                         number of included internuclear distances:          2
 ==============================================================================



 ==============================================================================
                                 internuclear angles
 ------------------------------------------------------------------------------
        center 1       |       center 2       |       center 3       |  degrees
 ------------------------------------------------------------------------------
    2 O                |   1 O                |   3 O                |   116.80
 ------------------------------------------------------------------------------
                            number of included internuclear angles:          1
 ==============================================================================



                      Basis "ao basis" -> "" (spherical)
                      -----
  O (Oxygen)
  ----------
            Exponent  Coefficients 
       -------------- ---------------------------------------------------------
  1 S  1.06622850E+04  0.000799
  1 S  1.59970970E+03  0.006153
  1 S  3.64725260E+02  0.031157
  1 S  1.03651790E+02  0.115596
  1 S  3.39058050E+01  0.301552
 
  2 S  1.22874690E+01  0.444870
  2 S  4.75680500E+00  0.243172
 
  3 S  1.00427100E+00  1.000000
 
  4 S  3.00686000E-01  1.000000
 
  5 S  9.00300000E-02  1.000000
 
  6 P  3.48564630E+01  0.015648
  6 P  7.84313100E+00  0.098197
  6 P  2.30624900E+00  0.307768
  6 P  7.23164000E-01  0.492470
 
  7 P  2.14882000E-01  1.000000
 
  8 P  6.38500000E-02  1.000000
 
  9 D  2.30620000E+00  0.202700
  9 D  7.23200000E-01  0.579100
 
 10 D  2.14900000E-01  0.785450
 10 D  6.39000000E-02  0.533870
 


 Summary of "ao basis" -> "" (spherical)
 ------------------------------------------------------------------------------
       Tag                 Description            Shells   Functions and Types
 ---------------- ------------------------------  ------  ---------------------
 O                       user specified             10       24   5s3p2d


                                 NWChem SCF Module
                                 -----------------
 
 

  ao basis        = "ao basis"
  functions       =    72
  atoms           =     3
  closed shells   =    12
  open shells     =     0
  charge          =   0.00
  wavefunction    = RHF 
  input vectors   = atomic
  output vectors  = ./tce_ozone_2eorb.movecs
  use symmetry    = T
  symmetry adapt  = T


 Summary of "ao basis" -> "ao basis" (spherical)
 ------------------------------------------------------------------------------
       Tag                 Description            Shells   Functions and Types
 ---------------- ------------------------------  ------  ---------------------
 O                       user specified             10       24   5s3p2d


      Symmetry analysis of basis
      --------------------------
 
        a1         29
        a2          9
        b1         12
        b2         22
 

 Forming initial guess at       0.5s

 
      Superposition of Atomic Density Guess
      -------------------------------------
 
 Sum of atomic energies:        -224.33629831
 
      Non-variational initial energy
      ------------------------------

 Total energy =    -224.636803
 1-e energy   =    -446.716128
 2-e energy   =     153.198603
 HOMO         =      -0.325374
 LUMO         =      -0.166284
 
 
      Symmetry analysis of molecular orbitals - initial
      -------------------------------------------------
 
  Numbering of irreducible representations: 
 
     1 a1          2 a2          3 b1          4 b2      
 
  Orbital symmetries:
 
     1 a1          2 b2          3 a1          4 a1          5 b2      
     6 a1          7 b2          8 a1          9 b1         10 a2      
    11 b2         12 a1         13 b1         14 b2         15 a1      
    16 a1         17 b1         18 a1         19 b2         20 a2      
    21 b1         22 a1      
 

 Starting SCF solution at       0.7s



 ----------------------------------------------
         Quadratically convergent ROHF

 Convergence threshold     :          1.000E-10
 Maximum no. of iterations :           20
 Final Fock-matrix accuracy:          1.000E-10
 ----------------------------------------------


 Integral file          = /scratch/tce_ozone_2eorb.aoints.0
 Record size in doubles =  65536        No. of integs per rec  =  43688
 Max. records in memory =      6        Max. records in file   =  10901
 No. of bits per label  =      8        No. of bits per value  =     64


 #quartets = 6.375D+04 #integrals = 9.973D+05 #direct =  0.0% #cached =100.0%


File balance: exchanges=     0  moved=     0  time=   0.0


              iter       energy          gnorm     gmax       time
             ----- ------------------- --------- --------- --------
                 1     -224.1518589385  1.89D+00  6.42D-01      1.0
                 2     -224.3121598852  4.03D-01  8.70D-02      1.1
                 3     -224.3273672683  2.13D-02  6.58D-03      1.2
                 4     -224.3274304257  1.63D-04  5.47D-05      1.3
                 5     -224.3274304292  5.24D-09  1.13D-09      1.5
                 6     -224.3274304292  9.68D-12  3.38D-12      1.7


       Final RHF  results 
       ------------------ 

         Total SCF energy =   -224.327430429166
      One-electron energy =   -445.079396986042
      Two-electron energy =    151.871244521393
 Nuclear repulsion energy =     68.880722035483

        Time for solution =      1.0s


 
       Symmetry analysis of molecular orbitals - final
       -----------------------------------------------
 
  Numbering of irreducible representations: 
 
     1 a1          2 a2          3 b1          4 b2      
 
  Orbital symmetries:
 
     1 a1          2 b2          3 a1          4 a1          5 b2      
     6 a1          7 a1          8 b2          9 b1         10 b2      
    11 a1         12 a2         13 b1         14 b2         15 a1      
    16 a1         17 b1         18 a1         19 b2         20 a2      
    21 b1         22 a1      
 
             Final eigenvalues
             -----------------

              1      
    1  -20.9188
    2  -20.7104
    3  -20.7103
    4   -1.7576
    5   -1.4376
    6   -1.0960
    7   -0.8365
    8   -0.8045
    9   -0.7857
   10   -0.5660
   11   -0.5551
   12   -0.4901
   13   -0.0495
   14    0.1106
   15    0.1132
   16    0.1336
   17    0.1606
   18    0.1960
   19    0.2041
   20    0.2118
   21    0.2210
   22    0.2576
 
                       ROHF Final Molecular Orbital Analysis
                       -------------------------------------
 
 Vector    3  Occ=2.000000D+00  E=-2.071030D+01  Symmetry=a1
              MO Center=  2.4D-20, -7.0D-16, -2.2D-01, r^2= 1.2D+00
   Bfn.  Coefficient  Atom+Function         Bfn.  Coefficient  Atom+Function  
  ----- ------------  ---------------      ----- ------------  ---------------
    50      0.469350  3 O  s                 26      0.469350  2 O  s          
    49      0.296450  3 O  s                 25      0.296450  2 O  s          
 
 Vector    4  Occ=2.000000D+00  E=-1.757565D+00  Symmetry=a1
              MO Center= -2.5D-32, -1.9D-17,  1.5D-01, r^2= 6.8D-01
   Bfn.  Coefficient  Atom+Function         Bfn.  Coefficient  Atom+Function  
  ----- ------------  ---------------      ----- ------------  ---------------
     3      0.420706  1 O  s                  4      0.375674  1 O  s          
    27      0.208910  2 O  s                 51      0.208910  3 O  s          
     2     -0.199503  1 O  s                 28      0.163760  2 O  s          
    52      0.163760  3 O  s          
 
 Vector    5  Occ=2.000000D+00  E=-1.437565D+00  Symmetry=b2
              MO Center= -1.6D-18,  1.7D-15, -2.0D-02, r^2= 1.2D+00
   Bfn.  Coefficient  Atom+Function         Bfn.  Coefficient  Atom+Function  
  ----- ------------  ---------------      ----- ------------  ---------------
    28      0.350477  2 O  s                 52     -0.350477  3 O  s          
    51     -0.337378  3 O  s                 27      0.337378  2 O  s          
     7     -0.318777  1 O  py                26     -0.162850  2 O  s          
    50      0.162850  3 O  s          
 
 Vector    6  Occ=2.000000D+00  E=-1.096031D+00  Symmetry=a1
              MO Center= -5.3D-17, -5.4D-15,  3.7D-02, r^2= 1.6D+00
   Bfn.  Coefficient  Atom+Function         Bfn.  Coefficient  Atom+Function  
  ----- ------------  ---------------      ----- ------------  ---------------
     4      0.434830  1 O  s                 28     -0.357885  2 O  s          
    52     -0.357885  3 O  s                  3      0.355395  1 O  s          
    27     -0.305484  2 O  s                 51     -0.305484  3 O  s          
     8      0.223794  1 O  pz                 2     -0.159086  1 O  s          
     5      0.151327  1 O  s          
 
 Vector    7  Occ=2.000000D+00  E=-8.364700D-01  Symmetry=a1
              MO Center=  7.8D-16,  8.3D-15,  2.0D-01, r^2= 1.4D+00
   Bfn.  Coefficient  Atom+Function         Bfn.  Coefficient  Atom+Function  
  ----- ------------  ---------------      ----- ------------  ---------------
     8      0.557273  1 O  pz                31     -0.302049  2 O  py         
    55      0.302049  3 O  py                11      0.232326  1 O  pz         
    52      0.179971  3 O  s                 28      0.179971  2 O  s          
 
 Vector    8  Occ=2.000000D+00  E=-8.044974D-01  Symmetry=b2
              MO Center=  3.2D-16, -4.3D-14, -1.6D-01, r^2= 1.6D+00
   Bfn.  Coefficient  Atom+Function         Bfn.  Coefficient  Atom+Function  
  ----- ------------  ---------------      ----- ------------  ---------------
     7      0.476058  1 O  py                32     -0.279803  2 O  pz         
    56      0.279803  3 O  pz                52     -0.278666  3 O  s          
    28      0.278666  2 O  s                 31     -0.223425  2 O  py         
    55     -0.223425  3 O  py                10      0.186201  1 O  py         
    27      0.182248  2 O  s                 51     -0.182248  3 O  s          
 
 Vector    9  Occ=2.000000D+00  E=-7.856812D-01  Symmetry=b1
              MO Center= -7.7D-16, -1.6D-15,  1.7D-01, r^2= 1.0D+00
   Bfn.  Coefficient  Atom+Function         Bfn.  Coefficient  Atom+Function  
  ----- ------------  ---------------      ----- ------------  ---------------
     6      0.566944  1 O  px                54      0.302266  3 O  px         
    30      0.302266  2 O  px                 9      0.232434  1 O  px         
 
 Vector   10  Occ=2.000000D+00  E=-5.659631D-01  Symmetry=b2
              MO Center=  6.2D-17,  6.5D-14, -1.6D-01, r^2= 1.8D+00
   Bfn.  Coefficient  Atom+Function         Bfn.  Coefficient  Atom+Function  
  ----- ------------  ---------------      ----- ------------  ---------------
    56      0.399854  3 O  pz                32     -0.399854  2 O  pz         
    31      0.395269  2 O  py                55      0.395269  3 O  py         
    34      0.195270  2 O  py                58      0.195270  3 O  py         
    59      0.185466  3 O  pz                35     -0.185466  2 O  pz         
 
 Vector   11  Occ=2.000000D+00  E=-5.550580D-01  Symmetry=a1
              MO Center= -5.7D-17,  3.0D-14, -1.1D-01, r^2= 1.6D+00
   Bfn.  Coefficient  Atom+Function         Bfn.  Coefficient  Atom+Function  
  ----- ------------  ---------------      ----- ------------  ---------------
    32      0.494388  2 O  pz                56      0.494388  3 O  pz         
     8     -0.373877  1 O  pz                59      0.224913  3 O  pz         
    35      0.224913  2 O  pz                 4     -0.151929  1 O  s          
 
 Vector   12  Occ=2.000000D+00  E=-4.901442D-01  Symmetry=a2
              MO Center=  2.2D-16, -2.0D-15, -1.9D-01, r^2= 1.8D+00
   Bfn.  Coefficient  Atom+Function         Bfn.  Coefficient  Atom+Function  
  ----- ------------  ---------------      ----- ------------  ---------------
    54      0.522340  3 O  px                30     -0.522340  2 O  px         
    57      0.275875  3 O  px                33     -0.275875  2 O  px         
 
 Vector   13  Occ=0.000000D+00  E=-4.949680D-02  Symmetry=b1
              MO Center= -2.1D-17, -1.6D-16,  1.3D-03, r^2= 1.8D+00
   Bfn.  Coefficient  Atom+Function         Bfn.  Coefficient  Atom+Function  
  ----- ------------  ---------------      ----- ------------  ---------------
     6      0.546193  1 O  px                30     -0.416683  2 O  px         
    54     -0.416683  3 O  px                 9      0.380461  1 O  px         
    33     -0.290120  2 O  px                57     -0.290120  3 O  px         
    12      0.238809  1 O  px                36     -0.190344  2 O  px         
    60     -0.190344  3 O  px         
 
 Vector   14  Occ=0.000000D+00  E= 1.105798D-01  Symmetry=b2
              MO Center=  2.0D-17, -2.4D-14, -2.2D-01, r^2= 1.2D+01
   Bfn.  Coefficient  Atom+Function         Bfn.  Coefficient  Atom+Function  
  ----- ------------  ---------------      ----- ------------  ---------------
    53      4.377919  3 O  s                 29     -4.377919  2 O  s          
    13     -2.270593  1 O  py                61     -1.404025  3 O  py         
    37     -1.404025  2 O  py                10     -1.339377  1 O  py         
    62      0.736413  3 O  pz                38     -0.736413  2 O  pz         
    34     -0.646061  2 O  py                58     -0.646061  3 O  py         
 
 Vector   15  Occ=0.000000D+00  E= 1.132051D-01  Symmetry=a1
              MO Center= -2.7D-18,  2.6D-14,  1.0D+00, r^2= 9.6D+00
   Bfn.  Coefficient  Atom+Function         Bfn.  Coefficient  Atom+Function  
  ----- ------------  ---------------      ----- ------------  ---------------
     5      7.370703  1 O  s                 29     -3.684815  2 O  s          
    53     -3.684815  3 O  s                 14     -1.867082  1 O  pz         
    61      1.170210  3 O  py                37     -1.170210  2 O  py         
    38     -0.634202  2 O  pz                62     -0.634202  3 O  pz         
    11     -0.570728  1 O  pz                 4      0.548995  1 O  s          
 
 Vector   16  Occ=0.000000D+00  E= 1.335956D-01  Symmetry=a1
              MO Center=  4.7D-17, -2.5D-14, -3.4D-01, r^2= 9.7D+00
   Bfn.  Coefficient  Atom+Function         Bfn.  Coefficient  Atom+Function  
  ----- ------------  ---------------      ----- ------------  ---------------
     5      2.162064  1 O  s                 14      1.699532  1 O  pz         
    62     -1.123588  3 O  pz                38     -1.123588  2 O  pz         
    37     -0.864871  2 O  py                61      0.864871  3 O  py         
     4      0.413784  1 O  s                 45     -0.281415  2 O  d -1       
    69      0.281415  3 O  d -1              11     -0.208875  1 O  pz         
 
 Vector   17  Occ=0.000000D+00  E= 1.605990D-01  Symmetry=b1
              MO Center=  6.7D-17,  4.0D-17,  1.1D-01, r^2= 7.3D+00
   Bfn.  Coefficient  Atom+Function         Bfn.  Coefficient  Atom+Function  
  ----- ------------  ---------------      ----- ------------  ---------------
    36      0.459714  2 O  px                60      0.459714  3 O  px         
    12      0.452584  1 O  px                57     -0.254528  3 O  px         
    33     -0.254528  2 O  px         
 
 Vector   18  Occ=0.000000D+00  E= 1.960138D-01  Symmetry=a1
              MO Center= -1.6D-16, -1.5D-13, -6.4D-01, r^2= 8.4D+00
   Bfn.  Coefficient  Atom+Function         Bfn.  Coefficient  Atom+Function  
  ----- ------------  ---------------      ----- ------------  ---------------
    14      1.183008  1 O  pz                38     -0.841734  2 O  pz         
    62     -0.841734  3 O  pz                61     -0.765987  3 O  py         
    37      0.765987  2 O  py                 5     -0.512991  1 O  s          
    53      0.258291  3 O  s                 29      0.258291  2 O  s          
    59      0.206444  3 O  pz                35      0.206444  2 O  pz         
 
 Vector   19  Occ=0.000000D+00  E= 2.041025D-01  Symmetry=b2
              MO Center=  1.6D-19,  1.6D-13, -8.6D-02, r^2= 9.6D+00
   Bfn.  Coefficient  Atom+Function         Bfn.  Coefficient  Atom+Function  
  ----- ------------  ---------------      ----- ------------  ---------------
    62      1.267885  3 O  pz                38     -1.267885  2 O  pz         
    53     -0.681333  3 O  s                 29      0.681333  2 O  s          
    13      0.603251  1 O  py                21     -0.338857  1 O  d -1       
    59     -0.275053  3 O  pz                35      0.275053  2 O  pz         
    10      0.260728  1 O  py                52     -0.201912  3 O  s          
 
 Vector   20  Occ=0.000000D+00  E= 2.118017D-01  Symmetry=a2
              MO Center=  9.5D-18, -7.9D-17, -2.1D-01, r^2= 9.6D+00
   Bfn.  Coefficient  Atom+Function         Bfn.  Coefficient  Atom+Function  
  ----- ------------  ---------------      ----- ------------  ---------------
    36      1.408684  2 O  px                60     -1.408684  3 O  px         
    33     -0.228647  2 O  px                57      0.228647  3 O  px         
 
 Vector   21  Occ=0.000000D+00  E= 2.210118D-01  Symmetry=b1
              MO Center= -5.8D-16,  4.9D-16,  1.9D-01, r^2= 9.0D+00
   Bfn.  Coefficient  Atom+Function         Bfn.  Coefficient  Atom+Function  
  ----- ------------  ---------------      ----- ------------  ---------------
    12      3.420895  1 O  px                60     -1.847455  3 O  px         
    36     -1.847455  2 O  px                 9     -0.163308  1 O  px         
    44     -0.155405  2 O  d -2              68      0.155405  3 O  d -2       
 
 Vector   22  Occ=0.000000D+00  E= 2.575905D-01  Symmetry=a1
              MO Center=  1.6D-15, -1.4D-13,  8.3D-02, r^2= 5.7D+00
   Bfn.  Coefficient  Atom+Function         Bfn.  Coefficient  Atom+Function  
  ----- ------------  ---------------      ----- ------------  ---------------
    14      1.537295  1 O  pz                 5      1.516794  1 O  s          
    53     -1.011869  3 O  s                 29     -1.011869  2 O  s          
    62     -0.940286  3 O  pz                38     -0.940286  2 O  pz         
    24     -0.409592  1 O  d  2               4      0.320509  1 O  s          
    28      0.264570  2 O  s                 52      0.264570  3 O  s          
 
 Vector   23  Occ=0.000000D+00  E= 2.637839D-01  Symmetry=b2
              MO Center=  1.7D-17, -1.5D-13,  5.7D-02, r^2= 1.1D+01
   Bfn.  Coefficient  Atom+Function         Bfn.  Coefficient  Atom+Function  
  ----- ------------  ---------------      ----- ------------  ---------------
    13      5.919665  1 O  py                29      3.092892  2 O  s          
    53     -3.092892  3 O  s                 37     -1.966049  2 O  py         
    61     -1.966049  3 O  py                38      1.884514  2 O  pz         
    62     -1.884514  3 O  pz                10      0.416380  1 O  py         
    21     -0.342076  1 O  d -1              34      0.312769  2 O  py         
 
 Vector   24  Occ=0.000000D+00  E= 3.058948D-01  Symmetry=a1
              MO Center= -7.8D-16, -9.0D-14,  1.3D-01, r^2= 4.4D+00
   Bfn.  Coefficient  Atom+Function         Bfn.  Coefficient  Atom+Function  
  ----- ------------  ---------------      ----- ------------  ---------------
     5      7.674805  1 O  s                 29     -3.635869  2 O  s          
    53     -3.635869  3 O  s                 14     -1.260482  1 O  pz         
    61      1.193981  3 O  py                37     -1.193981  2 O  py         
    24     -0.493427  1 O  d  2              31      0.375910  2 O  py         
    55     -0.375910  3 O  py                69      0.367493  3 O  d -1       
 
 Vector   25  Occ=0.000000D+00  E= 3.630387D-01  Symmetry=b2
              MO Center=  1.0D-15, -5.9D-13, -1.0D-01, r^2= 5.9D+00
   Bfn.  Coefficient  Atom+Function         Bfn.  Coefficient  Atom+Function  
  ----- ------------  ---------------      ----- ------------  ---------------
    53      7.261900  3 O  s                 29     -7.261900  2 O  s          
    13     -3.395047  1 O  py                10     -2.349032  1 O  py         
    58     -1.323776  3 O  py                34     -1.323776  2 O  py         
    21      1.192436  1 O  d -1              62      1.188966  3 O  pz         
    38     -1.188966  2 O  pz                37     -1.052827  2 O  py         
 
 Vector   26  Occ=0.000000D+00  E= 4.155264D-01  Symmetry=a1
              MO Center=  2.9D-17,  1.6D-13,  3.1D-03, r^2= 6.7D+00
   Bfn.  Coefficient  Atom+Function         Bfn.  Coefficient  Atom+Function  
  ----- ------------  ---------------      ----- ------------  ---------------
     5     10.823796  1 O  s                 53     -5.288014  3 O  s          
    29     -5.288014  2 O  s                 62     -1.220325  3 O  pz         
    38     -1.220325  2 O  pz                61      1.019820  3 O  py         
    37     -1.019820  2 O  py                11     -0.752379  1 O  pz         
    59     -0.597370  3 O  pz                35     -0.597370  2 O  pz         
 
 Vector   27  Occ=0.000000D+00  E= 4.453959D-01  Symmetry=b1
              MO Center= -6.8D-17,  2.8D-14, -2.8D-01, r^2= 5.3D+00
   Bfn.  Coefficient  Atom+Function         Bfn.  Coefficient  Atom+Function  
  ----- ------------  ---------------      ----- ------------  ---------------
    12      1.118133  1 O  px                60     -0.621185  3 O  px         
    36     -0.621185  2 O  px                44      0.523053  2 O  d -2       
    68     -0.523053  3 O  d -2              71      0.374724  3 O  d  1       
    47      0.374724  2 O  d  1               9     -0.374060  1 O  px         
 
 Vector   28  Occ=0.000000D+00  E= 4.725105D-01  Symmetry=b2
              MO Center=  3.6D-17,  7.4D-14, -6.5D-02, r^2= 5.8D+00
   Bfn.  Coefficient  Atom+Function         Bfn.  Coefficient  Atom+Function  
  ----- ------------  ---------------      ----- ------------  ---------------
    53      7.305257  3 O  s                 29     -7.305257  2 O  s          
    13     -2.979421  1 O  py                10     -2.573437  1 O  py         
    58     -1.466481  3 O  py                34     -1.466481  2 O  py         
    61     -1.132441  3 O  py                37     -1.132441  2 O  py         
    59      0.920064  3 O  pz                35     -0.920064  2 O  pz         
 
 Vector   29  Occ=0.000000D+00  E= 4.861400D-01  Symmetry=a1
              MO Center= -2.7D-16,  5.3D-13,  5.2D-01, r^2= 5.7D+00
   Bfn.  Coefficient  Atom+Function         Bfn.  Coefficient  Atom+Function  
  ----- ------------  ---------------      ----- ------------  ---------------
     5     12.535535  1 O  s                 29     -6.088021  2 O  s          
    53     -6.088021  3 O  s                 14     -2.643495  1 O  pz         
    11     -1.657305  1 O  pz                34     -1.393659  2 O  py         
    58      1.393659  3 O  py                28     -1.214352  2 O  s          
    52     -1.214352  3 O  s                  4      0.953038  1 O  s          
 
 Vector   30  Occ=0.000000D+00  E= 5.389884D-01  Symmetry=b2
              MO Center=  3.0D-16,  1.7D-13, -3.7D-02, r^2= 5.6D+00
   Bfn.  Coefficient  Atom+Function         Bfn.  Coefficient  Atom+Function  
  ----- ------------  ---------------      ----- ------------  ---------------
    53      4.816203  3 O  s                 29     -4.816203  2 O  s          
    10     -3.666093  1 O  py                58     -1.935243  3 O  py         
    34     -1.935243  2 O  py                52      1.794393  3 O  s          
    28     -1.794393  2 O  s                 21      1.385048  1 O  d -1       
    59      1.149086  3 O  pz                35     -1.149086  2 O  pz         
 

 center of mass
 --------------
 x =   0.00000000 y =   0.00000000 z =   0.00000000

 moments of inertia (a.u.)
 ------------------
         151.002411350145           0.000000000000           0.000000000000
           0.000000000000          16.916148225582           0.000000000000
           0.000000000000           0.000000000000         134.086263124563
 
  Mulliken analysis of the total density
  --------------------------------------

    Atom       Charge   Shell Charges
 -----------   ------   -------------------------------------------------------
    1 O    8     7.71   0.76  1.22  0.94  0.95 -0.02  3.12  0.64 -0.01  0.11  0.01
    2 O    8     8.14   0.76  1.22  0.93  1.06  0.12  3.16  0.91 -0.01  0.04 -0.05
    3 O    8     8.14   0.76  1.22  0.93  1.06  0.12  3.16  0.91 -0.01  0.04 -0.05
 
       Multipole analysis of the density wrt the origin
       ------------------------------------------------
 
     L   x y z        total         open         nuclear
     -   - - -        -----         ----         -------
     0   0 0 0      0.000000      0.000000     24.000000
 
     1   1 0 0      0.000000      0.000000      0.000000
     1   0 1 0      0.000000      0.000000      0.000000
     1   0 0 1      0.306894      0.000000      0.000000
 
     2   2 0 0    -11.157779      0.000000      0.000000
     2   1 1 0      0.000000      0.000000      0.000000
     2   1 0 1      0.000000      0.000000      0.000000
     2   0 2 0    -12.831221      0.000000     67.064466
     2   0 1 1      0.000000      0.000000      0.000000
     2   0 0 2    -11.756375      0.000000      8.460766
 

 Parallel integral file used      25 records with       0 large values

                   NWChem Extensible Many-Electron Theory Module
                   ---------------------------------------------
 
              ======================================================
                   This portion of the program was automatically
                  generated by a Tensor Contraction Engine (TCE).
                  The development of this portion of the program
                 and TCE was supported by US Department of Energy,
                Office of Science, Office of Basic Energy Science.
                      TCE is a product of Battelle and PNNL.
              Please cite: S.Hirata, J.Phys.Chem.A 107, 9887 (2003).
              ======================================================
 
            General Information
            -------------------
      Number of processors :     8
         Wavefunction type : Restricted Hartree-Fock
          No. of electrons :    24
           Alpha electrons :    12
            Beta electrons :    12
           No. of orbitals :   144
            Alpha orbitals :    72
             Beta orbitals :    72
        Alpha frozen cores :     3
         Beta frozen cores :     3
     Alpha frozen virtuals :     0
      Beta frozen virtuals :     0
         Spin multiplicity : singlet 
    Number of AO functions :    72
       Number of AO shells :    30
        Use of symmetry is : on 
      Symmetry adaption is : on 
         Schwarz screening : 0.10D-09
 
          Correlation Information
          -----------------------
          Calculation type : Coupled-cluster singles & doubles w/ perturbation           
   Perturbative correction : (T)                                                         
            Max iterations :      100
        Residual threshold : 0.10D-05
          DIIS level shift : 0.00D+00
          Amplitude update :  5-th order DIIS
                I/O scheme : Global Array Library
 
            Memory Information
            ------------------
          Available GA space size is     209710016 doubles
          Available MA space size is      26209124 doubles
 
 Maximum block size supplied by input
 Maximum block size        20 doubles

 Block   Spin    Irrep     Size     Offset   Alpha
 -------------------------------------------------
   1    alpha     a1     4 doubles       0       1
   2    alpha     a2     1 doubles       4       2
   3    alpha     b1     1 doubles       5       3
   4    alpha     b2     3 doubles       6       4
   5    beta      a1     4 doubles       9       1
   6    beta      a2     1 doubles      13       2
   7    beta      b1     1 doubles      14       3
   8    beta      b2     3 doubles      15       4
   9    alpha     a1    11 doubles      18       9
  10    alpha     a1    12 doubles      29      10
  11    alpha     a2     8 doubles      41      11
  12    alpha     b1    11 doubles      49      12
  13    alpha     b2    18 doubles      60      13
  14    beta      a1    11 doubles      78       9
  15    beta      a1    12 doubles      89      10
  16    beta      a2     8 doubles     101      11
  17    beta      b1    11 doubles     109      12
  18    beta      b2    18 doubles     120      13

 Global array virtual files algorithm will be used

 Parallel file system coherency ......... OK

 Integral file          = /scratch/tce_ozone_2eorb.aoints.0
 Record size in doubles =  65536        No. of integs per rec  =  43688
 Max. records in memory =      6        Max. records in file   =  10901
 No. of bits per label  =      8        No. of bits per value  =     64


 #quartets = 1.036D+05 #integrals = 1.653D+06 #direct =  0.0% #cached =100.0%


File balance: exchanges=     0  moved=     0  time=   0.0

 
 Fock matrix recomputed
 1-e file size   =             1395
 1-e file name   = /scratch/tce_ozone_2
 Cpu & wall time / sec            0.4            0.4
 4-electron integrals stored in orbital form
 
 v2    file size   =          1284969
 v2int file size   =          6556725
 Cpu & wall time / sec           20.1           20.1
 
 t1 file size   =              165
 t1 file name   = /scratch/tce_ozone_2
 before tce_guess_t2
 after tce_guess_t2
 
 t2 file size   =           112383
 t2 file name   = /scratch/tce_ozone_2

 CCSD iterations
 --------------------------------------------------------
 Iter          Residuum       Correlation     Cpu    Wall
 --------------------------------------------------------
    1   0.2609153779723  -0.6556358352057     1.0     1.0
    2   0.0854505682272  -0.5999210435862     0.9     1.0
    3   0.0330027501593  -0.6345458462188     1.0     1.0
    4   0.0223062042483  -0.6259238774802     1.1     1.1
    5   0.0094141963549  -0.6321663040559     0.9     1.0
 MICROCYCLE DIIS UPDATE:                     5                     5
    6   0.0039078352475  -0.6316276484048     0.9     1.0
    7   0.0024212944545  -0.6316687917776     0.9     1.0
    8   0.0011908164222  -0.6317758513284     0.9     1.0
    9   0.0009707199544  -0.6317901059353     0.9     1.0
   10   0.0005110668544  -0.6318688356783     0.9     1.0
 MICROCYCLE DIIS UPDATE:                    10                     5
   11   0.0000917265263  -0.6319515485178     1.0     1.0
   12   0.0000392671077  -0.6319383149876     0.9     1.0
   13   0.0000205175130  -0.6319474619966     1.0     1.0
   14   0.0000133498057  -0.6319449208041     1.0     1.0
   15   0.0000076515963  -0.6319468964089     1.0     1.0
 MICROCYCLE DIIS UPDATE:                    15                     5
   16   0.0000030803915  -0.6319467214968     1.0     1.0
   17   0.0000017058589  -0.6319468392091     1.0     1.0
   18   0.0000008124139  -0.6319468192807     1.0     1.0
 --------------------------------------------------------
 Iterations converged
 CCSD correlation energy / hartree =        -0.631946819280704
 CCSD total energy / hartree       =      -224.959377248446600

 Singles contributions
  19a1  (alpha) ---   4a1  (alpha)            -0.01576
  20a1  (alpha) ---   4a1  (alpha)            -0.02136
  22a1  (alpha) ---   4a1  (alpha)             0.01335
  23a1  (alpha) ---   2a1  (alpha)            -0.01333
  23a1  (alpha) ---   4a1  (alpha)             0.05071
  25a1  (alpha) ---   4a1  (alpha)            -0.02691
  29a1  (alpha) ---   4a1  (alpha)             0.01274
  42a2  (alpha) ---   5a2  (alpha)             0.01058
  45a2  (alpha) ---   5a2  (alpha)            -0.01791
  46a2  (alpha) ---   5a2  (alpha)             0.01830
  50b1  (alpha) ---   6b1  (alpha)             0.07313
  56b1  (alpha) ---   6b1  (alpha)            -0.01051
  61b2  (alpha) ---   9b2  (alpha)            -0.01970
  62b2  (alpha) ---   9b2  (alpha)             0.01260
  64b2  (alpha) ---   9b2  (alpha)             0.03791
  65b2  (alpha) ---   9b2  (alpha)            -0.01428
  66b2  (alpha) ---   9b2  (alpha)            -0.01406

 Doubles contributions
  23a1  (alpha)  50b1  (alpha) ---   3a1  (alpha)   6b1  (alpha)            -0.02034
  23a1  (alpha)  50b1  (alpha) ---   4a1  (alpha)   6b1  (alpha)             0.01021
  25a1  (alpha)  50b1  (alpha) ---   3a1  (alpha)   6b1  (alpha)             0.01198
  21a1  (alpha)  50b1  (alpha) ---   5a2  (alpha)   8b2  (alpha)            -0.01054
  23a1  (alpha)  50b1  (alpha) ---   5a2  (alpha)   8b2  (alpha)            -0.02433
  23a1  (alpha)  50b1  (alpha) ---   5a2  (alpha)   9b2  (alpha)             0.02155
  25a1  (alpha)  50b1  (alpha) ---   5a2  (alpha)   8b2  (alpha)             0.01212
  25a1  (alpha)  50b1  (alpha) ---   5a2  (alpha)   9b2  (alpha)            -0.01315
  29a1  (alpha)  50b1  (alpha) ---   5a2  (alpha)   9b2  (alpha)             0.01506
  23a1  (alpha)  83a1  (beta ) ---   1a1  (alpha)  10a1  (beta )            -0.01459
  23a1  (alpha)  83a1  (beta ) ---   1a1  (alpha)  12a1  (beta )             0.01317
  23a1  (alpha)  83a1  (beta ) ---   2a1  (alpha)  11a1  (beta )            -0.01033
  23a1  (alpha)  83a1  (beta ) ---   3a1  (alpha)  10a1  (beta )             0.01317
  23a1  (alpha)  83a1  (beta ) ---   3a1  (alpha)  12a1  (beta )            -0.02561
  23a1  (alpha)  83a1  (beta ) ---   4a1  (alpha)  13a1  (beta )            -0.01244
  23a1  (alpha)  85a1  (beta ) ---   3a1  (alpha)  12a1  (beta )             0.01309
  25a1  (alpha)  83a1  (beta ) ---   3a1  (alpha)  12a1  (beta )             0.01309
  25a1  (alpha)  85a1  (beta ) ---   3a1  (alpha)  12a1  (beta )            -0.01174
  29a1  (alpha)  89a1  (beta ) ---   4a1  (alpha)  13a1  (beta )            -0.01053
  23a1  (alpha)  83a1  (beta ) ---   6b1  (alpha)  15b1  (beta )            -0.01318
  23a1  (alpha)  83a1  (beta ) ---   7b2  (alpha)  16b2  (beta )            -0.01049
  23a1  (alpha)  83a1  (beta ) ---   8b2  (alpha)  17b2  (beta )            -0.01876
  23a1  (alpha)  83a1  (beta ) ---   9b2  (alpha)  18b2  (beta )            -0.02327
  23a1  (alpha)  85a1  (beta ) ---   9b2  (alpha)  18b2  (beta )             0.01012
  23a1  (alpha)  89a1  (beta ) ---   9b2  (alpha)  18b2  (beta )            -0.01207
  25a1  (alpha)  83a1  (beta ) ---   9b2  (alpha)  18b2  (beta )             0.01012
  29a1  (alpha)  83a1  (beta ) ---   9b2  (alpha)  18b2  (beta )            -0.01207
  29a1  (alpha)  89a1  (beta ) ---   9b2  (alpha)  18b2  (beta )            -0.01715
  23a1  (alpha) 110b1  (beta ) ---   1a1  (alpha)  15b1  (beta )             0.01889
  23a1  (alpha) 110b1  (beta ) ---   3a1  (alpha)  15b1  (beta )            -0.02470
  23a1  (alpha) 110b1  (beta ) ---   4a1  (alpha)  15b1  (beta )             0.01147
  25a1  (alpha) 110b1  (beta ) ---   3a1  (alpha)  15b1  (beta )             0.01508
  25a1  (alpha) 110b1  (beta ) ---   4a1  (alpha)  15b1  (beta )            -0.01173
  23a1  (alpha) 110b1  (beta ) ---   5a2  (alpha)  16b2  (beta )            -0.01030
  23a1  (alpha) 110b1  (beta ) ---   6b1  (alpha)  10a1  (beta )             0.01222
  19a1  (alpha) 110b1  (beta ) ---   9b2  (alpha)  14a2  (beta )             0.01072
  21a1  (alpha) 110b1  (beta ) ---   8b2  (alpha)  14a2  (beta )             0.01230
  23a1  (alpha) 110b1  (beta ) ---   7b2  (alpha)  14a2  (beta )            -0.01710
  23a1  (alpha) 110b1  (beta ) ---   8b2  (alpha)  14a2  (beta )             0.02668
  23a1  (alpha) 110b1  (beta ) ---   9b2  (alpha)  14a2  (beta )            -0.03033
  24a1  (alpha) 110b1  (beta ) ---   8b2  (alpha)  14a2  (beta )            -0.01069
  25a1  (alpha) 110b1  (beta ) ---   7b2  (alpha)  14a2  (beta )             0.01298
  25a1  (alpha) 110b1  (beta ) ---   8b2  (alpha)  14a2  (beta )            -0.01029
  25a1  (alpha) 110b1  (beta ) ---   9b2  (alpha)  14a2  (beta )             0.01681
  26a1  (alpha) 110b1  (beta ) ---   8b2  (alpha)  14a2  (beta )            -0.01396
  29a1  (alpha) 110b1  (beta ) ---   9b2  (alpha)  14a2  (beta )            -0.02167
  29a1  (alpha) 116b1  (beta ) ---   9b2  (alpha)  14a2  (beta )            -0.01134
  23a1  (alpha) 124b2  (beta ) ---   3a1  (alpha)  17b2  (beta )            -0.01513
  23a1  (alpha) 125b2  (beta ) ---   3a1  (alpha)  17b2  (beta )             0.01512
  23a1  (alpha) 124b2  (beta ) ---   8b2  (alpha)  13a1  (beta )             0.01370
  32a1  (alpha) 110b1  (beta ) ---   4a1  (alpha)  15b1  (beta )            -0.01140
  30a1  (alpha) 110b1  (beta ) ---   9b2  (alpha)  14a2  (beta )             0.01078
  31a1  (alpha) 110b1  (beta ) ---   8b2  (alpha)  14a2  (beta )             0.01035
  46a2  (alpha) 106a2  (beta ) ---   5a2  (alpha)  14a2  (beta )            -0.01013
  42a2  (alpha) 110b1  (beta ) ---   5a2  (alpha)  15b1  (beta )             0.01074
  45a2  (alpha) 110b1  (beta ) ---   5a2  (alpha)  15b1  (beta )            -0.01720
  46a2  (alpha) 110b1  (beta ) ---   5a2  (alpha)  15b1  (beta )             0.01095
  47a2  (alpha) 110b1  (beta ) ---   5a2  (alpha)  15b1  (beta )             0.01076
  42a2  (alpha) 110b1  (beta ) ---   6b1  (alpha)  14a2  (beta )             0.01290
  45a2  (alpha) 110b1  (beta ) ---   6b1  (alpha)  14a2  (beta )            -0.01301
  46a2  (alpha) 110b1  (beta ) ---   6b1  (alpha)  14a2  (beta )             0.01148
  47a2  (alpha) 110b1  (beta ) ---   8b2  (alpha)  11a1  (beta )             0.01237
  48a2  (alpha) 110b1  (beta ) ---   9b2  (alpha)  11a1  (beta )             0.01063
  50b1  (alpha)  64b2  (alpha) ---   4a1  (alpha)   5a2  (alpha)             0.02329
  50b1  (alpha)  65b2  (alpha) ---   3a1  (alpha)   5a2  (alpha)             0.01214
  50b1  (alpha)  65b2  (alpha) ---   4a1  (alpha)   5a2  (alpha)            -0.01260
  50b1  (alpha)  66b2  (alpha) ---   4a1  (alpha)   5a2  (alpha)            -0.01040
  50b1  (alpha)  64b2  (alpha) ---   6b1  (alpha)   8b2  (alpha)            -0.02141
  50b1  (alpha)  65b2  (alpha) ---   6b1  (alpha)   8b2  (alpha)             0.01799
  50b1  (alpha)  66b2  (alpha) ---   6b1  (alpha)   8b2  (alpha)             0.01275
  50b1  (alpha)  83a1  (beta ) ---   1a1  (alpha)  15b1  (beta )             0.01222
  50b1  (alpha)  79a1  (beta ) ---   5a2  (alpha)  18b2  (beta )             0.01072
  50b1  (alpha)  81a1  (beta ) ---   5a2  (alpha)  17b2  (beta )             0.01230
  50b1  (alpha)  83a1  (beta ) ---   5a2  (alpha)  16b2  (beta )            -0.01710
  50b1  (alpha)  83a1  (beta ) ---   5a2  (alpha)  17b2  (beta )             0.02668
  50b1  (alpha)  83a1  (beta ) ---   5a2  (alpha)  18b2  (beta )            -0.03033
  50b1  (alpha)  84a1  (beta ) ---   5a2  (alpha)  17b2  (beta )            -0.01069
  50b1  (alpha)  85a1  (beta ) ---   5a2  (alpha)  16b2  (beta )             0.01298
  50b1  (alpha)  85a1  (beta ) ---   5a2  (alpha)  17b2  (beta )            -0.01029
  50b1  (alpha)  85a1  (beta ) ---   5a2  (alpha)  18b2  (beta )             0.01681
  50b1  (alpha)  86a1  (beta ) ---   5a2  (alpha)  17b2  (beta )            -0.01396
  50b1  (alpha)  89a1  (beta ) ---   5a2  (alpha)  18b2  (beta )            -0.02167
  56b1  (alpha)  89a1  (beta ) ---   5a2  (alpha)  18b2  (beta )            -0.01134
  50b1  (alpha)  83a1  (beta ) ---   6b1  (alpha)  10a1  (beta )             0.01889
  50b1  (alpha)  83a1  (beta ) ---   6b1  (alpha)  12a1  (beta )            -0.02470
  50b1  (alpha)  83a1  (beta ) ---   6b1  (alpha)  13a1  (beta )             0.01147
  50b1  (alpha)  85a1  (beta ) ---   6b1  (alpha)  12a1  (beta )             0.01508
  50b1  (alpha)  85a1  (beta ) ---   6b1  (alpha)  13a1  (beta )            -0.01173
  50b1  (alpha)  83a1  (beta ) ---   7b2  (alpha)  14a2  (beta )            -0.01030
  50b1  (alpha)  90a1  (beta ) ---   5a2  (alpha)  18b2  (beta )             0.01078
  50b1  (alpha)  91a1  (beta ) ---   5a2  (alpha)  17b2  (beta )             0.01035
  50b1  (alpha)  92a1  (beta ) ---   6b1  (alpha)  13a1  (beta )            -0.01140
  50b1  (alpha) 107a2  (beta ) ---   2a1  (alpha)  17b2  (beta )             0.01237
  50b1  (alpha) 108a2  (beta ) ---   2a1  (alpha)  18b2  (beta )             0.01063
  50b1  (alpha) 102a2  (beta ) ---   5a2  (alpha)  15b1  (beta )             0.01290
  50b1  (alpha) 105a2  (beta ) ---   5a2  (alpha)  15b1  (beta )            -0.01301
  50b1  (alpha) 106a2  (beta ) ---   5a2  (alpha)  15b1  (beta )             0.01148
  50b1  (alpha) 102a2  (beta ) ---   6b1  (alpha)  14a2  (beta )             0.01074
  50b1  (alpha) 105a2  (beta ) ---   6b1  (alpha)  14a2  (beta )            -0.01720
  50b1  (alpha) 106a2  (beta ) ---   6b1  (alpha)  14a2  (beta )             0.01095
  50b1  (alpha) 107a2  (beta ) ---   6b1  (alpha)  14a2  (beta )             0.01076
  50b1  (alpha) 110b1  (beta ) ---   2a1  (alpha)  11a1  (beta )            -0.02589
  50b1  (alpha) 110b1  (beta ) ---   4a1  (alpha)  13a1  (beta )            -0.02435
  50b1  (alpha) 118b1  (beta ) ---   2a1  (alpha)  12a1  (beta )            -0.01174
  50b1  (alpha) 119b1  (beta ) ---   2a1  (alpha)  13a1  (beta )            -0.01109
  58b1  (alpha) 110b1  (beta ) ---   3a1  (alpha)  11a1  (beta )            -0.01174
  59b1  (alpha) 110b1  (beta ) ---   4a1  (alpha)  11a1  (beta )            -0.01109
  50b1  (alpha) 110b1  (beta ) ---   5a2  (alpha)  14a2  (beta )            -0.19122
  50b1  (alpha) 111b1  (beta ) ---   5a2  (alpha)  14a2  (beta )            -0.04333
  50b1  (alpha) 112b1  (beta ) ---   5a2  (alpha)  14a2  (beta )             0.02506
  50b1  (alpha) 113b1  (beta ) ---   5a2  (alpha)  14a2  (beta )            -0.01090
  50b1  (alpha) 115b1  (beta ) ---   5a2  (alpha)  14a2  (beta )            -0.01053
  50b1  (alpha) 116b1  (beta ) ---   5a2  (alpha)  14a2  (beta )            -0.03859
  50b1  (alpha) 117b1  (beta ) ---   5a2  (alpha)  14a2  (beta )             0.01241
  51b1  (alpha) 110b1  (beta ) ---   5a2  (alpha)  14a2  (beta )            -0.04333
  51b1  (alpha) 111b1  (beta ) ---   5a2  (alpha)  14a2  (beta )            -0.01012
  52b1  (alpha) 110b1  (beta ) ---   5a2  (alpha)  14a2  (beta )             0.02506
  53b1  (alpha) 110b1  (beta ) ---   5a2  (alpha)  14a2  (beta )            -0.01090
  55b1  (alpha) 110b1  (beta ) ---   5a2  (alpha)  14a2  (beta )            -0.01053
  56b1  (alpha) 110b1  (beta ) ---   5a2  (alpha)  14a2  (beta )            -0.03859
  56b1  (alpha) 116b1  (beta ) ---   5a2  (alpha)  14a2  (beta )            -0.01280
  57b1  (alpha) 110b1  (beta ) ---   5a2  (alpha)  14a2  (beta )             0.01241
  50b1  (alpha) 110b1  (beta ) ---   6b1  (alpha)  15b1  (beta )            -0.07418
  50b1  (alpha) 112b1  (beta ) ---   6b1  (alpha)  15b1  (beta )             0.01536
  50b1  (alpha) 115b1  (beta ) ---   6b1  (alpha)  15b1  (beta )            -0.01675
  50b1  (alpha) 116b1  (beta ) ---   6b1  (alpha)  15b1  (beta )             0.01113
  50b1  (alpha) 117b1  (beta ) ---   6b1  (alpha)  15b1  (beta )             0.01517
  52b1  (alpha) 110b1  (beta ) ---   6b1  (alpha)  15b1  (beta )             0.01536
  55b1  (alpha) 110b1  (beta ) ---   6b1  (alpha)  15b1  (beta )            -0.01675
  56b1  (alpha) 110b1  (beta ) ---   6b1  (alpha)  15b1  (beta )             0.01113
  56b1  (alpha) 116b1  (beta ) ---   6b1  (alpha)  15b1  (beta )            -0.01234
  57b1  (alpha) 110b1  (beta ) ---   6b1  (alpha)  15b1  (beta )             0.01517
  50b1  (alpha) 110b1  (beta ) ---   8b2  (alpha)  17b2  (beta )            -0.01684
  50b1  (alpha) 110b1  (beta ) ---   9b2  (alpha)  18b2  (beta )            -0.01422
  50b1  (alpha) 135b2  (beta ) ---   2a1  (alpha)  14a2  (beta )            -0.01006
  50b1  (alpha) 124b2  (beta ) ---   5a2  (alpha)  10a1  (beta )            -0.01047
  50b1  (alpha) 124b2  (beta ) ---   5a2  (alpha)  11a1  (beta )             0.01033
  50b1  (alpha) 124b2  (beta ) ---   5a2  (alpha)  13a1  (beta )            -0.03034
  50b1  (alpha) 125b2  (beta ) ---   5a2  (alpha)  12a1  (beta )            -0.01383
  50b1  (alpha) 125b2  (beta ) ---   5a2  (alpha)  13a1  (beta )             0.01593
  50b1  (alpha) 126b2  (beta ) ---   5a2  (alpha)  13a1  (beta )             0.01369
  50b1  (alpha) 129b2  (beta ) ---   5a2  (alpha)  13a1  (beta )            -0.01101
  50b1  (alpha) 131b2  (beta ) ---   5a2  (alpha)  13a1  (beta )             0.01027
  50b1  (alpha) 124b2  (beta ) ---   6b1  (alpha)  16b2  (beta )             0.01536
  50b1  (alpha) 124b2  (beta ) ---   6b1  (alpha)  17b2  (beta )            -0.02630
  50b1  (alpha) 125b2  (beta ) ---   6b1  (alpha)  17b2  (beta )             0.02243
  50b1  (alpha) 126b2  (beta ) ---   6b1  (alpha)  17b2  (beta )             0.01874
  50b1  (alpha) 130b2  (beta ) ---   6b1  (alpha)  17b2  (beta )             0.01149
  64b2  (alpha)  83a1  (beta ) ---   4a1  (alpha)  17b2  (beta )             0.01370
  64b2  (alpha)  83a1  (beta ) ---   8b2  (alpha)  12a1  (beta )            -0.01513
  65b2  (alpha)  83a1  (beta ) ---   8b2  (alpha)  12a1  (beta )             0.01512
  64b2  (alpha) 110b1  (beta ) ---   1a1  (alpha)  14a2  (beta )            -0.01047
  64b2  (alpha) 110b1  (beta ) ---   2a1  (alpha)  14a2  (beta )             0.01033
  64b2  (alpha) 110b1  (beta ) ---   4a1  (alpha)  14a2  (beta )            -0.03034
  65b2  (alpha) 110b1  (beta ) ---   3a1  (alpha)  14a2  (beta )            -0.01383
  65b2  (alpha) 110b1  (beta ) ---   4a1  (alpha)  14a2  (beta )             0.01593
  66b2  (alpha) 110b1  (beta ) ---   4a1  (alpha)  14a2  (beta )             0.01369
  69b2  (alpha) 110b1  (beta ) ---   4a1  (alpha)  14a2  (beta )            -0.01101
  71b2  (alpha) 110b1  (beta ) ---   4a1  (alpha)  14a2  (beta )             0.01027
  75b2  (alpha) 110b1  (beta ) ---   5a2  (alpha)  11a1  (beta )            -0.01006
  64b2  (alpha) 110b1  (beta ) ---   7b2  (alpha)  15b1  (beta )             0.01536
  64b2  (alpha) 110b1  (beta ) ---   8b2  (alpha)  15b1  (beta )            -0.02630
  65b2  (alpha) 110b1  (beta ) ---   8b2  (alpha)  15b1  (beta )             0.02243
  66b2  (alpha) 110b1  (beta ) ---   8b2  (alpha)  15b1  (beta )             0.01874
  70b2  (alpha) 110b1  (beta ) ---   8b2  (alpha)  15b1  (beta )             0.01149
  64b2  (alpha) 124b2  (beta ) ---   2a1  (alpha)  11a1  (beta )            -0.01002
  64b2  (alpha) 124b2  (beta ) ---   4a1  (alpha)  13a1  (beta )            -0.01931
  64b2  (alpha) 124b2  (beta ) ---   7b2  (alpha)  16b2  (beta )            -0.01076
  64b2  (alpha) 124b2  (beta ) ---   8b2  (alpha)  17b2  (beta )            -0.02142
  64b2  (alpha) 125b2  (beta ) ---   8b2  (alpha)  17b2  (beta )             0.01725
  64b2  (alpha) 126b2  (beta ) ---   8b2  (alpha)  17b2  (beta )             0.01304
  65b2  (alpha) 124b2  (beta ) ---   8b2  (alpha)  17b2  (beta )             0.01725
  65b2  (alpha) 125b2  (beta ) ---   8b2  (alpha)  17b2  (beta )            -0.01858
  65b2  (alpha) 126b2  (beta ) ---   8b2  (alpha)  17b2  (beta )            -0.01162
  65b2  (alpha) 130b2  (beta ) ---   8b2  (alpha)  17b2  (beta )            -0.01000
  66b2  (alpha) 124b2  (beta ) ---   8b2  (alpha)  17b2  (beta )             0.01304
  66b2  (alpha) 125b2  (beta ) ---   8b2  (alpha)  17b2  (beta )            -0.01162
  70b2  (alpha) 125b2  (beta ) ---   8b2  (alpha)  17b2  (beta )            -0.01000
 
 CCSD[T] correlation energy / hartree =        -0.671326691418858
 CCSD[T] total energy / hartree       =      -224.998757120584742
 CCSD(T) correlation energy / hartree =        -0.667997043494809
 CCSD(T) total energy / hartree       =      -224.995427472660708
 Cpu & wall time / sec            3.0            3.0

 Parallel integral file used      41 records with       0 large values


 Task  times  cpu:       42.5s     wall:       43.2s
 
 
                                NWChem Input Module
                                -------------------
 
 
 Summary of allocated global arrays
-----------------------------------
  No active global arrays



                         GA Statistics for process    0
                         ------------------------------

       create   destroy   get      put      acc     scatter   gather  read&inc
calls: 1112     1112     1.23e+05 3575     2.18e+04    0        0        0     
number of processes/call 1.20e+00 1.29e+00 1.11e+00 0.00e+00 0.00e+00
bytes total:             1.50e+09 2.26e+07 7.71e+07 0.00e+00 0.00e+00 0.00e+00
bytes remote:            1.17e+09 1.68e+07 6.59e+07 0.00e+00 0.00e+00 0.00e+00
Max memory consumed for GA by this process: 7843104 bytes
 
MA_summarize_allocated_blocks: starting scan ...
MA_summarize_allocated_blocks: scan completed: 0 heap blocks, 0 stack blocks
MA usage statistics:

	allocation statistics:
					      heap	     stack
					      ----	     -----
	current number of blocks	         0	         0
	maximum number of blocks	        18	        33
	current total bytes		         0	         0
	maximum total bytes		   3185752	  16087408
	maximum total K-bytes		      3186	     16088
	maximum total M-bytes		         4	        17



                                  ACKNOWLEDGEMENT
                                  ---------------

            Please use the following acknowledgement where appropriate 
            for results obtained with NWChem:

            High Performance Computational Chemistry Group, "NWChem, A
            Computational Chemistry Package for Parallel Computers, 
            Version 4.7" (2005), Pacific Northwest National Laboratory,
            Richland, Washington 99352-0999, USA.


                                     CITATION
                                     --------

            Please use the following citation when publishing results
            obtained with NWChem:

            T. P. Straatsma, E. Apra, T. L. Windus, E. J. Bylaska, W. de Jong,
            S. Hirata, M. Valiev, M. T. Hackler, L. Pollack, R. J. Harrison,
            M. Dupuis, D. M. A. Smith, J. Nieplocha, V. Tipparaju,
            M. Krishnan, A. A. Auer, E. Brown, G. Cisneros, G. I. Fann,
            H. Fruchtl, J. Garza, K. Hirao, R. Kendall, J. A. Nichols,
            K. Tsemekhman, K. Wolinski, J. Anchell, D. Bernholdt, P. Borowski,
            T. Clark, D. Clerc, H. Dachsel, M. Deegan, K. Dyall, D. Elwood,
            E. Glendening, M. Gutowski, A. Hess, J. Jaffe, B. Johnson, J. Ju,
            R. Kobayashi, R. Kutteh, Z. Lin, R. Littlefield, X. Long, B. Meng,
            T. Nakajima, S. Niu, M. Rosing, G. Sandrone, M. Stave, H. Taylor,
            G. Thomas, J. van Lenthe, A. Wong, and Z. Zhang,
            "NWChem, A Computational Chemistry Package for Parallel Computers, 
            Version 4.7" (2005),
                      Pacific Northwest National Laboratory,
                      Richland, Washington 99352-0999, USA.



 Total times  cpu:       42.9s     wall:       43.7s
