All connections between all procs tested: SUCCESS
 argument  1 = n2_rodft_lrc.nw



============================== echo of input deck ==============================
start test_n2+_dat
echo
title "N2+ 1.0977A B3LYP/6-31G** open-shell test"
charge 1
geometry
symmetry d2h
N 0.0 0.0 -0.54885
N 0.0 0.0 0.54885
end
basis
N library 6-31G**
end
dft
  xc xcamb88 1.00 lyp 0.81 vwn_5 0.19 hfexch 1.00
  cam 0.33 cam_alpha 0.19 cam_beta 0.81
  direct
  mult 2
  rodft
  cgmin
end
task dft
================================================================================


                                         
                                         


             Northwest Computational Chemistry Package (NWChem) 6.1.1
             --------------------------------------------------------


                    Environmental Molecular Sciences Laboratory
                       Pacific Northwest National Laboratory
                                Richland, WA 99352

                              Copyright (c) 1994-2012
                       Pacific Northwest National Laboratory
                            Battelle Memorial Institute

             NWChem is an open-source computational chemistry package
                        distributed under the terms of the
                      Educational Community License (ECL) 2.0
             A copy of the license is included with this distribution
                              in the LICENSE.TXT file

                                  ACKNOWLEDGMENT
                                  --------------

            This software and its documentation were developed at the
            EMSL at Pacific Northwest National Laboratory, a multiprogram
            national laboratory, operated for the U.S. Department of Energy
            by Battelle under Contract Number DE-AC05-76RL01830. Support
            for this work was provided by the Department of Energy Office
            of Biological and Environmental Research, Office of Basic
            Energy Sciences, and the Office of Advanced Scientific Computing.


           Job information
           ---------------

    hostname        = arcen
    program         = ../../../bin/LINUX64/nwchem
    date            = Thu May 23 14:53:35 2013

    compiled        = Thu_May_23_14:48:46_2013
    source          = /home/d3y133/nwchem-dev/nwchem-trunk
    nwchem branch   = Development
    nwchem revision = 23985
    ga revision     = 10292
    input           = n2_rodft_lrc.nw
    prefix          = test_n2+_dat.
    data base       = ./test_n2+_dat.db
    status          = startup
    nproc           =        1
    time left       =     -1s



           Memory information
           ------------------

    heap     =   13107201 doubles =    100.0 Mbytes
    stack    =   13107201 doubles =    100.0 Mbytes
    global   =   26214400 doubles =    200.0 Mbytes (distinct from heap & stack)
    total    =   52428802 doubles =    400.0 Mbytes
    verify   = yes
    hardfail = no 


           Directory information
           ---------------------

  0 permanent = .
  0 scratch   = .




                                NWChem Input Module
                                -------------------


                     N2+ 1.0977A B3LYP/6-31G** open-shell test
                     -----------------------------------------

 Scaling coordinates for geometry "geometry" by  1.889725989
 (inverse scale =  0.529177249)

 Turning off AUTOSYM since
 SYMMETRY directive was detected!


          ------
          auto-z
          ------


                             Geometry "geometry" -> ""
                             -------------------------

 Output coordinates in angstroms (scale by  1.889725989 to convert to a.u.)

  No.       Tag          Charge          X              Y              Z
 ---- ---------------- ---------- -------------- -------------- --------------
    1 N                    7.0000     0.00000000     0.00000000    -0.54885000
    2 N                    7.0000     0.00000000     0.00000000     0.54885000

      Atomic Mass 
      ----------- 

      N                 14.003070


 Effective nuclear repulsion energy (a.u.)      23.6218321955

            Nuclear Dipole moment (a.u.) 
            ----------------------------
        X                 Y               Z
 ---------------- ---------------- ----------------
     0.0000000000     0.0000000000     0.0000000000

      Symmetry information
      --------------------

 Group name             D2h       
 Group number             26
 Group order               8
 No. of unique centers     1

      Symmetry unique atoms

     1



                                Z-matrix (autoz)
                                -------- 

 Units are Angstrom for bonds and degrees for angles

      Type          Name      I     J     K     L     M      Value
      ----------- --------  ----- ----- ----- ----- ----- ----------
    1 Stretch                  1     2                       1.09770


            XYZ format geometry
            -------------------
     2
 geometry
 N                     0.00000000     0.00000000    -0.54885000
 N                     0.00000000     0.00000000     0.54885000

 ==============================================================================
                                internuclear distances
 ------------------------------------------------------------------------------
       center one      |      center two      | atomic units |  angstroms
 ------------------------------------------------------------------------------
    2 N                |   1 N                |     2.07435  |     1.09770
 ------------------------------------------------------------------------------
                         number of included internuclear distances:          1
 ==============================================================================



                      Basis "ao basis" -> "" (cartesian)
                      -----
  N (Nitrogen)
  ------------
            Exponent  Coefficients 
       -------------- ---------------------------------------------------------
  1 S  4.17351100E+03  0.001835
  1 S  6.27457900E+02  0.013995
  1 S  1.42902100E+02  0.068587
  1 S  4.02343300E+01  0.232241
  1 S  1.28202100E+01  0.469070
  1 S  4.39043700E+00  0.360455

  2 S  1.16263580E+01 -0.114961
  2 S  2.71628000E+00 -0.169118
  2 S  7.72218000E-01  1.145852

  3 P  1.16263580E+01  0.067580
  3 P  2.71628000E+00  0.323907
  3 P  7.72218000E-01  0.740895

  4 S  2.12031300E-01  1.000000

  5 P  2.12031300E-01  1.000000

  6 D  8.00000000E-01  1.000000



 Summary of "ao basis" -> "" (cartesian)
 ------------------------------------------------------------------------------
       Tag                 Description            Shells   Functions and Types
 ---------------- ------------------------------  ------  ---------------------
 N                          6-31G**                  6       15   3s2p1d



                                 NWChem DFT Module
                                 -----------------


                     N2+ 1.0977A B3LYP/6-31G** open-shell test


  int_init: cando_txs set to always be  F
  Caching 1-el integrals 

            General Information
            -------------------
          SCF calculation type: DFT
          Wavefunction type:  restricted open shell.
          No. of atoms     :     2
          No. of electrons :    13
           Alpha electrons :     7
            Beta electrons :     6
          Charge           :     1
          Spin multiplicity:     2
          Use of symmetry is: on ; symmetry adaption is: on 
          Maximum number of iterations:  30
          This is a Direct SCF calculation.
          AO basis - number of functions:    30
                     number of shells:    12
          Convergence on energy requested: 1.00D-06
          Convergence on density requested: 1.00D-05
          Convergence on gradient requested: 5.00D-04

              XC Information
              --------------
                        Slater Exchange Functional  1.000 local    
                      VWN V Correlation Functional  1.000 local    

           Range-Separation Parameters        
           ---------------------------
           Alpha           :  0.19
           Beta            :  0.81
           Gamma           :  0.33
           Short-Range HF  :     F

             Grid Information
             ----------------
          Grid used for XC integration:  medium    
          Radial quadrature: Mura-Knowles        
          Angular quadrature: Lebedev. 
          Tag              B.-S. Rad. Rad. Pts. Rad. Cut. Ang. Pts.
          ---              ---------- --------- --------- ---------
          N                   0.65       49           5.0       434
          Grid pruning is: on 
          Number of quadrature shells:    49
          Spatial weights used:  Erf1

          Convergence Information
          -----------------------
          Convergence aids based upon iterative change in 
          total energy or number of iterations. 
          Levelshifting, if invoked, occurs when the 
          HOMO/LUMO gap drops below (HL_TOL): 1.00D-02
          DIIS, if invoked, will attempt to extrapolate 
          using up to (NFOCK): 10 stored Fock matrices.

                    Damping( 0%)  Levelshifting(0.5)       DIIS
                  --------------- ------------------- ---------------
          dE  on:    start            ASAP                start   
          dE off:    2 iters         30 iters            30 iters 


      Screening Tolerance Information
      -------------------------------
          Density screening/tol_rho: 1.00D-10
          AO Gaussian exp screening on grid/accAOfunc:  14
          CD Gaussian exp screening on grid/accCDfunc:  20
          XC Gaussian exp screening on grid/accXCfunc:  20
          Schwarz screening/accCoul: 1.00D-08

  ==================================
  === Current Density Functional ===
  ==================================

     2.00000000  Hartree-Fock Exchange
     1.00000000  CAM-B88 Exchange (T Yanai, DP Tew, NC Handy, Chem.Phys.Lett. 393, 51 (2004) doi:10.1016/j.cplett.2004.06.011)
     0.81000000  LYP Correlation (C Lee, W Yang, RG Parr, Phys.Rev.B 37, 785 (1988) doi:10.1103/PhysRevB.37.785)
     0.19000000  VWN5 Correlation (SH Vosko, L Wilk, M Nusair, Can.J.Phys. 58, 1200 (1980) doi:10.1139/p80-159)

           Range-Separation Parameters        
           ---------------------------
           Alpha           :  0.19
           Beta            :  0.46
           Gamma           :  0.33
           Short-Range HF  :     F

      Superposition of Atomic Density Guess
      -------------------------------------

 Sum of atomic energies:        -108.58747649

 Renormalizing density from      14.00 to     13

      Non-variational initial energy
      ------------------------------

 Total energy =    -103.672717
 1-e energy   =    -180.042836
 2-e energy   =      52.748287
 HOMO         =      -0.962138
 LUMO         =      -0.507383


      Symmetry analysis of molecular orbitals - initial
      -------------------------------------------------


 !! scf_movecs_sym_adapt:   16 vectors were symmetry contaminated

  Symmetry fudging

 !! scf_movecs_sym_adapt:   12 vectors were symmetry contaminated

  Numbering of irreducible representations: 

     1 ag          2 au          3 b1g         4 b1u         5 b2g     
     6 b2u         7 b3g         8 b3u     

  Orbital symmetries:

     1 ag          2 b1u         3 ag          4 b1u         5 b2u     
     6 b3u         7 ag          8 b3g         9 b2g        10 b1u     
    11 ag         12 b3u        13 b2u        14 ag         15 b1u     
    16 b3g        17 b2g     



 ----------------------------------------------
         Quadratically convergent ROKS

 Convergence threshold     :          5.000E-04
 Maximum no. of iterations :           30
 Final Fock-matrix accuracy:          1.000E-07
 ----------------------------------------------

 *** HVD: nfock =                     3

 Grid_pts file          = ./test_n2+_dat.gridpts.0
 Record size in doubles =  12289        No. of grid_pts per rec  =   3070
 Max. records in memory =      9        Max. recs in file   =      7579


              iter       energy          gnorm     gmax       time
             ----- ------------------- --------- --------- --------
                 1     -113.8972565013  3.81D-01  1.71D-01      0.2
 *** HVD: nfock =                     3
                 2     -113.9077834210  7.16D-02  3.13D-02      0.4
 *** HVD: nfock =                     3
 *** HVD: nfock =                     3
                 3     -113.9081500509  1.26D-02  7.19D-03      0.8
 *** HVD: nfock =                     3
                 4     -113.9081562769  4.00D-03  2.85D-03      1.1
 *** HVD: nfock =                     3
 *** HVD: nfock =                     3
                 5     -113.9081575777  4.89D-04  2.63D-04      1.6


         Total DFT energy =     -113.908157577697
      One electron energy =     -188.859444269061
           Coulomb energy =       61.196121473747
    Exchange-Corr. energy =       -9.866666977870
 Nuclear repulsion energy =       23.621832195486

 Numeric. integr. density =       13.000000328454

     Total iterative time =      1.6s



                       DFT Final Molecular Orbital Analysis
                       ------------------------------------

 Vector    2  Occ=2.000000D+00  E=-1.613778D+01  Symmetry=b1u
              MO Center=  0.0D+00,  0.0D+00, -6.8D-17, r^2= 3.2D-01
   Bfn.  Coefficient  Atom+Function         Bfn.  Coefficient  Atom+Function  
  ----- ------------  ---------------      ----- ------------  ---------------
     1      0.705074  1 N  s                 16     -0.705074  2 N  s          

 Vector    3  Occ=2.000000D+00  E=-2.239511D+00  Symmetry=ag
              MO Center=  1.1D-18,  2.6D-19,  4.9D-17, r^2= 4.3D-01
   Bfn.  Coefficient  Atom+Function         Bfn.  Coefficient  Atom+Function  
  ----- ------------  ---------------      ----- ------------  ---------------
     2      0.379434  1 N  s                 17      0.379434  2 N  s          
     5      0.214036  1 N  pz                20     -0.214036  2 N  pz         
     6      0.171125  1 N  s                 21      0.171125  2 N  s          
     1     -0.160913  1 N  s                 16     -0.160913  2 N  s          

 Vector    4  Occ=2.000000D+00  E=-1.542809D+00  Symmetry=b1u
              MO Center=  1.6D-39, -3.0D-40,  1.1D-16, r^2= 1.2D+00
   Bfn.  Coefficient  Atom+Function         Bfn.  Coefficient  Atom+Function  
  ----- ------------  ---------------      ----- ------------  ---------------
     6      0.558615  1 N  s                 21     -0.558615  2 N  s          
     2      0.403335  1 N  s                 17     -0.403335  2 N  s          
     5     -0.234331  1 N  pz                20     -0.234331  2 N  pz         
     1     -0.154313  1 N  s                 16      0.154313  2 N  s          

 Vector    5  Occ=2.000000D+00  E=-1.445037D+00  Symmetry=b3u
              MO Center= -1.0D-18,  2.9D-35,  8.7D-18, r^2= 7.7D-01
   Bfn.  Coefficient  Atom+Function         Bfn.  Coefficient  Atom+Function  
  ----- ------------  ---------------      ----- ------------  ---------------
     3      0.505935  1 N  px                18      0.505935  2 N  px         
     7      0.177455  1 N  px                22      0.177455  2 N  px         

 Vector    6  Occ=2.000000D+00  E=-1.445037D+00  Symmetry=b2u
              MO Center=  3.7D-34, -8.0D-19,  1.7D-18, r^2= 7.7D-01
   Bfn.  Coefficient  Atom+Function         Bfn.  Coefficient  Atom+Function  
  ----- ------------  ---------------      ----- ------------  ---------------
     4      0.505935  1 N  py                19      0.505935  2 N  py         
     8      0.177455  1 N  py                23      0.177455  2 N  py         

 Vector    7  Occ=1.000000D+00  E=-1.126010D+00  Symmetry=ag
              MO Center= -7.2D-18, -2.1D-17, -2.0D-16, r^2= 1.1D+00
   Bfn.  Coefficient  Atom+Function         Bfn.  Coefficient  Atom+Function  
  ----- ------------  ---------------      ----- ------------  ---------------
     5      0.514128  1 N  pz                20     -0.514128  2 N  pz         
     6     -0.242329  1 N  s                 21     -0.242329  2 N  s          
     2     -0.162637  1 N  s                 17     -0.162637  2 N  s          

 Vector    8  Occ=0.000000D+00  E=-4.325149D-01  Symmetry=b2g
              MO Center= -5.0D-35, -1.2D-49,  1.6D-17, r^2= 1.1D+00
   Bfn.  Coefficient  Atom+Function         Bfn.  Coefficient  Atom+Function  
  ----- ------------  ---------------      ----- ------------  ---------------
     3      0.557087  1 N  px                18     -0.557087  2 N  px         
     7      0.460893  1 N  px                22     -0.460893  2 N  px         

 Vector    9  Occ=0.000000D+00  E=-4.325149D-01  Symmetry=b3g
              MO Center=  8.4D-50, -9.7D-35,  1.8D-16, r^2= 1.1D+00
   Bfn.  Coefficient  Atom+Function         Bfn.  Coefficient  Atom+Function  
  ----- ------------  ---------------      ----- ------------  ---------------
     4      0.557087  1 N  py                19     -0.557087  2 N  py         
     8      0.460893  1 N  py                23     -0.460893  2 N  py         

 Vector   10  Occ=0.000000D+00  E= 1.210823D-01  Symmetry=b1u
              MO Center= -2.9D-36, -5.8D-35,  1.9D-16, r^2= 2.8D+00
   Bfn.  Coefficient  Atom+Function         Bfn.  Coefficient  Atom+Function  
  ----- ------------  ---------------      ----- ------------  ---------------
     6      3.605178  1 N  s                 21     -3.605178  2 N  s          
     9      2.401504  1 N  pz                24      2.401504  2 N  pz         
     2      0.278032  1 N  s                 17     -0.278032  2 N  s          
     5      0.217733  1 N  pz                20      0.217733  2 N  pz         

 Vector   11  Occ=0.000000D+00  E= 2.903190D-01  Symmetry=ag
              MO Center=  2.4D-23,  2.9D-22,  2.0D-16, r^2= 1.8D+00
   Bfn.  Coefficient  Atom+Function         Bfn.  Coefficient  Atom+Function  
  ----- ------------  ---------------      ----- ------------  ---------------
     9      0.802031  1 N  pz                24     -0.802031  2 N  pz         
     2     -0.573461  1 N  s                 17     -0.573461  2 N  s          
     6      0.475627  1 N  s                 21      0.475627  2 N  s          
     5     -0.270569  1 N  pz                20      0.270569  2 N  pz         
    15     -0.189433  1 N  dzz               30     -0.189433  2 N  dzz        

 Vector   12  Occ=0.000000D+00  E= 3.037866D-01  Symmetry=b2u
              MO Center=  8.2D-48,  2.2D-17,  5.2D-18, r^2= 2.0D+00
   Bfn.  Coefficient  Atom+Function         Bfn.  Coefficient  Atom+Function  
  ----- ------------  ---------------      ----- ------------  ---------------
     8     -0.645003  1 N  py                23     -0.645003  2 N  py         
     4      0.587739  1 N  py                19      0.587739  2 N  py         

 Vector   13  Occ=0.000000D+00  E= 3.037866D-01  Symmetry=b3u
              MO Center=  1.4D-17,  5.4D-48,  6.9D-17, r^2= 2.0D+00
   Bfn.  Coefficient  Atom+Function         Bfn.  Coefficient  Atom+Function  
  ----- ------------  ---------------      ----- ------------  ---------------
     7     -0.645003  1 N  px                22     -0.645003  2 N  px         
     3      0.587739  1 N  px                18      0.587739  2 N  px         

 Vector   14  Occ=0.000000D+00  E= 3.355895D-01  Symmetry=ag
              MO Center= -2.2D-21,  1.8D-20,  5.4D-16, r^2= 2.7D+00
   Bfn.  Coefficient  Atom+Function         Bfn.  Coefficient  Atom+Function  
  ----- ------------  ---------------      ----- ------------  ---------------
     6      0.982513  1 N  s                 21      0.982513  2 N  s          
     2     -0.632795  1 N  s                 17     -0.632795  2 N  s          
     9     -0.558176  1 N  pz                24      0.558176  2 N  pz         
     5      0.388586  1 N  pz                20     -0.388586  2 N  pz         

 Vector   15  Occ=0.000000D+00  E= 4.388518D-01  Symmetry=b1u
              MO Center=  1.9D-21,  1.4D-20,  3.2D-16, r^2= 1.6D+00
   Bfn.  Coefficient  Atom+Function         Bfn.  Coefficient  Atom+Function  
  ----- ------------  ---------------      ----- ------------  ---------------
     5      0.724085  1 N  pz                20      0.724085  2 N  pz         
     6      0.533854  1 N  s                 21     -0.533854  2 N  s          
     9     -0.428852  1 N  pz                24     -0.428852  2 N  pz         
    15     -0.298500  1 N  dzz               30      0.298500  2 N  dzz        
     2     -0.194004  1 N  s                 17      0.194004  2 N  s          

 Vector   16  Occ=0.000000D+00  E= 4.599566D-01  Symmetry=b3g
              MO Center=  5.5D-36,  2.5D-22,  1.6D-16, r^2= 2.3D+00
   Bfn.  Coefficient  Atom+Function         Bfn.  Coefficient  Atom+Function  
  ----- ------------  ---------------      ----- ------------  ---------------
     8      1.259011  1 N  py                23     -1.259011  2 N  py         
     4     -0.645569  1 N  py                19      0.645569  2 N  py         

 Vector   17  Occ=0.000000D+00  E= 4.599566D-01  Symmetry=b2g
              MO Center= -1.1D-21,  1.1D-36,  2.2D-17, r^2= 2.3D+00
   Bfn.  Coefficient  Atom+Function         Bfn.  Coefficient  Atom+Function  
  ----- ------------  ---------------      ----- ------------  ---------------
     7      1.259011  1 N  px                22     -1.259011  2 N  px         
     3     -0.645569  1 N  px                18      0.645569  2 N  px         

 Vector   18  Occ=0.000000D+00  E= 9.534416D-01  Symmetry=b1u
              MO Center= -7.7D-22, -7.6D-23, -5.6D-16, r^2= 2.2D+00
   Bfn.  Coefficient  Atom+Function         Bfn.  Coefficient  Atom+Function  
  ----- ------------  ---------------      ----- ------------  ---------------
     6      7.195402  1 N  s                 21     -7.195402  2 N  s          
     9      3.258782  1 N  pz                24      3.258782  2 N  pz         
     2     -1.274959  1 N  s                 17      1.274959  2 N  s          
     5     -0.250002  1 N  pz                20     -0.250002  2 N  pz         
    10     -0.207808  1 N  dxx               13     -0.207808  1 N  dyy        


 Task  times  cpu:        1.6s     wall:        1.7s
 Summary of allocated global arrays
-----------------------------------
  No active global arrays



                         GA Statistics for process    0
                         ------------------------------

       create   destroy   get      put      acc     scatter   gather  read&inc
calls:  694      694     8531     3243     4780       81        0     1265     
number of processes/call 1.00e+00 1.00e+00 1.00e+00 1.00e+00 0.00e+00
bytes total:             7.81e+06 2.92e+06 6.37e+06 4.62e+05 0.00e+00 1.01e+04
bytes remote:            0.00e+00 0.00e+00 0.00e+00 0.00e+00 0.00e+00 0.00e+00
Max memory consumed for GA by this process: 276864 bytes
MA_summarize_allocated_blocks: starting scan ...
MA_summarize_allocated_blocks: scan completed: 0 heap blocks, 0 stack blocks
MA usage statistics:

	allocation statistics:
					      heap	     stack
					      ----	     -----
	current number of blocks	         0	         0
	maximum number of blocks	        17	        53
	current total bytes		         0	         0
	maximum total bytes		    888192	  22509912
	maximum total K-bytes		       889	     22510
	maximum total M-bytes		         1	        23


                                NWChem Input Module
                                -------------------





                                     CITATION
                                     --------
                Please cite the following reference when publishing
                           results obtained with NWChem:

                 M. Valiev, E.J. Bylaska, N. Govind, K. Kowalski,
              T.P. Straatsma, H.J.J. van Dam, D. Wang, J. Nieplocha,
                        E. Apra, T.L. Windus, W.A. de Jong
                 "NWChem: a comprehensive and scalable open-source
                  solution for large scale molecular simulations"
                      Comput. Phys. Commun. 181, 1477 (2010)
                           doi:10.1016/j.cpc.2010.04.018

                              AUTHORS & CONTRIBUTORS
                              ----------------------
          E. Apra, E. J. Bylaska, W. A. de Jong, N. Govind, K. Kowalski,
       T. P. Straatsma, M. Valiev, H. J. J. van Dam, D. Wang, T. L. Windus,
        J. Hammond, J. Autschbach, K. Bhaskaran-Nair, J. Brabec, K. Lopata,
     F. Aquino, S. Hirata, M. T. Hackler, J. Mullin, P. Nichols, R. Peverati,
    J. Pittner, Y. Zhao, P.-D. Fan, R. J. Harrison, M. Dupuis, D. Silverstein,
    D. M. A. Smith, J. Nieplocha, V. Tipparaju, M. Krishnan, B. E. Van Kuiken,
        A. Vazquez-Mayagoitia, L. Jensen, M. Swart, Q. Wu, T. Van Voorhis,
     A. A. Auer, M. Nooijen, L. D. Crosby, E. Brown, G. Cisneros, G. I. Fann,
     H. Fruchtl, J. Garza, K. Hirao, R. Kendall, J. A. Nichols, K. Tsemekhman,
      K. Wolinski, J. Anchell, D. Bernholdt, P. Borowski, T. Clark, D. Clerc,
      H. Dachsel, M. Deegan, K. Dyall, D. Elwood, E. Glendening, M. Gutowski,
      A. Hess, J. Jaffe, B. Johnson, J. Ju, R. Kobayashi, R. Kutteh, Z. Lin,
   R. Littlefield, X. Long, B. Meng, T. Nakajima, S. Niu, L. Pollack, M. Rosing,
   K. Glaesemann, G. Sandrone, M. Stave, H. Taylor, G. Thomas, J. H. van Lenthe,
                                A. Wong, Z. Zhang.

 Total times  cpu:        1.6s     wall:        1.7s
