All connections between all procs tested: SUCCESS
 argument  1 = cosmo_h2cco2mg_ecp.nw



============================== echo of input deck ==============================
echo

start h2cco2mg_dat

geometry
    symmetry c1
    mg     0.00000000     0.00000000    -1.54656110
    o      0.00000000    -1.11909860    -0.09529177
    o      0.00000000     1.11909860    -0.09529177
    c      0.00000000     0.00000000     0.66838924
    c      0.00000000     0.00000000     1.99717688
    h      0.00000000    -0.92756722     2.53578926
    h      0.00000000     0.92756722     2.53578926
end

basis
  h  library 6-31g*
  c  library 6-31g*
  mg library "stuttgart rlc ecp"
  o  library "stuttgart rlc ecp"
end

ecp
  mg library "stuttgart rlc ecp"
  o  library "stuttgart rlc ecp"
end

cosmo
# minbem 3
# maxbem 5
end

scf
  print forces
end

task scf gradient
================================================================================


                                         
                                         


              Northwest Computational Chemistry Package (NWChem) 6.3
              ------------------------------------------------------


                    Environmental Molecular Sciences Laboratory
                       Pacific Northwest National Laboratory
                                Richland, WA 99352

                              Copyright (c) 1994-2013
                       Pacific Northwest National Laboratory
                            Battelle Memorial Institute

             NWChem is an open-source computational chemistry package
                        distributed under the terms of the
                      Educational Community License (ECL) 2.0
             A copy of the license is included with this distribution
                              in the LICENSE.TXT file

                                  ACKNOWLEDGMENT
                                  --------------

            This software and its documentation were developed at the
            EMSL at Pacific Northwest National Laboratory, a multiprogram
            national laboratory, operated for the U.S. Department of Energy
            by Battelle under Contract Number DE-AC05-76RL01830. Support
            for this work was provided by the Department of Energy Office
            of Biological and Environmental Research, Office of Basic
            Energy Sciences, and the Office of Advanced Scientific Computing.


           Job information
           ---------------

    hostname        = arcen
    program         = /home/d3y133/nwchem-dev/nwchem-dev-2013-09-10/QA/../bin/LINUX64/nwchem
    date            = Tue Oct 15 15:12:00 2013

    compiled        = Tue_Oct_15_14:55:44_2013
    source          = /home/d3y133/nwchem-dev/nwchem-dev-2013-09-10
    nwchem branch   = Development
    nwchem revision = 24582
    ga revision     = 10418
    input           = cosmo_h2cco2mg_ecp.nw
    prefix          = h2cco2mg_dat.
    data base       = /home/d3y133/nwchem-dev/nwchem-dev-2013-09-10/QA/scratchdir/h2cco2mg_dat.db
    status          = startup
    nproc           =        4
    time left       =     -1s



           Memory information
           ------------------

    heap     =   13107201 doubles =    100.0 Mbytes
    stack    =   13107201 doubles =    100.0 Mbytes
    global   =   26214400 doubles =    200.0 Mbytes (distinct from heap & stack)
    total    =   52428802 doubles =    400.0 Mbytes
    verify   = yes
    hardfail = no 


           Directory information
           ---------------------

  0 permanent = /home/d3y133/nwchem-dev/nwchem-dev-2013-09-10/QA/scratchdir
  0 scratch   = /home/d3y133/nwchem-dev/nwchem-dev-2013-09-10/QA/scratchdir




                                NWChem Input Module
                                -------------------



 Scaling coordinates for geometry "geometry" by  1.889725989
 (inverse scale =  0.529177249)

 Turning off AUTOSYM since
 SYMMETRY directive was detected!


          ------
          auto-z
          ------


                             Geometry "geometry" -> ""
                             -------------------------

 Output coordinates in angstroms (scale by  1.889725989 to convert to a.u.)

  No.       Tag          Charge          X              Y              Z
 ---- ---------------- ---------- -------------- -------------- --------------
    1 mg                  12.0000     0.00000000     0.00000000    -1.56993190
    2 o                    8.0000     0.00000000    -1.11909860    -0.11866257
    3 o                    8.0000     0.00000000     1.11909860    -0.11866257
    4 c                    6.0000     0.00000000     0.00000000     0.64501844
    5 c                    6.0000     0.00000000     0.00000000     1.97380608
    6 h                    1.0000     0.00000000    -0.92756722     2.51241846
    7 h                    1.0000     0.00000000     0.92756722     2.51241846

      Atomic Mass 
      ----------- 

      mg                23.985040
      o                 15.994910
      c                 12.000000
      h                  1.007825


 Effective nuclear repulsion energy (a.u.)     189.8004546191

            Nuclear Dipole moment (a.u.) 
            ----------------------------
        X                 Y               Z
 ---------------- ---------------- ----------------
     0.0000000000     0.0000000000     0.0000000000



                                Z-matrix (autoz)
                                -------- 

 Units are Angstrom for bonds and degrees for angles

      Type          Name      I     J     K     L     M      Value
      ----------- --------  ----- ----- ----- ----- ----- ----------
    1 Stretch                  1     2                       1.83264
    2 Stretch                  1     3                       1.83264
    3 Stretch                  1     4                       2.21495
    4 Stretch                  2     4                       1.35484
    5 Stretch                  3     4                       1.35484
    6 Stretch                  4     5                       1.32879
    7 Stretch                  5     6                       1.07261
    8 Stretch                  5     7                       1.07261
    9 Bend                     1     2     4                86.67348
   10 Bend                     1     3     4                86.67348
   11 Bend                     1     4     2                55.69009
   12 Bend                     1     4     3                55.69009
   13 Bend                     2     1     3                75.27286
   14 Bend                     2     1     4                37.63643
   15 Bend                     2     4     3               111.38018
   16 Bend                     2     4     5               124.30991
   17 Bend                     3     1     4                37.63643
   18 Bend                     3     4     5               124.30991
   19 Bend                     4     5     6               120.14254
   20 Bend                     4     5     7               120.14254
   21 Bend                     6     5     7               119.71492
   22 Torsion                  1     2     4     3           0.00000
   23 Torsion                  1     2     4     5         180.00000
   24 Torsion                  1     3     4     2           0.00000
   25 Torsion                  1     3     4     5         180.00000
   26 Torsion                  2     1     3     4           0.00000
   27 Torsion                  2     1     4     3         180.00000
   28 Torsion                  2     1     5     6           0.00000
   29 Torsion                  2     1     5     7         180.00000
   30 Torsion                  2     4     1     3         180.00000
   31 Torsion                  2     4     5     6           0.00000
   32 Torsion                  2     4     5     7         180.00000
   33 Torsion                  3     1     2     4           0.00000
   34 Torsion                  3     1     5     6         180.00000
   35 Torsion                  3     1     5     7           0.00000
   36 Torsion                  3     4     5     6         180.00000
   37 Torsion                  3     4     5     7           0.00000
   38 Torsion                  1     4     6     5         180.00000
   39 Torsion                  1     4     7     5         180.00000


            XYZ format geometry
            -------------------
     7
 geometry
 mg                    0.00000000     0.00000000    -1.56993190
 o                     0.00000000    -1.11909860    -0.11866257
 o                     0.00000000     1.11909860    -0.11866257
 c                     0.00000000     0.00000000     0.64501844
 c                     0.00000000     0.00000000     1.97380608
 h                     0.00000000    -0.92756722     2.51241846
 h                     0.00000000     0.92756722     2.51241846

 ==============================================================================
                                internuclear distances
 ------------------------------------------------------------------------------
       center one      |      center two      | atomic units |  angstroms
 ------------------------------------------------------------------------------
    2 o                |   1 mg               |     3.46318  |     1.83264
    3 o                |   1 mg               |     3.46318  |     1.83264
    4 c                |   1 mg               |     4.18565  |     2.21495
    4 c                |   2 o                |     2.56028  |     1.35484
    4 c                |   3 o                |     2.56028  |     1.35484
    5 c                |   4 c                |     2.51104  |     1.32879
    6 h                |   5 c                |     2.02693  |     1.07261
    7 h                |   5 c                |     2.02693  |     1.07261
 ------------------------------------------------------------------------------
                         number of included internuclear distances:          8
 ==============================================================================



 ==============================================================================
                                 internuclear angles
 ------------------------------------------------------------------------------
        center 1       |       center 2       |       center 3       |  degrees
 ------------------------------------------------------------------------------
    2 o                |   1 mg               |   3 o                |    75.27
    1 mg               |   2 o                |   4 c                |    86.67
    1 mg               |   3 o                |   4 c                |    86.67
    1 mg               |   2 o                |   4 c                |    86.67
    1 mg               |   3 o                |   4 c                |    86.67
    4 c                |   2 o                |   1 mg               |    86.67
    4 c                |   3 o                |   1 mg               |    86.67
    1 mg               |   4 c                |   5 c                |   180.00
    2 o                |   4 c                |   3 o                |   111.38
    2 o                |   4 c                |   5 c                |   124.31
    3 o                |   4 c                |   5 c                |   124.31
    4 c                |   5 c                |   6 h                |   120.14
    4 c                |   5 c                |   7 h                |   120.14
    6 h                |   5 c                |   7 h                |   119.71
 ------------------------------------------------------------------------------
                            number of included internuclear angles:         14
 ==============================================================================



  library name resolved from: environment
  library file name is: </home/d3y133/nwchem-dev/nwchem-dev-2013-09-10/QA/../src/basis/libraries/>
  
                      Basis "ao basis" -> "" (cartesian)
                      -----
  h (Hydrogen)
  ------------
            Exponent  Coefficients 
       -------------- ---------------------------------------------------------
  1 S  1.87311370E+01  0.033495
  1 S  2.82539370E+00  0.234727
  1 S  6.40121700E-01  0.813757

  2 S  1.61277800E-01  1.000000

  c (Carbon)
  ----------
            Exponent  Coefficients 
       -------------- ---------------------------------------------------------
  1 S  3.04752490E+03  0.001835
  1 S  4.57369510E+02  0.014037
  1 S  1.03948690E+02  0.068843
  1 S  2.92101550E+01  0.232184
  1 S  9.28666300E+00  0.467941
  1 S  3.16392700E+00  0.362312

  2 S  7.86827240E+00 -0.119332
  2 S  1.88128850E+00 -0.160854
  2 S  5.44249300E-01  1.143456

  3 P  7.86827240E+00  0.068999
  3 P  1.88128850E+00  0.316424
  3 P  5.44249300E-01  0.744308

  4 S  1.68714400E-01  1.000000

  5 P  1.68714400E-01  1.000000

  6 D  8.00000000E-01  1.000000

  mg (Magnesium)
  --------------
            Exponent  Coefficients 
       -------------- ---------------------------------------------------------
  1 S  2.42571930E+00  0.026764
  1 S  8.22625000E-01 -0.223880
  1 S  1.07749000E-01  0.620464

  2 S  3.94850000E-02  1.000000

  3 P  7.69047000E-01 -0.036648
  3 P  1.88675000E-01  0.243145
  3 P  7.51010000E-02  0.554784

  4 P  2.94970000E-02  1.000000

  o (Oxygen)
  ----------
            Exponent  Coefficients 
       -------------- ---------------------------------------------------------
  1 S  4.71055180E+01 -0.014408
  1 S  5.91134600E+00  0.129568
  1 S  9.76483000E-01 -0.563118

  2 S  2.96070000E-01  1.000000

  3 P  1.66922190E+01  0.044856
  3 P  3.90070200E+00  0.222613
  3 P  1.07825300E+00  0.500188

  4 P  2.84189000E-01  1.000000

  5 P  7.02000000E-02  1.000000



 Summary of "ao basis" -> "" (cartesian)
 ------------------------------------------------------------------------------
       Tag                 Description            Shells   Functions and Types
 ---------------- ------------------------------  ------  ---------------------
 h                           6-31g*                  2        2   2s
 c                           6-31g*                  6       15   3s2p1d
 mg                    stuttgart rlc ecp             4        8   2s2p
 o                     stuttgart rlc ecp             5       11   2s3p


  library name resolved from: environment
  library file name is: </home/d3y133/nwchem-dev/nwchem-dev-2013-09-10/QA/../src/basis/libraries/>
  

 **** WARNING Zero Coefficient **** on atom "              mg"
 angular momentum value:-1  standard basis set name: "stuttgart rlc ecp"
 input line that generated warning:
  1567: 2      1.000000000            0.000000000
  
 Local ECP potential is zero and ignored
  

 **** WARNING Zero Coefficient **** on atom "               o"
 angular momentum value:-1  standard basis set name: "stuttgart rlc ecp"
 input line that generated warning:
  1519: 2      1.000000000            0.000000000
  
 Local ECP potential is zero and ignored
  
                 ECP       "ecp basis" -> "" (cartesian)
                -----
  mg (Magnesium) Replaces    10 electrons
  ---------------------------------------
          R-exponent    Exponent     Coefficients 
         ------------ ---------------------------------------------------------
  1 U-s      2.00        1.732000      14.676000

  2 U-p      2.00        1.115000       5.175700

  3 U-d      2.00        1.203000      -1.816000

  o (Oxygen) Replaces     2 electrons
  -----------------------------------
          R-exponent    Exponent     Coefficients 
         ------------ ---------------------------------------------------------
  1 U-s      2.00       10.445670      50.771069

  2 U-p      2.00       18.045174      -4.903551

  3 U-d      2.00        8.164798      -3.312124


          ---------------
          -cosmo- solvent
          ---------------
 dielectric constant -eps-     =  78.40
 charge screening approach     =   2
 screen = (eps-1)/(eps    )    =   0.98724
 -lineq- algorithm             =   1
 -bem- low  level              =   2
 -bem- high level              =   4
 -bem- from -octahedral-
 solvent radius (ang.)         =   0.000
 gaussian surface charge width =   1.00000
 degree of switching           =   1.00000
 switching function tolerance  =   0.00010
 atomic radii = 
 --------------
    1  2.000  1.638
    2  6.000  1.720
    3  6.000  1.720
    4  6.000  2.000
    5  6.000  2.000
    6  1.000  1.300
    7  1.000  1.300

 solvent accessible surface
 --------------------------

 ---------- ATOMIC COORDINATES (A.U.) ------------ VDWR(ANG.) --
     1    0.00000000    0.00000000   -2.96674112     1.638
     2    0.00000000   -2.11478971   -0.22423975     1.720
     3    0.00000000    2.11478971   -0.22423975     1.720
     4    0.00000000    0.00000000    1.21890810     2.000
     5    0.00000000    0.00000000    3.72995264     2.000
     6    0.00000000   -1.75284788    4.74778245     1.300
     7    0.00000000    1.75284788    4.74778245     1.300
 number of segments per atom =         32
 number of   points per atom =         32
 atom (   nspa,  nppa )
 ----------------------
    1 (     20,     0 )       0
    2 (     16,     0 )       0
    3 (     16,     0 )       0
    4 (     12,     0 )       0
    5 (     20,     0 )       0
    6 (     16,     0 )       0
    7 (     16,     0 )       0
 number of -cosmo- surface points =      116
 molecular surface =    104.636 angstrom**2
 molecular volume  =     61.213 angstrom**3
 G(cav/disp)       =      1.383 kcal/mol
 ...... end of -cosmo- initialization ......


                                 NWChem SCF Module
                                 -----------------



  ao basis        = "ao basis"
  functions       =    64
  atoms           =     7
  closed shells   =    14
  open shells     =     0
  charge          =   0.00
  wavefunction    = RHF 
  input vectors   = atomic
  output vectors  = /home/d3y133/nwchem-dev/nwchem-dev-2013-09-10/QA/scratchdir/h2cco2mg_dat.movecs
  use symmetry    = F
  symmetry adapt  = F


 Summary of "ao basis" -> "ao basis" (cartesian)
 ------------------------------------------------------------------------------
       Tag                 Description            Shells   Functions and Types
 ---------------- ------------------------------  ------  ---------------------
 h                           6-31g*                  2        2   2s
 c                           6-31g*                  6       15   3s2p1d
 mg                    stuttgart rlc ecp             4        8   2s2p
 o                     stuttgart rlc ecp             5       11   2s3p



 Forming initial guess at       1.1s


      Superposition of Atomic Density Guess
      -------------------------------------

 Sum of atomic energies:        -111.84313933

      Non-variational initial energy
      ------------------------------

 Total energy =    -110.022300
 1-e energy   =    -338.559107
 2-e energy   =     135.852580
 HOMO         =      -0.248490
 LUMO         =      -0.133298


 Starting SCF solution at       1.3s



 ----------------------------------------------
         Quadratically convergent ROHF

 Convergence threshold     :          1.000E-04
 Maximum no. of iterations :           30
 Final Fock-matrix accuracy:          1.000E-07
 ----------------------------------------------

     COSMO gas phase

 Integral file          = /home/d3y133/nwchem-dev/nwchem-dev-2013-09-10/QA/scratchdir/h2cco2mg_dat.aoints.0
 Record size in doubles =  65536        No. of integs per rec  =  43688
 Max. records in memory =     19        Max. records in file   =   7213
 No. of bits per label  =      8        No. of bits per value  =     64


 #quartets = 1.077D+05 #integrals = 1.123D+06 #direct =  0.0% #cached =100.0%


File balance: exchanges=     0  moved=     0  time=   0.0


              iter       energy          gnorm     gmax       time
             ----- ------------------- --------- --------- --------
                 1     -109.0401915094  1.41D+00  3.81D-01      0.4
                 2     -109.1463436348  3.31D-01  9.20D-02      0.5
                 3     -109.1576020904  2.36D-02  7.87D-03      0.5
                 4     -109.1577439140  5.36D-04  1.17D-04      0.6
                 5     -109.1577439694  9.65D-06  3.47D-06      0.6
     COSMO solvation phase

              iter       energy          gnorm     gmax       time
             ----- ------------------- --------- --------- --------
                 1     -109.2821934479  3.06D-01  1.33D-01      1.9
                 2     -109.3044847124  1.30D-01  3.06D-02      3.4
                 3     -109.3061020030  1.56D-02  6.51D-03      4.2
                 4     -109.3061583773  3.13D-03  1.33D-03      4.9
                 5     -109.3061607953  7.90D-04  3.39D-04      5.6
                 6     -109.3061609478  1.99D-04  8.72D-05      6.1
                 7     -109.3061609575  5.10D-05  2.45D-05      6.6
 
                  COSMO solvation results
                  -----------------------
 
                 gas phase energy =      -109.1577439694
                 sol phase energy =      -109.3061609575
 (electrostatic) solvation energy =         0.1484169881 (   93.13 kcal/mol)


       Final RHF  results 
       ------------------ 

         Total SCF energy =   -109.306160957503
      One-electron energy =   -344.405982100876
      Two-electron energy =    141.453726112845
 Nuclear repulsion energy =     92.684226606071

        Time for solution =      6.4s


             Final eigenvalues
             -----------------

              1      
    1  -11.3187
    2  -11.1627
    3   -1.3789
    4   -1.2587
    5   -0.9688
    6   -0.7035
    7   -0.6172
    8   -0.6167
    9   -0.5688
   10   -0.5124
   11   -0.4779
   12   -0.4374
   13   -0.4331
   14   -0.2943
   15    0.0513
   16    0.0704
   17    0.0751
   18    0.1118
   19    0.2128
   20    0.2269
   21    0.2363
   22    0.2407
   23    0.2465
   24    0.2674

                       ROHF Final Molecular Orbital Analysis
                       -------------------------------------

 Vector    3  Occ=2.000000D+00  E=-1.378918D+00
              MO Center= -1.3D-09, -6.7D-08,  3.6D-02, r^2= 1.2D+00
   Bfn.  Coefficient  Atom+Function         Bfn.  Coefficient  Atom+Function  
  ----- ------------  ---------------      ----- ------------  ---------------
    10     -0.281488  2 O  s                 21     -0.281488  3 O  s          
     9      0.269307  2 O  s                 20      0.269306  3 O  s          
    32     -0.206638  4 C  s          

 Vector    4  Occ=2.000000D+00  E=-1.258709D+00
              MO Center= -1.0D-09,  6.1D-08, -2.4D-02, r^2= 1.5D+00
   Bfn.  Coefficient  Atom+Function         Bfn.  Coefficient  Atom+Function  
  ----- ------------  ---------------      ----- ------------  ---------------
    10      0.361586  2 O  s                 21     -0.361586  3 O  s          
     9     -0.310431  2 O  s                 20      0.310431  3 O  s          
    34     -0.183398  4 C  py         

 Vector    5  Occ=2.000000D+00  E=-9.688431D-01
              MO Center= -3.0D-09, -1.8D-08,  1.4D+00, r^2= 1.3D+00
   Bfn.  Coefficient  Atom+Function         Bfn.  Coefficient  Atom+Function  
  ----- ------------  ---------------      ----- ------------  ---------------
    47      0.318534  5 C  s                 51      0.283674  5 C  s          
    35      0.227117  4 C  pz                32      0.218666  4 C  s          
    46     -0.175283  5 C  s          

 Vector    6  Occ=2.000000D+00  E=-7.035290D-01
              MO Center= -3.7D-10, -5.6D-08,  8.5D-01, r^2= 3.1D+00
   Bfn.  Coefficient  Atom+Function         Bfn.  Coefficient  Atom+Function  
  ----- ------------  ---------------      ----- ------------  ---------------
    32      0.262259  4 C  s                 10     -0.234853  2 O  s          
    21     -0.234853  3 O  s                 50     -0.204641  5 C  pz         
    36      0.194171  4 C  s                 12      0.186088  2 O  py         
    23     -0.186088  3 O  py         

 Vector    7  Occ=2.000000D+00  E=-6.171834D-01
              MO Center= -8.1D-11, -3.6D-06,  6.5D-01, r^2= 2.7D+00
   Bfn.  Coefficient  Atom+Function         Bfn.  Coefficient  Atom+Function  
  ----- ------------  ---------------      ----- ------------  ---------------
    34      0.303930  4 C  py                13     -0.258497  2 O  pz         
    24      0.258498  3 O  pz                49      0.246812  5 C  py         
    16     -0.195393  2 O  pz                27      0.195394  3 O  pz         
    10      0.150123  2 O  s                 21     -0.150121  3 O  s          

 Vector    8  Occ=2.000000D+00  E=-6.167440D-01
              MO Center= -5.1D-10,  3.5D-06,  8.7D-01, r^2= 2.7D+00
   Bfn.  Coefficient  Atom+Function         Bfn.  Coefficient  Atom+Function  
  ----- ------------  ---------------      ----- ------------  ---------------
    35      0.305444  4 C  pz                50     -0.272669  5 C  pz         
    12     -0.253824  2 O  py                23      0.253825  3 O  py         
    15     -0.182687  2 O  py                26      0.182688  3 O  py         
    51     -0.153844  5 C  s          

 Vector    9  Occ=2.000000D+00  E=-5.687522D-01
              MO Center= -1.3D-09, -6.6D-08,  1.9D-01, r^2= 1.8D+00
   Bfn.  Coefficient  Atom+Function         Bfn.  Coefficient  Atom+Function  
  ----- ------------  ---------------      ----- ------------  ---------------
    11      0.325802  2 O  px                22      0.325802  3 O  px         
    33      0.282061  4 C  px                14      0.246857  2 O  px         
    25      0.246857  3 O  px                37      0.156529  4 C  px         

 Vector   10  Occ=2.000000D+00  E=-5.124433D-01
              MO Center= -2.8D-10,  6.5D-08,  1.4D+00, r^2= 2.9D+00
   Bfn.  Coefficient  Atom+Function         Bfn.  Coefficient  Atom+Function  
  ----- ------------  ---------------      ----- ------------  ---------------
    49      0.342574  5 C  py                61     -0.205853  6 H  s          
    63      0.205853  7 H  s                 34     -0.201393  4 C  py         
    62     -0.178015  6 H  s                 64      0.178015  7 H  s          
    13      0.172404  2 O  pz                24     -0.172404  3 O  pz         
    53      0.170264  5 C  py                12      0.154467  2 O  py         

 Vector   11  Occ=2.000000D+00  E=-4.778625D-01
              MO Center= -8.0D-10, -7.6D-08,  2.5D-01, r^2= 2.4D+00
   Bfn.  Coefficient  Atom+Function         Bfn.  Coefficient  Atom+Function  
  ----- ------------  ---------------      ----- ------------  ---------------
    13      0.355048  2 O  pz                24      0.355048  3 O  pz         
    16      0.283695  2 O  pz                27      0.283695  3 O  pz         
    50      0.238296  5 C  pz                35     -0.236698  4 C  pz         
     1     -0.198147  1 Mg s          

 Vector   12  Occ=2.000000D+00  E=-4.374008D-01
              MO Center= -1.0D-08,  5.1D-08, -1.1D-01, r^2= 2.0D+00
   Bfn.  Coefficient  Atom+Function         Bfn.  Coefficient  Atom+Function  
  ----- ------------  ---------------      ----- ------------  ---------------
    11      0.424268  2 O  px                22     -0.424268  3 O  px         
    14      0.362833  2 O  px                25     -0.362833  3 O  px         

 Vector   13  Occ=2.000000D+00  E=-4.331414D-01
              MO Center=  1.0D-08,  1.5D-07,  3.8D-03, r^2= 2.3D+00
   Bfn.  Coefficient  Atom+Function         Bfn.  Coefficient  Atom+Function  
  ----- ------------  ---------------      ----- ------------  ---------------
    12      0.365087  2 O  py                23      0.365087  3 O  py         
    15      0.316560  2 O  py                26      0.316560  3 O  py         
    13     -0.233179  2 O  pz                24      0.233179  3 O  pz         
    16     -0.209538  2 O  pz                27      0.209538  3 O  pz         

 Vector   14  Occ=2.000000D+00  E=-2.943309D-01
              MO Center=  2.4D-09,  1.5D-08,  1.3D+00, r^2= 2.1D+00
   Bfn.  Coefficient  Atom+Function         Bfn.  Coefficient  Atom+Function  
  ----- ------------  ---------------      ----- ------------  ---------------
    52      0.439035  5 C  px                48      0.419727  5 C  px         
    33      0.227285  4 C  px                14     -0.210320  2 O  px         
    25     -0.210320  3 O  px                11     -0.208241  2 O  px         
    22     -0.208241  3 O  px         

 Vector   15  Occ=0.000000D+00  E= 5.126114D-02
              MO Center= -1.2D-07, -1.4D-07, -3.2D+00, r^2= 6.3D+00
   Bfn.  Coefficient  Atom+Function         Bfn.  Coefficient  Atom+Function  
  ----- ------------  ---------------      ----- ------------  ---------------
     2      0.918406  1 Mg s                  8     -0.786998  1 Mg pz         
    19      0.233808  2 O  pz                30      0.233808  3 O  pz         
     1      0.194275  1 Mg s                 51     -0.191590  5 C  s          
    39      0.157290  4 C  pz         

 Vector   16  Occ=0.000000D+00  E= 7.040872D-02
              MO Center=  6.3D-08, -1.9D-08, -2.0D+00, r^2= 1.4D+01
   Bfn.  Coefficient  Atom+Function         Bfn.  Coefficient  Atom+Function  
  ----- ------------  ---------------      ----- ------------  ---------------
     6      1.249496  1 Mg px                17     -0.182434  2 O  px         
    28     -0.182434  3 O  px         

 Vector   17  Occ=0.000000D+00  E= 7.507430D-02
              MO Center= -1.6D-08,  2.3D-08, -2.2D+00, r^2= 1.4D+01
   Bfn.  Coefficient  Atom+Function         Bfn.  Coefficient  Atom+Function  
  ----- ------------  ---------------      ----- ------------  ---------------
     7      1.467585  1 Mg py                18     -0.371142  2 O  py         
    29     -0.371142  3 O  py                19     -0.153925  2 O  pz         
    30      0.153925  3 O  pz         

 Vector   18  Occ=0.000000D+00  E= 1.117948D-01
              MO Center= -3.7D-09, -7.9D-08, -5.6D-01, r^2= 1.2D+01
   Bfn.  Coefficient  Atom+Function         Bfn.  Coefficient  Atom+Function  
  ----- ------------  ---------------      ----- ------------  ---------------
     8      1.084843  1 Mg pz                 2      0.823366  1 Mg s          
    51     -0.355596  5 C  s                  5     -0.243599  1 Mg pz         
    36     -0.224212  4 C  s                 10     -0.192966  2 O  s          
    21     -0.192966  3 O  s                  1      0.158118  1 Mg s          
    19      0.152604  2 O  pz                30      0.152604  3 O  pz         

 Vector   19  Occ=0.000000D+00  E= 2.127892D-01
              MO Center= -3.8D-08, -9.0D-07, -1.5D+00, r^2= 8.6D+00
   Bfn.  Coefficient  Atom+Function         Bfn.  Coefficient  Atom+Function  
  ----- ------------  ---------------      ----- ------------  ---------------
     2      0.841799  1 Mg s                  5      0.818168  1 Mg pz         
    18     -0.594188  2 O  py                29      0.594188  3 O  py         
     8     -0.582952  1 Mg pz                 1     -0.481825  1 Mg s          
    19      0.342418  2 O  pz                30      0.342417  3 O  pz         
    39     -0.150893  4 C  pz         

 Vector   20  Occ=0.000000D+00  E= 2.269379D-01
              MO Center= -8.2D-08,  1.0D-06,  4.5D-01, r^2= 9.8D+00
   Bfn.  Coefficient  Atom+Function         Bfn.  Coefficient  Atom+Function  
  ----- ------------  ---------------      ----- ------------  ---------------
    18      0.951714  2 O  py                29      0.951714  3 O  py         
    19     -0.771130  2 O  pz                30      0.771130  3 O  pz         
     7     -0.389262  1 Mg py                38     -0.373798  4 C  py         
    15     -0.263103  2 O  py                26     -0.263103  3 O  py         
    53     -0.262327  5 C  py         

 Vector   21  Occ=0.000000D+00  E= 2.362758D-01
              MO Center= -6.6D-08, -7.7D-07,  1.1D-01, r^2= 7.7D+00
   Bfn.  Coefficient  Atom+Function         Bfn.  Coefficient  Atom+Function  
  ----- ------------  ---------------      ----- ------------  ---------------
    17      0.895103  2 O  px                28      0.895102  3 O  px         
    37     -0.880393  4 C  px                 6     -0.717215  1 Mg px         
    52      0.409114  5 C  px                33     -0.367067  4 C  px         

 Vector   22  Occ=0.000000D+00  E= 2.406769D-01
              MO Center=  6.2D-08, -4.5D-07, -5.1D-01, r^2= 9.2D+00
   Bfn.  Coefficient  Atom+Function         Bfn.  Coefficient  Atom+Function  
  ----- ------------  ---------------      ----- ------------  ---------------
    36      1.136875  4 C  s                 19     -0.930419  2 O  pz         
    30     -0.930419  3 O  pz                 2     -0.885186  1 Mg s          
    18     -0.784640  2 O  py                29      0.784639  3 O  py         
    51      0.677293  5 C  s                  5     -0.340637  1 Mg pz         
    39     -0.335562  4 C  pz                 8      0.316243  1 Mg pz         

 Vector   23  Occ=0.000000D+00  E= 2.465318D-01
              MO Center=  8.8D-08,  5.9D-07, -1.2D-01, r^2= 8.5D+00
   Bfn.  Coefficient  Atom+Function         Bfn.  Coefficient  Atom+Function  
  ----- ------------  ---------------      ----- ------------  ---------------
    17      1.176552  2 O  px                28     -1.176552  3 O  px         
    14     -0.303246  2 O  px                25      0.303245  3 O  px         

 Vector   24  Occ=0.000000D+00  E= 2.674225D-01
              MO Center=  6.2D-08,  1.3D-07, -1.1D+00, r^2= 6.2D+00
   Bfn.  Coefficient  Atom+Function         Bfn.  Coefficient  Atom+Function  
  ----- ------------  ---------------      ----- ------------  ---------------
     3      1.486617  1 Mg px                17     -0.492168  2 O  px         
    28     -0.492168  3 O  px                 6     -0.435680  1 Mg px         
    52      0.250985  5 C  px         

 Vector   25  Occ=0.000000D+00  E= 2.702095D-01
              MO Center=  8.0D-09,  2.0D-07, -7.3D-01, r^2= 1.1D+01
   Bfn.  Coefficient  Atom+Function         Bfn.  Coefficient  Atom+Function  
  ----- ------------  ---------------      ----- ------------  ---------------
     7      1.140169  1 Mg py                18     -1.063111  2 O  py         
    29     -1.063112  3 O  py                19     -0.929593  2 O  pz         
    30      0.929594  3 O  pz                53     -0.736253  5 C  py         
    62     -0.553993  6 H  s                 64      0.553992  7 H  s          
    10     -0.338522  2 O  s                 21      0.338522  3 O  s          

 Vector   26  Occ=0.000000D+00  E= 2.831544D-01
              MO Center= -1.7D-09,  7.0D-08,  8.9D-02, r^2= 5.6D+00
   Bfn.  Coefficient  Atom+Function         Bfn.  Coefficient  Atom+Function  
  ----- ------------  ---------------      ----- ------------  ---------------
     6      0.635857  1 Mg px                17     -0.525941  2 O  px         
    28     -0.525941  3 O  px                52      0.518207  5 C  px         
    37     -0.421075  4 C  px                14      0.397834  2 O  px         
    25      0.397834  3 O  px                 3     -0.356149  1 Mg px         
    33     -0.314049  4 C  px                11      0.232334  2 O  px         

 Vector   27  Occ=0.000000D+00  E= 3.141991D-01
              MO Center=  2.3D-08, -9.9D-08,  1.0D+00, r^2= 8.0D+00
   Bfn.  Coefficient  Atom+Function         Bfn.  Coefficient  Atom+Function  
  ----- ------------  ---------------      ----- ------------  ---------------
    62     -1.226572  6 H  s                 64     -1.226572  7 H  s          
    54      1.186533  5 C  pz                 5      1.129427  1 Mg pz         
    39      0.920795  4 C  pz                51      0.746362  5 C  s          
     2      0.573729  1 Mg s                 36      0.295136  4 C  s          
    50      0.194856  5 C  pz                 8     -0.186090  1 Mg pz         

 Vector   28  Occ=0.000000D+00  E= 3.477302D-01
              MO Center=  1.3D-09,  1.3D-07, -6.2D-01, r^2= 8.4D+00
   Bfn.  Coefficient  Atom+Function         Bfn.  Coefficient  Atom+Function  
  ----- ------------  ---------------      ----- ------------  ---------------
     4      1.914910  1 Mg py                19     -0.957566  2 O  pz         
    30      0.957566  3 O  pz                53     -0.822009  5 C  py         
    62     -0.715683  6 H  s                 64      0.715683  7 H  s          
    18     -0.472152  2 O  py                29     -0.472152  3 O  py         
     7     -0.341700  1 Mg py                10      0.236813  2 O  s          

 Vector   29  Occ=0.000000D+00  E= 3.697827D-01
              MO Center=  1.1D-08, -3.8D-06,  4.1D-01, r^2= 9.0D+00
   Bfn.  Coefficient  Atom+Function         Bfn.  Coefficient  Atom+Function  
  ----- ------------  ---------------      ----- ------------  ---------------
    51      2.705627  5 C  s                  5     -1.386436  1 Mg pz         
    39     -1.324794  4 C  pz                62     -1.145285  6 H  s          
    64     -1.145276  7 H  s                 36     -0.857882  4 C  s          
    19      0.535985  2 O  pz                30      0.535977  3 O  pz         
     8      0.477992  1 Mg pz                54     -0.301897  5 C  pz         

 Vector   30  Occ=0.000000D+00  E= 3.727335D-01
              MO Center=  9.7D-10,  4.0D-06,  1.3D+00, r^2= 7.3D+00
   Bfn.  Coefficient  Atom+Function         Bfn.  Coefficient  Atom+Function  
  ----- ------------  ---------------      ----- ------------  ---------------
    62      1.558513  6 H  s                 64     -1.558520  7 H  s          
    19     -1.397381  2 O  pz                30      1.397385  3 O  pz         
    53      1.195641  5 C  py                 4      0.940719  1 Mg py         
    18     -0.594194  2 O  py                29     -0.594193  3 O  py         
     7      0.385958  1 Mg py                38     -0.239723  4 C  py         

 Vector   31  Occ=0.000000D+00  E= 5.011122D-01
              MO Center=  1.3D-09, -1.2D-08,  1.4D+00, r^2= 4.0D+00
   Bfn.  Coefficient  Atom+Function         Bfn.  Coefficient  Atom+Function  
  ----- ------------  ---------------      ----- ------------  ---------------
    36      4.212671  4 C  s                 54      2.563759  5 C  pz         
    51     -2.485231  5 C  s                 39      1.333264  4 C  pz         
     5     -0.527460  1 Mg pz                16     -0.464363  2 O  pz         
    27     -0.464363  3 O  pz                62     -0.375193  6 H  s          
    64     -0.375193  7 H  s                  1     -0.288606  1 Mg s          


 center of mass
 --------------
 x =   0.00000000 y =   0.00000000 z =  -0.11433758

 moments of inertia (a.u.)
 ------------------
         591.119585027575           0.000000000000           0.000000000000
           0.000000000000         441.857341447479           0.000000000000
           0.000000000000           0.000000000000         149.262243580096

  Mulliken analysis of the total density
  --------------------------------------

    Atom       Charge   Shell Charges
 -----------   ------   -------------------------------------------------------
    1 Mg   2     0.33   0.20  0.00  0.14 -0.01
    2 O    6     6.90   0.83  1.02  2.75  2.16  0.13
    3 O    6     6.90   0.83  1.02  2.75  2.16  0.13
    4 C    6     5.51   2.00  0.68  1.85  0.33  0.48  0.18
    5 C    6     6.66   2.00  0.62  2.07  0.60  1.32  0.06
    6 H    1     0.85   0.52  0.32
    7 H    1     0.85   0.52  0.32

       Multipole analysis of the density wrt the origin
       ------------------------------------------------

     L   x y z        total         open         nuclear
     -   - - -        -----         ----         -------
     0   0 0 0      0.000000      0.000000     28.000000

     1   1 0 0      0.000000      0.000000      0.000000
     1   0 1 0      0.000000      0.000000      0.000000
     1   0 0 1     -5.479853      0.000000     30.564370

     2   2 0 0    -21.251072      0.000000      0.000000
     2   1 1 0      0.000000      0.000000      0.000000
     2   1 0 1      0.000000      0.000000      0.000000
     2   0 2 0    -29.871320      0.000000     59.812978
     2   0 1 1      0.000000      0.000000      0.000000
     2   0 0 2     -5.945010      0.000000    155.679086


 Parallel integral file used      28 records with       0 large values

                              NWChem Gradients Module
                              -----------------------



  wavefunction    =   RHF     

nuclear repulsion gradient  
     0.000000     0.000000     2.599494
     0.000000     8.114435     4.242213
     0.000000    -8.114435     4.242213
     0.000000     0.000000    -0.474589
     0.000000     0.000000    -7.667794
     0.000000     1.598609    -1.470769
     0.000000    -1.598609    -1.470769

weighted density gradient  
     0.000000     0.000000     0.040726
     0.000000     0.315513     0.145578
     0.000000    -0.315513     0.145578
     0.000000     0.000000     0.008918
     0.000000     0.000000    -0.171209
     0.000000     0.165743    -0.084795
     0.000000    -0.165743    -0.084795

kinetic energy gradient  
     0.000000     0.000000    -2.790756
     0.000000   -17.177593    -9.316102
     0.000000    17.177593    -9.316102
     0.000000     0.000000    -3.084714
     0.000000     0.000000    17.714462
     0.000000    -4.288835     3.396607
     0.000000     4.288835     3.396607

2-electron gradient  
     0.000000     0.000000     0.152676
     0.000000     8.731237     4.939316
     0.000000    -8.731237     4.939316
     0.000000     0.000000     3.565940
     0.000000     0.000000    -9.894454
     0.000000     2.541600    -1.851397
     0.000000    -2.541600    -1.851397

nuclear-cosmo charge gradient  
     0.000000     0.000000    -0.566193
     0.000000     0.144482     0.272700
     0.000000    -0.144482     0.272700
     0.000000     0.000000     0.157579
     0.000000     0.000000    -0.124976
     0.000000     0.003827    -0.005905
     0.000000    -0.003827    -0.005905

electron-cosmo charge gradient  
     0.000000     0.000000     0.650545
     0.000000    -0.138257    -0.319953
     0.000000     0.138257    -0.319953
     0.000000     0.000000    -0.168212
     0.000000     0.000000     0.128247
     0.000000    -0.020320     0.014663
     0.000000     0.020320     0.014663

cosmo charge-cosmo charge gradient  
     0.000000     0.000000    -0.014339
     0.000000    -0.001193     0.006326
     0.000000     0.001193     0.006326
     0.000000     0.000000     0.001878
     0.000000     0.000000    -0.000157
     0.000000     0.000008    -0.000017
     0.000000    -0.000008    -0.000017

total RHF gradient
     0.000000     0.000000     0.072153
     0.000000    -0.011377    -0.029922
     0.000000     0.011377    -0.029922
     0.000000     0.000000     0.006799
     0.000000     0.000000    -0.015881
     0.000000     0.000632    -0.001614
     0.000000    -0.000632    -0.001614



                         RHF ENERGY GRADIENTS

    atom               coordinates                        gradient
                 x          y          z           x          y          z
   1 mg      0.000000   0.000000  -2.966741    0.000000   0.000000   0.072153
   2 o       0.000000  -2.114790  -0.224240    0.000000  -0.011377  -0.029922
   3 o       0.000000   2.114790  -0.224240    0.000000   0.011377  -0.029922
   4 c       0.000000   0.000000   1.218908    0.000000   0.000000   0.006799
   5 c       0.000000   0.000000   3.729953    0.000000   0.000000  -0.015881
   6 h       0.000000  -1.752848   4.747782    0.000000   0.000632  -0.001614
   7 h       0.000000   1.752848   4.747782    0.000000  -0.000632  -0.001614

                 ----------------------------------------
                 |  Time  |  1-e(secs)   |  2-e(secs)   |
                 ----------------------------------------
                 |  CPU   |       0.12   |       0.91   |
                 ----------------------------------------
                 |  WALL  |       0.12   |       0.93   |
                 ----------------------------------------

 Task  times  cpu:        7.6s     wall:        8.5s
 Summary of allocated global arrays
-----------------------------------
  No active global arrays



                         GA Statistics for process    0
                         ------------------------------

       create   destroy   get      put      acc     scatter   gather  read&inc
calls:  767      767     1.88e+04 2091     4235        0        0      113     
number of processes/call 1.21e+00 1.39e+00 1.14e+00 0.00e+00 0.00e+00
bytes total:             1.78e+07 5.85e+06 4.66e+06 0.00e+00 0.00e+00 9.04e+02
bytes remote:            8.89e+06 1.15e+06 2.34e+06 0.00e+00 0.00e+00 0.00e+00
Max memory consumed for GA by this process: 163384 bytes
MA_summarize_allocated_blocks: starting scan ...
MA_summarize_allocated_blocks: scan completed: 0 heap blocks, 0 stack blocks
MA usage statistics:

	allocation statistics:
					      heap	     stack
					      ----	     -----
	current number of blocks	         0	         0
	maximum number of blocks	        41	        31
	current total bytes		         0	         0
	maximum total bytes		  10024784	  32875328
	maximum total K-bytes		     10025	     32876
	maximum total M-bytes		        11	        33


                                NWChem Input Module
                                -------------------





                                     CITATION
                                     --------
                Please cite the following reference when publishing
                           results obtained with NWChem:

                 M. Valiev, E.J. Bylaska, N. Govind, K. Kowalski,
              T.P. Straatsma, H.J.J. van Dam, D. Wang, J. Nieplocha,
                        E. Apra, T.L. Windus, W.A. de Jong
                 "NWChem: a comprehensive and scalable open-source
                  solution for large scale molecular simulations"
                      Comput. Phys. Commun. 181, 1477 (2010)
                           doi:10.1016/j.cpc.2010.04.018

                              AUTHORS & CONTRIBUTORS
                              ----------------------
          E. Apra, E. J. Bylaska, W. A. de Jong, N. Govind, K. Kowalski,
       T. P. Straatsma, M. Valiev, H. J. J. van Dam, D. Wang, T. L. Windus,
        J. Hammond, J. Autschbach, K. Bhaskaran-Nair, J. Brabec, K. Lopata,
     F. Aquino, S. Hirata, M. T. Hackler, T. Risthaus, M. Malagoli, J. Mullin,
        P. Nichols, R. Peverati, J. Pittner, Y. Zhao, P.-D. Fan, A. Fonari,
     R. J. Harrison, M. Dupuis, D. Silverstein, D. M. A. Smith, J. Nieplocha,
       V. Tipparaju, M. Krishnan, B. E. Van Kuiken,  A. Vazquez-Mayagoitia,
        L. Jensen, M. Swart, Q. Wu, T. Van Voorhis, A. A. Auer, M. Nooijen,
      L. D. Crosby, E. Brown, G. Cisneros, G. I. Fann, H. Fruchtl, J. Garza,
   K. Hirao, R. Kendall, J. A. Nichols, K. Tsemekhman, K. Wolinski, J. Anchell,
       D. Bernholdt, P. Borowski, T. Clark, D. Clerc, H. Dachsel, M. Deegan,
        K. Dyall, D. Elwood, E. Glendening, M. Gutowski, A. Hess, J. Jaffe,
   B. Johnson, J. Ju, R. Kobayashi, R. Kutteh, Z. Lin, R. Littlefield, X. Long,
        B. Meng,T. Nakajima, S. Niu, L. Pollack, M. Rosing, K. Glaesemann,
      G. Sandrone, M. Stave, H. Taylor, G. Thomas, J. H. van Lenthe, A. Wong,
                                     Z.Zhang.

 Total times  cpu:        7.6s     wall:        9.5s
