 argument  1 = ./cosmo_h2cco2mg_ecp.nw



============================== echo of input deck ==============================
echo

start cosmo_h2cco2mg_dat

geometry
    symmetry c1
    mg     0.00000000     0.00000000    -1.54656110
    o      0.00000000    -1.11909860    -0.09529177
    o      0.00000000     1.11909860    -0.09529177
    c      0.00000000     0.00000000     0.66838924
    c      0.00000000     0.00000000     1.99717688
    h      0.00000000    -0.92756722     2.53578926
    h      0.00000000     0.92756722     2.53578926
end

basis
  h  library 6-31g*
  c  library 6-31g*
  mg library "stuttgart rlc ecp"
  o  library "stuttgart rlc ecp"
end

ecp
  mg library "stuttgart rlc ecp"
  o  library "stuttgart rlc ecp"
end

cosmo
end

scf
  print forces cosmo_energies
end

task scf gradient
================================================================================


                                         
                                         


             Northwest Computational Chemistry Package (NWChem) 7.0.1
             --------------------------------------------------------


                    Environmental Molecular Sciences Laboratory
                       Pacific Northwest National Laboratory
                                Richland, WA 99352

                              Copyright (c) 1994-2020
                       Pacific Northwest National Laboratory
                            Battelle Memorial Institute

             NWChem is an open-source computational chemistry package
                        distributed under the terms of the
                      Educational Community License (ECL) 2.0
             A copy of the license is included with this distribution
                              in the LICENSE.TXT file

                                  ACKNOWLEDGMENT
                                  --------------

            This software and its documentation were developed at the
            EMSL at Pacific Northwest National Laboratory, a multiprogram
            national laboratory, operated for the U.S. Department of Energy
            by Battelle under Contract Number DE-AC05-76RL01830. Support
            for this work was provided by the Department of Energy Office
            of Biological and Environmental Research, Office of Basic
            Energy Sciences, and the Office of Advanced Scientific Computing.


           Job information
           ---------------

    hostname        = WE41476
    program         = nwchem
    date            = Thu Nov 11 14:56:27 2021

    compiled        = Thu_Nov_11_13:51:38_2021
    source          = /Users/meji656/Sources/nwchem
    nwchem branch   = 7.0.0
    nwchem revision = nwchem_on_git-3012-g75ff49f32d
    ga revision     = 5.8.0
    use scalapack   = F
    input           = ./cosmo_h2cco2mg_ecp.nw
    prefix          = cosmo_h2cco2mg_dat.
    data base       = ./cosmo_h2cco2mg_dat.db
    status          = startup
    nproc           =        4
    time left       =     -1s



           Memory information
           ------------------

    heap     =   13107196 doubles =    100.0 Mbytes
    stack    =   13107201 doubles =    100.0 Mbytes
    global   =   26214400 doubles =    200.0 Mbytes (distinct from heap & stack)
    total    =   52428797 doubles =    400.0 Mbytes
    verify   = yes
    hardfail = no 


           Directory information
           ---------------------

  0 permanent = .
  0 scratch   = .




                                NWChem Input Module
                                -------------------



 Scaling coordinates for geometry "geometry" by  1.889725989
 (inverse scale =  0.529177249)

 Turning off AUTOSYM since
 SYMMETRY directive was detected!


          ------
          auto-z
          ------
  no constraints, skipping    0.0000000000000000     
  no constraints, skipping    0.0000000000000000     


                             Geometry "geometry" -> ""
                             -------------------------

 Output coordinates in angstroms (scale by  1.889725989 to convert to a.u.)

  No.       Tag          Charge          X              Y              Z
 ---- ---------------- ---------- -------------- -------------- --------------
    1 mg                  12.0000     0.00000000     0.00000000    -1.56993190
    2 o                    8.0000     0.00000000    -1.11909860    -0.11866257
    3 o                    8.0000     0.00000000     1.11909860    -0.11866257
    4 c                    6.0000     0.00000000     0.00000000     0.64501844
    5 c                    6.0000     0.00000000     0.00000000     1.97380608
    6 h                    1.0000     0.00000000    -0.92756722     2.51241846
    7 h                    1.0000     0.00000000     0.92756722     2.51241846

      Atomic Mass 
      ----------- 

      mg                23.985040
      o                 15.994910
      c                 12.000000
      h                  1.007825


 Effective nuclear repulsion energy (a.u.)     189.8004546191

            Nuclear Dipole moment (a.u.) 
            ----------------------------
        X                 Y               Z
 ---------------- ---------------- ----------------
     0.0000000000     0.0000000000     0.0000000000



                                Z-matrix (autoz)
                                -------- 

 Units are Angstrom for bonds and degrees for angles

      Type          Name      I     J     K     L     M      Value
      ----------- --------  ----- ----- ----- ----- ----- ----------
    1 Stretch                  1     2                       1.83264
    2 Stretch                  1     3                       1.83264
    3 Stretch                  1     4                       2.21495
    4 Stretch                  2     4                       1.35484
    5 Stretch                  3     4                       1.35484
    6 Stretch                  4     5                       1.32879
    7 Stretch                  5     6                       1.07261
    8 Stretch                  5     7                       1.07261
    9 Bend                     1     2     4                86.67348
   10 Bend                     1     3     4                86.67348
   11 Bend                     1     4     2                55.69009
   12 Bend                     1     4     3                55.69009
   13 Bend                     2     1     3                75.27286
   14 Bend                     2     1     4                37.63643
   15 Bend                     2     4     3               111.38018
   16 Bend                     2     4     5               124.30991
   17 Bend                     3     1     4                37.63643
   18 Bend                     3     4     5               124.30991
   19 Bend                     4     5     6               120.14254
   20 Bend                     4     5     7               120.14254
   21 Bend                     6     5     7               119.71492
   22 Torsion                  1     2     4     3           0.00000
   23 Torsion                  1     2     4     5         180.00000
   24 Torsion                  1     3     4     2           0.00000
   25 Torsion                  1     3     4     5         180.00000
   26 Torsion                  2     1     3     4           0.00000
   27 Torsion                  2     1     4     3         180.00000
   28 Torsion                  2     1     5     6           0.00000
   29 Torsion                  2     1     5     7         180.00000
   30 Torsion                  2     4     1     3         180.00000
   31 Torsion                  2     4     5     6           0.00000
   32 Torsion                  2     4     5     7         180.00000
   33 Torsion                  3     1     2     4          -0.00000
   34 Torsion                  3     1     5     6         180.00000
   35 Torsion                  3     1     5     7           0.00000
   36 Torsion                  3     4     5     6         180.00000
   37 Torsion                  3     4     5     7           0.00000
   38 Torsion                  1     4     6     5         180.00000
   39 Torsion                  1     4     7     5         180.00000


            XYZ format geometry
            -------------------
     7
 geometry
 mg                    0.00000000     0.00000000    -1.56993190
 o                     0.00000000    -1.11909860    -0.11866257
 o                     0.00000000     1.11909860    -0.11866257
 c                     0.00000000     0.00000000     0.64501844
 c                     0.00000000     0.00000000     1.97380608
 h                     0.00000000    -0.92756722     2.51241846
 h                     0.00000000     0.92756722     2.51241846

 ==============================================================================
                                internuclear distances
 ------------------------------------------------------------------------------
       center one      |      center two      | atomic units |  angstroms
 ------------------------------------------------------------------------------
    2 o                |   1 mg               |     3.46318  |     1.83264
    3 o                |   1 mg               |     3.46318  |     1.83264
    4 c                |   1 mg               |     4.18565  |     2.21495
    4 c                |   2 o                |     2.56028  |     1.35484
    4 c                |   3 o                |     2.56028  |     1.35484
    5 c                |   4 c                |     2.51104  |     1.32879
    6 h                |   5 c                |     2.02693  |     1.07261
    7 h                |   5 c                |     2.02693  |     1.07261
 ------------------------------------------------------------------------------
                         number of included internuclear distances:          8
 ==============================================================================



 ==============================================================================
                                 internuclear angles
 ------------------------------------------------------------------------------
        center 1       |       center 2       |       center 3       |  degrees
 ------------------------------------------------------------------------------
    2 o                |   1 mg               |   3 o                |    75.27
    1 mg               |   2 o                |   4 c                |    86.67
    1 mg               |   3 o                |   4 c                |    86.67
    1 mg               |   2 o                |   4 c                |    86.67
    1 mg               |   3 o                |   4 c                |    86.67
    4 c                |   2 o                |   1 mg               |    86.67
    4 c                |   3 o                |   1 mg               |    86.67
    1 mg               |   4 c                |   5 c                |   180.00
    2 o                |   4 c                |   3 o                |   111.38
    2 o                |   4 c                |   5 c                |   124.31
    3 o                |   4 c                |   5 c                |   124.31
    4 c                |   5 c                |   6 h                |   120.14
    4 c                |   5 c                |   7 h                |   120.14
    6 h                |   5 c                |   7 h                |   119.71
 ------------------------------------------------------------------------------
                            number of included internuclear angles:         14
 ==============================================================================



                      Basis "ao basis" -> "" (cartesian)
                      -----
  h (Hydrogen)
  ------------
            Exponent  Coefficients 
       -------------- ---------------------------------------------------------
  1 S  1.87311370E+01  0.033495
  1 S  2.82539370E+00  0.234727
  1 S  6.40121700E-01  0.813757

  2 S  1.61277800E-01  1.000000

  c (Carbon)
  ----------
            Exponent  Coefficients 
       -------------- ---------------------------------------------------------
  1 S  3.04752490E+03  0.001835
  1 S  4.57369510E+02  0.014037
  1 S  1.03948690E+02  0.068843
  1 S  2.92101550E+01  0.232184
  1 S  9.28666300E+00  0.467941
  1 S  3.16392700E+00  0.362312

  2 S  7.86827240E+00 -0.119332
  2 S  1.88128850E+00 -0.160854
  2 S  5.44249300E-01  1.143456

  3 P  7.86827240E+00  0.068999
  3 P  1.88128850E+00  0.316424
  3 P  5.44249300E-01  0.744308

  4 S  1.68714400E-01  1.000000

  5 P  1.68714400E-01  1.000000

  6 D  8.00000000E-01  1.000000

  mg (Magnesium)
  --------------
            Exponent  Coefficients 
       -------------- ---------------------------------------------------------
  1 S  2.42571930E+00  0.026764
  1 S  8.22625000E-01 -0.223880
  1 S  1.07749000E-01  0.620464

  2 S  3.94850000E-02  1.000000

  3 P  7.69047000E-01 -0.036648
  3 P  1.88675000E-01  0.243145
  3 P  7.51010000E-02  0.554784

  4 P  2.94970000E-02  1.000000

  o (Oxygen)
  ----------
            Exponent  Coefficients 
       -------------- ---------------------------------------------------------
  1 S  4.71055180E+01 -0.014408
  1 S  5.91134600E+00  0.129568
  1 S  9.76483000E-01 -0.563118

  2 S  2.96070000E-01  1.000000

  3 P  1.66922190E+01  0.044856
  3 P  3.90070200E+00  0.222613
  3 P  1.07825300E+00  0.500188

  4 P  2.84189000E-01  1.000000

  5 P  7.02000000E-02  1.000000



 Summary of "ao basis" -> "" (cartesian)
 ------------------------------------------------------------------------------
       Tag                 Description            Shells   Functions and Types
 ---------------- ------------------------------  ------  ---------------------
 h                           6-31g*                  2        2   2s
 c                           6-31g*                  6       15   3s2p1d
 mg                    stuttgart rlc ecp             4        8   2s2p
 o                     stuttgart rlc ecp             5       11   2s3p



 **** WARNING Zero Coefficient **** on atom "              mg"
 angular momentum value:-1  standard basis set name: "stuttgart rlc ecp"
 input line that generated warning:
  1567: 2      1.000000000            0.000000000
  
 Local ECP potential is zero and ignored
  

 **** WARNING Zero Coefficient **** on atom "               o"
 angular momentum value:-1  standard basis set name: "stuttgart rlc ecp"
 input line that generated warning:
  1519: 2      1.000000000            0.000000000
  
 Local ECP potential is zero and ignored
  
                 ECP       "ecp basis" -> "" (cartesian)
                -----
  mg (Magnesium) Replaces    10 electrons
  ---------------------------------------
             Channel    R-exponent     Exponent     Coefficients
         ------------ ---------------------------------------------------------
  1 U-s       Both         2.00        1.732000      14.676000

  2 U-p       Both         2.00        1.115000       5.175700

  3 U-d       Both         2.00        1.203000      -1.816000

  o (Oxygen) Replaces     2 electrons
  -----------------------------------
             Channel    R-exponent     Exponent     Coefficients
         ------------ ---------------------------------------------------------
  1 U-s       Both         2.00       10.445670      50.771069

  2 U-p       Both         2.00       18.045174      -4.903551

  3 U-d       Both         2.00        8.164798      -3.312124


 solvent parameters
 solvname_short: h2o     
 solvname_long:  water                              
 dielec:       78.4000
 dielecinf:     1.7769

          ---------------
          -cosmo- solvent
          ---------------
 Cosmo: York-Karplus, doi: 10.1021/jp992097l
 dielectric constant -eps-     =  78.40
 screen = (eps-1)/(eps    )    =   0.98724
 surface charge correction     = lagrangian

 solvent accessible surface
 --------------------------

 ---------- ATOMIC COORDINATES (A.U.) ------------ VDWR(ANG.) --
     1    0.00000000    0.00000000   -2.96674112     1.638
     2    0.00000000   -2.11478971   -0.22423975     1.720
     3    0.00000000    2.11478971   -0.22423975     1.720
     4    0.00000000    0.00000000    1.21890810     2.000
     5    0.00000000    0.00000000    3.72995264     2.000
     6    0.00000000   -1.75284788    4.74778245     1.300
     7    0.00000000    1.75284788    4.74778245     1.300
 number of segments per atom =         32
 number of   points per atom =         32
 atom (   nspa,  nppa )
 ----------------------
    1 (     20,     0 )       0
    2 (     16,     0 )       0
    3 (     16,     0 )       0
    4 (     12,     0 )       0
    5 (     20,     0 )       0
    6 (     16,     0 )       0
    7 (     16,     0 )       0
 number of -cosmo- surface points =      116
 molecular surface =    104.636 angstrom**2
 molecular volume  =     61.213 angstrom**3
 G(cav/disp)       =      1.383 kcal/mol
 -lineq- algorithm             =   0
 -bem- low  level              =   2
 -bem- from -octahedral-
 gaussian surface charge width =   4.50000
 degree of switching           =   1.00000
 switching function tolerance  =   0.00010
 atomic radii = 
 --------------
    1  2.000  1.638
    2  6.000  1.720
    3  6.000  1.720
    4  6.000  2.000
    5  6.000  2.000
    6  1.000  1.300
    7  1.000  1.300
 ...... end of -cosmo- initialization ......


                                 NWChem SCF Module
                                 -----------------



  ao basis        = "ao basis"
  functions       =    64
  atoms           =     7
  closed shells   =    14
  open shells     =     0
  charge          =   0.00
  wavefunction    = RHF 
  input vectors   = atomic
  output vectors  = ./cosmo_h2cco2mg_dat.movecs
  use symmetry    = F
  symmetry adapt  = F


 Summary of "ao basis" -> "ao basis" (cartesian)
 ------------------------------------------------------------------------------
       Tag                 Description            Shells   Functions and Types
 ---------------- ------------------------------  ------  ---------------------
 h                           6-31g*                  2        2   2s
 c                           6-31g*                  6       15   3s2p1d
 mg                    stuttgart rlc ecp             4        8   2s2p
 o                     stuttgart rlc ecp             5       11   2s3p



 Forming initial guess at       0.1s


      Superposition of Atomic Density Guess
      -------------------------------------

 Sum of atomic energies:        -111.84313933

      Non-variational initial energy
      ------------------------------

 Total energy =    -110.022300
 1-e energy   =    -338.559107
 2-e energy   =     135.852580
 HOMO         =      -0.248490
 LUMO         =      -0.133298


 Starting SCF solution at       0.2s



 ----------------------------------------------
         Quadratically convergent ROHF

 Convergence threshold     :          1.000E-04
 Maximum no. of iterations :           30
 Final Fock-matrix accuracy:          1.000E-07
 ----------------------------------------------

     COSMO gas phase

 Integral file          = ./cosmo_h2cco2mg_dat.aoints.0
 Record size in doubles =  65536        No. of integs per rec  =  43688
 Max. records in memory =     20        Max. records in file   = 120030
 No. of bits per label  =      8        No. of bits per value  =     64


 #quartets = 1.077D+05 #integrals = 1.123D+06 #direct =  0.0% #cached =100.0%


File balance: exchanges=     4  moved=     5  time=   0.0


              iter       energy          gnorm     gmax       time
             ----- ------------------- --------- --------- --------
                 1     -109.0401915093  1.41D+00  3.81D-01      0.4
                 2     -109.1463436347  3.31D-01  9.20D-02      0.5
                 3     -109.1576020903  2.36D-02  7.87D-03      0.6
                 4     -109.1577439139  5.36D-04  1.17D-04      0.8
                 5     -109.1577439693  9.65D-06  3.47D-06      0.9
     COSMO solvation phase
 Alternative 1
 -atmefc- energy =       0.727974540152
 -elcefc- energy =      -0.979733616466
 -efcefc- energy =       0.125879538157
 -lambda- energy =      -0.000000000000
 -solnrg- energy =      -0.125879538157
 -allefc- energy =      -0.251759076314     -0.251759076314
 -ecos  - energy =       0.853854078309
 Alternative 2
 -atmefc- energy =       0.727974540152
 -elcefc- energy =      -0.979733616466
 -allefc- energy =      -0.251759076314
 -solnrg- energy =      -0.125879538157
 -ecos  - energy =       0.853854078309

              iter       energy          gnorm     gmax       time
             ----- ------------------- --------- --------- --------
                 1     -109.2836235075  3.02D-01  1.33D-01      0.9
 Alternative 1
 -atmefc- energy =       0.789213277219
 -elcefc- energy =      -1.098942265311
 -efcefc- energy =       0.154864494046
 -lambda- energy =       0.000000000000
 -solnrg- energy =      -0.154864494046
 -allefc- energy =      -0.309728988092     -0.309728988092
 -ecos  - energy =       0.944077771265
 Alternative 2
 -atmefc- energy =       0.789213277219
 -elcefc- energy =      -1.098942265311
 -allefc- energy =      -0.309728988092
 -solnrg- energy =      -0.154864494046
 -ecos  - energy =       0.944077771265
 Alternative 1
 -atmefc- energy =       0.809380845283
 -elcefc- energy =      -1.143015781600
 -efcefc- energy =       0.166817468159
 -lambda- energy =      -0.000000000000
 -solnrg- energy =      -0.166817468159
 -allefc- energy =      -0.333634936318     -0.333634936318
 -ecos  - energy =       0.976198313442
 Alternative 2
 -atmefc- energy =       0.809380845283
 -elcefc- energy =      -1.143015781600
 -allefc- energy =      -0.333634936318
 -solnrg- energy =      -0.166817468159
 -ecos  - energy =       0.976198313442
                 2     -109.3054665187  1.29D-01  3.03D-02      1.1
 Alternative 1
 -atmefc- energy =       0.796020227171
 -elcefc- energy =      -1.134481252154
 -efcefc- energy =       0.169230512492
 -lambda- energy =       0.000000000000
 -solnrg- energy =      -0.169230512492
 -allefc- energy =      -0.338461024983     -0.338461024983
 -ecos  - energy =       0.965250739663
 Alternative 2
 -atmefc- energy =       0.796020227171
 -elcefc- energy =      -1.134481252154
 -allefc- energy =      -0.338461024983
 -solnrg- energy =      -0.169230512492
 -ecos  - energy =       0.965250739663
                 3     -109.3070435608  8.87D-03  3.89D-03      1.2
 Alternative 1
 -atmefc- energy =       0.793671789192
 -elcefc- energy =      -1.133310185131
 -efcefc- energy =       0.169819197970
 -lambda- energy =       0.000000000000
 -solnrg- energy =      -0.169819197970
 -allefc- energy =      -0.339638395939     -0.339638395939
 -ecos  - energy =       0.963490987161
 Alternative 2
 -atmefc- energy =       0.793671789192
 -elcefc- energy =      -1.133310185131
 -allefc- energy =      -0.339638395939
 -solnrg- energy =      -0.169819197970
 -ecos  - energy =       0.963490987161
                 4     -109.3070632068  2.03D-03  9.10D-04      1.4
 Alternative 1
 -atmefc- energy =       0.793105897544
 -elcefc- energy =      -1.133015057424
 -efcefc- energy =       0.169954579940
 -lambda- energy =       0.000000000000
 -solnrg- energy =      -0.169954579940
 -allefc- energy =      -0.339909159880     -0.339909159880
 -ecos  - energy =       0.963060477484
 Alternative 2
 -atmefc- energy =       0.793105897544
 -elcefc- energy =      -1.133015057424
 -allefc- energy =      -0.339909159880
 -solnrg- energy =      -0.169954579940
 -ecos  - energy =       0.963060477484
                 5     -109.3070642213  5.04D-04  2.26D-04      1.6
 Alternative 1
 -atmefc- energy =       0.792966057517
 -elcefc- energy =      -1.132940623275
 -efcefc- energy =       0.169987282879
 -lambda- energy =      -0.000000000000
 -solnrg- energy =      -0.169987282879
 -allefc- energy =      -0.339974565758     -0.339974565758
 -ecos  - energy =       0.962953340396
 Alternative 2
 -atmefc- energy =       0.792966057517
 -elcefc- energy =      -1.132940623275
 -allefc- energy =      -0.339974565758
 -solnrg- energy =      -0.169987282879
 -ecos  - energy =       0.962953340396
                 6     -109.3070642837  1.25D-04  5.63D-05      1.8
 Alternative 1
 -atmefc- energy =       0.792932157425
 -elcefc- energy =      -1.132922677908
 -efcefc- energy =       0.169995260242
 -lambda- energy =       0.000000000000
 -solnrg- energy =      -0.169995260242
 -allefc- energy =      -0.339990520484     -0.339990520484
 -ecos  - energy =       0.962927417666
 Alternative 2
 -atmefc- energy =       0.792932157425
 -elcefc- energy =      -1.132922677908
 -allefc- energy =      -0.339990520484
 -solnrg- energy =      -0.169995260242
 -ecos  - energy =       0.962927417666
                 7     -109.3070642875  3.14D-05  1.54D-05      1.9
 
                  COSMO solvation results
                  -----------------------
 
                 gas phase energy =      -109.1577439693
                 sol phase energy =      -109.3070642875
 (electrostatic) solvation energy =         0.1493203183 (   93.70 kcal/mol)


       Final RHF  results 
       ------------------ 

         Total SCF energy =   -109.307064287532
      One-electron energy =   -344.399290242985
      Two-electron energy =    141.445071931716
 Nuclear repulsion energy =     92.684226606071
             COSMO energy =      0.962927417666

        Time for solution =      1.7s


             Final eigenvalues
             -----------------

              1      
    1  -11.3186
    2  -11.1615
    3   -1.3800
    4   -1.2600
    5   -0.9677
    6   -0.7042
    7   -0.6178
    8   -0.6170
    9   -0.5695
   10   -0.5122
   11   -0.4790
   12   -0.4394
   13   -0.4345
   14   -0.2933
   15    0.0511
   16    0.0703
   17    0.0740
   18    0.1119
   19    0.2126
   20    0.2269
   21    0.2361
   22    0.2404
   23    0.2453
   24    0.2679

                       ROHF Final Molecular Orbital Analysis
                       -------------------------------------

 Vector    3  Occ=2.000000D+00  E=-1.379978D+00
              MO Center= -5.9D-17,  3.0D-13,  3.5D-02, r^2= 1.2D+00
   Bfn.  Coefficient  Atom+Function         Bfn.  Coefficient  Atom+Function  
  ----- ------------  ---------------      ----- ------------  ---------------
    10     -0.282151  2 O  s                 21     -0.282151  3 O  s          
     9      0.269483  2 O  s                 20      0.269483  3 O  s          
    32     -0.206085  4 C  s          

 Vector    4  Occ=2.000000D+00  E=-1.260041D+00
              MO Center= -5.8D-17, -2.2D-13, -2.5D-02, r^2= 1.5D+00
   Bfn.  Coefficient  Atom+Function         Bfn.  Coefficient  Atom+Function  
  ----- ------------  ---------------      ----- ------------  ---------------
    10      0.361853  2 O  s                 21     -0.361853  3 O  s          
     9     -0.310477  2 O  s                 20      0.310477  3 O  s          
    34     -0.182776  4 C  py         

 Vector    5  Occ=2.000000D+00  E=-9.677096D-01
              MO Center= -5.5D-17,  7.7D-14,  1.4D+00, r^2= 1.3D+00
   Bfn.  Coefficient  Atom+Function         Bfn.  Coefficient  Atom+Function  
  ----- ------------  ---------------      ----- ------------  ---------------
    47      0.318467  5 C  s                 51      0.283812  5 C  s          
    35      0.226654  4 C  pz                32      0.220058  4 C  s          
    46     -0.175096  5 C  s          

 Vector    6  Occ=2.000000D+00  E=-7.041795D-01
              MO Center= -7.3D-17,  2.8D-13,  8.2D-01, r^2= 3.1D+00
   Bfn.  Coefficient  Atom+Function         Bfn.  Coefficient  Atom+Function  
  ----- ------------  ---------------      ----- ------------  ---------------
    32      0.261348  4 C  s                 10     -0.235735  2 O  s          
    21     -0.235735  3 O  s                 50     -0.200100  5 C  pz         
    12      0.189229  2 O  py                23     -0.189229  3 O  py         
    36      0.188303  4 C  s          

 Vector    7  Occ=2.000000D+00  E=-6.177968D-01
              MO Center=  1.2D-16,  3.1D-11,  6.1D-01, r^2= 2.7D+00
   Bfn.  Coefficient  Atom+Function         Bfn.  Coefficient  Atom+Function  
  ----- ------------  ---------------      ----- ------------  ---------------
    34      0.306237  4 C  py                13     -0.261415  2 O  pz         
    24      0.261415  3 O  pz                49      0.241661  5 C  py         
    16     -0.198688  2 O  pz                27      0.198688  3 O  pz         

 Vector    8  Occ=2.000000D+00  E=-6.169993D-01
              MO Center=  2.4D-18, -3.1D-11,  8.9D-01, r^2= 2.7D+00
   Bfn.  Coefficient  Atom+Function         Bfn.  Coefficient  Atom+Function  
  ----- ------------  ---------------      ----- ------------  ---------------
    35      0.303365  4 C  pz                50     -0.274399  5 C  pz         
    12     -0.251775  2 O  py                23      0.251775  3 O  py         
    15     -0.182162  2 O  py                26      0.182162  3 O  py         
    51     -0.155562  5 C  s          

 Vector    9  Occ=2.000000D+00  E=-5.695016D-01
              MO Center= -1.5D-16,  9.7D-14,  1.8D-01, r^2= 1.8D+00
   Bfn.  Coefficient  Atom+Function         Bfn.  Coefficient  Atom+Function  
  ----- ------------  ---------------      ----- ------------  ---------------
    11      0.326914  2 O  px                22      0.326914  3 O  px         
    33      0.280844  4 C  px                14      0.248843  2 O  px         
    25      0.248843  3 O  px                37      0.153390  4 C  px         

 Vector   10  Occ=2.000000D+00  E=-5.121779D-01
              MO Center= -3.8D-18, -3.5D-13,  1.5D+00, r^2= 2.8D+00
   Bfn.  Coefficient  Atom+Function         Bfn.  Coefficient  Atom+Function  
  ----- ------------  ---------------      ----- ------------  ---------------
    49      0.346335  5 C  py                61     -0.207501  6 H  s          
    63      0.207501  7 H  s                 34     -0.196129  4 C  py         
    62     -0.179097  6 H  s                 64      0.179097  7 H  s          
    53      0.171449  5 C  py                13      0.167514  2 O  pz         
    24     -0.167514  3 O  pz                12      0.154358  2 O  py         

 Vector   11  Occ=2.000000D+00  E=-4.789540D-01
              MO Center= -1.6D-16, -1.7D-12,  2.6D-01, r^2= 2.4D+00
   Bfn.  Coefficient  Atom+Function         Bfn.  Coefficient  Atom+Function  
  ----- ------------  ---------------      ----- ------------  ---------------
    13      0.353951  2 O  pz                24      0.353951  3 O  pz         
    16      0.283462  2 O  pz                27      0.283462  3 O  pz         
    50      0.239865  5 C  pz                35     -0.237564  4 C  pz         
     1     -0.198116  1 Mg s          

 Vector   12  Occ=2.000000D+00  E=-4.393909D-01
              MO Center= -2.2D-16, -6.8D-14, -1.1D-01, r^2= 2.0D+00
   Bfn.  Coefficient  Atom+Function         Bfn.  Coefficient  Atom+Function  
  ----- ------------  ---------------      ----- ------------  ---------------
    11      0.424089  2 O  px                22     -0.424089  3 O  px         
    14      0.363021  2 O  px                25     -0.363021  3 O  px         

 Vector   13  Occ=2.000000D+00  E=-4.344838D-01
              MO Center=  1.9D-16,  1.5D-12,  5.8D-03, r^2= 2.3D+00
   Bfn.  Coefficient  Atom+Function         Bfn.  Coefficient  Atom+Function  
  ----- ------------  ---------------      ----- ------------  ---------------
    12      0.364670  2 O  py                23      0.364670  3 O  py         
    15      0.316423  2 O  py                26      0.316423  3 O  py         
    13     -0.233510  2 O  pz                24      0.233510  3 O  pz         
    16     -0.209795  2 O  pz                27      0.209795  3 O  pz         

 Vector   14  Occ=2.000000D+00  E=-2.932577D-01
              MO Center=  7.2D-16, -6.0D-14,  1.3D+00, r^2= 2.1D+00
   Bfn.  Coefficient  Atom+Function         Bfn.  Coefficient  Atom+Function  
  ----- ------------  ---------------      ----- ------------  ---------------
    52      0.437437  5 C  px                48      0.420043  5 C  px         
    33      0.231356  4 C  px                14     -0.209388  2 O  px         
    25     -0.209388  3 O  px                11     -0.206898  2 O  px         
    22     -0.206898  3 O  px         

 Vector   15  Occ=0.000000D+00  E= 5.105505D-02
              MO Center=  5.7D-16,  4.1D-13, -3.2D+00, r^2= 6.3D+00
   Bfn.  Coefficient  Atom+Function         Bfn.  Coefficient  Atom+Function  
  ----- ------------  ---------------      ----- ------------  ---------------
     2      0.921334  1 Mg s                  8     -0.782885  1 Mg pz         
    19      0.231128  2 O  pz                30      0.231128  3 O  pz         
     1      0.194577  1 Mg s                 51     -0.194223  5 C  s          
    39      0.160636  4 C  pz         

 Vector   16  Occ=0.000000D+00  E= 7.032424D-02
              MO Center=  1.3D-15,  5.6D-14, -2.0D+00, r^2= 1.4D+01
   Bfn.  Coefficient  Atom+Function         Bfn.  Coefficient  Atom+Function  
  ----- ------------  ---------------      ----- ------------  ---------------
     6      1.249268  1 Mg px                17     -0.181222  2 O  px         
    28     -0.181222  3 O  px         

 Vector   17  Occ=0.000000D+00  E= 7.404186D-02
              MO Center=  2.9D-15, -2.7D-13, -2.2D+00, r^2= 1.4D+01
   Bfn.  Coefficient  Atom+Function         Bfn.  Coefficient  Atom+Function  
  ----- ------------  ---------------      ----- ------------  ---------------
     7      1.461500  1 Mg py                18     -0.365957  2 O  py         
    29     -0.365957  3 O  py         

 Vector   18  Occ=0.000000D+00  E= 1.118776D-01
              MO Center= -3.4D-15,  3.9D-14, -5.9D-01, r^2= 1.2D+01
   Bfn.  Coefficient  Atom+Function         Bfn.  Coefficient  Atom+Function  
  ----- ------------  ---------------      ----- ------------  ---------------
     8      1.089730  1 Mg pz                 2      0.809939  1 Mg s          
    51     -0.347392  5 C  s                  5     -0.240715  1 Mg pz         
    36     -0.209663  4 C  s                 10     -0.194579  2 O  s          
    21     -0.194579  3 O  s                  1      0.158009  1 Mg s          

 Vector   19  Occ=0.000000D+00  E= 2.125872D-01
              MO Center= -2.2D-15,  2.3D-13, -1.5D+00, r^2= 8.6D+00
   Bfn.  Coefficient  Atom+Function         Bfn.  Coefficient  Atom+Function  
  ----- ------------  ---------------      ----- ------------  ---------------
     2      0.827749  1 Mg s                  5      0.813799  1 Mg pz         
    18     -0.605124  2 O  py                29      0.605124  3 O  py         
     8     -0.578518  1 Mg pz                 1     -0.482379  1 Mg s          
    19      0.328689  2 O  pz                30      0.328689  3 O  pz         
    39     -0.155115  4 C  pz         

 Vector   20  Occ=0.000000D+00  E= 2.269033D-01
              MO Center=  9.1D-15, -5.8D-13,  4.4D-01, r^2= 9.8D+00
   Bfn.  Coefficient  Atom+Function         Bfn.  Coefficient  Atom+Function  
  ----- ------------  ---------------      ----- ------------  ---------------
    18      0.958782  2 O  py                29      0.958782  3 O  py         
    19     -0.760268  2 O  pz                30      0.760268  3 O  pz         
     7     -0.388297  1 Mg py                38     -0.375113  4 C  py         
    15     -0.264134  2 O  py                26     -0.264134  3 O  py         
    53     -0.254429  5 C  py         

 Vector   21  Occ=0.000000D+00  E= 2.360699D-01
              MO Center= -3.7D-15, -2.0D-12,  9.8D-02, r^2= 7.7D+00
   Bfn.  Coefficient  Atom+Function         Bfn.  Coefficient  Atom+Function  
  ----- ------------  ---------------      ----- ------------  ---------------
    17      0.899201  2 O  px                28      0.899201  3 O  px         
    37     -0.878106  4 C  px                 6     -0.723566  1 Mg px         
    52      0.405924  5 C  px                33     -0.363398  4 C  px         

 Vector   22  Occ=0.000000D+00  E= 2.404067D-01
              MO Center= -9.0D-17,  2.4D-12, -5.0D-01, r^2= 9.2D+00
   Bfn.  Coefficient  Atom+Function         Bfn.  Coefficient  Atom+Function  
  ----- ------------  ---------------      ----- ------------  ---------------
    36      1.152903  4 C  s                 19     -0.939971  2 O  pz         
    30     -0.939971  3 O  pz                 2     -0.909522  1 Mg s          
    18     -0.772885  2 O  py                29      0.772885  3 O  py         
    51      0.673922  5 C  s                  5     -0.342867  1 Mg pz         
    39     -0.321672  4 C  pz                 8      0.311215  1 Mg pz         

 Vector   23  Occ=0.000000D+00  E= 2.453439D-01
              MO Center= -1.5D-14,  2.3D-12, -1.2D-01, r^2= 8.5D+00
   Bfn.  Coefficient  Atom+Function         Bfn.  Coefficient  Atom+Function  
  ----- ------------  ---------------      ----- ------------  ---------------
    17      1.176369  2 O  px                28     -1.176369  3 O  px         
    14     -0.303014  2 O  px                25      0.303014  3 O  px         

 Vector   24  Occ=0.000000D+00  E= 2.678511D-01
              MO Center=  3.6D-15, -9.0D-13, -7.9D-01, r^2= 1.1D+01
   Bfn.  Coefficient  Atom+Function         Bfn.  Coefficient  Atom+Function  
  ----- ------------  ---------------      ----- ------------  ---------------
     7      1.156071  1 Mg py                18     -1.060068  2 O  py         
    29     -1.060068  3 O  py                19     -0.932807  2 O  pz         
    30      0.932807  3 O  pz                53     -0.706874  5 C  py         
    62     -0.522552  6 H  s                 64      0.522552  7 H  s          
    10     -0.344234  2 O  s                 21      0.344234  3 O  s          

 Vector   25  Occ=0.000000D+00  E= 2.682826D-01
              MO Center=  5.9D-15, -3.2D-13, -1.1D+00, r^2= 6.2D+00
   Bfn.  Coefficient  Atom+Function         Bfn.  Coefficient  Atom+Function  
  ----- ------------  ---------------      ----- ------------  ---------------
     3      1.492307  1 Mg px                17     -0.485308  2 O  px         
    28     -0.485308  3 O  px                 6     -0.443794  1 Mg px         
    52      0.242565  5 C  px         

 Vector   26  Occ=0.000000D+00  E= 2.833854D-01
              MO Center=  6.4D-15, -2.4D-14,  1.3D-01, r^2= 5.5D+00
   Bfn.  Coefficient  Atom+Function         Bfn.  Coefficient  Atom+Function  
  ----- ------------  ---------------      ----- ------------  ---------------
     6      0.623316  1 Mg px                17     -0.527097  2 O  px         
    28     -0.527097  3 O  px                52      0.526336  5 C  px         
    37     -0.426558  4 C  px                14      0.396989  2 O  px         
    25      0.396989  3 O  px                 3     -0.332882  1 Mg px         
    33     -0.319718  4 C  px                11      0.232467  2 O  px         

 Vector   27  Occ=0.000000D+00  E= 3.151913D-01
              MO Center= -5.2D-15,  1.4D-13,  9.4D-01, r^2= 8.1D+00
   Bfn.  Coefficient  Atom+Function         Bfn.  Coefficient  Atom+Function  
  ----- ------------  ---------------      ----- ------------  ---------------
    62     -1.204717  6 H  s                 64     -1.204717  7 H  s          
    54      1.184558  5 C  pz                 5      1.154724  1 Mg pz         
    39      0.938556  4 C  pz                51      0.704461  5 C  s          
     2      0.567438  1 Mg s                 36      0.295979  4 C  s          
     8     -0.196924  1 Mg pz                50      0.192954  5 C  pz         

 Vector   28  Occ=0.000000D+00  E= 3.467064D-01
              MO Center= -2.7D-16, -5.3D-13, -6.1D-01, r^2= 8.4D+00
   Bfn.  Coefficient  Atom+Function         Bfn.  Coefficient  Atom+Function  
  ----- ------------  ---------------      ----- ------------  ---------------
     4      1.929967  1 Mg py                19     -1.007939  2 O  pz         
    30      1.007939  3 O  pz                53     -0.811087  5 C  py         
    62     -0.692921  6 H  s                 64      0.692921  7 H  s          
    18     -0.493943  2 O  py                29     -0.493943  3 O  py         
     7     -0.317724  1 Mg py                10      0.230824  2 O  s          

 Vector   29  Occ=0.000000D+00  E= 3.701828D-01
              MO Center=  2.8D-16, -1.6D-12,  4.7D-01, r^2= 9.0D+00
   Bfn.  Coefficient  Atom+Function         Bfn.  Coefficient  Atom+Function  
  ----- ------------  ---------------      ----- ------------  ---------------
    51      2.715887  5 C  s                  5     -1.368297  1 Mg pz         
    39     -1.307083  4 C  pz                62     -1.167993  6 H  s          
    64     -1.167993  7 H  s                 36     -0.848922  4 C  s          
    19      0.533531  2 O  pz                30      0.533531  3 O  pz         
     8      0.478026  1 Mg pz                 1     -0.275909  1 Mg s          

 Vector   30  Occ=0.000000D+00  E= 3.733708D-01
              MO Center= -2.7D-16,  1.1D-12,  1.4D+00, r^2= 7.1D+00
   Bfn.  Coefficient  Atom+Function         Bfn.  Coefficient  Atom+Function  
  ----- ------------  ---------------      ----- ------------  ---------------
    62      1.578295  6 H  s                 64     -1.578295  7 H  s          
    19     -1.369557  2 O  pz                30      1.369557  3 O  pz         
    53      1.218346  5 C  py                 4      0.906491  1 Mg py         
    18     -0.572527  2 O  py                29     -0.572527  3 O  py         
     7      0.382069  1 Mg py                38     -0.240988  4 C  py         

 Vector   31  Occ=0.000000D+00  E= 5.016053D-01
              MO Center=  1.4D-16, -1.3D-13,  1.4D+00, r^2= 3.9D+00
   Bfn.  Coefficient  Atom+Function         Bfn.  Coefficient  Atom+Function  
  ----- ------------  ---------------      ----- ------------  ---------------
    36      4.206877  4 C  s                 54      2.549748  5 C  pz         
    51     -2.464936  5 C  s                 39      1.313106  4 C  pz         
     5     -0.525715  1 Mg pz                16     -0.464220  2 O  pz         
    27     -0.464220  3 O  pz                62     -0.374350  6 H  s          
    64     -0.374350  7 H  s                  1     -0.285600  1 Mg s          


 center of mass
 --------------
 x =   0.00000000 y =   0.00000000 z =  -0.11433758

 moments of inertia (a.u.)
 ------------------
         591.119585027575           0.000000000000           0.000000000000
           0.000000000000         441.857341447479           0.000000000000
           0.000000000000           0.000000000000         149.262243580096

  Mulliken analysis of the total density
  --------------------------------------

    Atom       Charge   Shell Charges
 -----------   ------   -------------------------------------------------------
    1 Mg   2     0.33   0.20 -0.00  0.14 -0.01
    2 O    6     6.91   0.83  1.02  2.75  2.17  0.13
    3 O    6     6.91   0.83  1.02  2.75  2.17  0.13
    4 C    6     5.50   2.00  0.68  1.85  0.33  0.47  0.18
    5 C    6     6.66   2.00  0.62  2.07  0.60  1.32  0.06
    6 H    1     0.84   0.52  0.32
    7 H    1     0.84   0.52  0.32

       Multipole analysis of the density wrt the origin
       ------------------------------------------------

     L   x y z        total         open         nuclear
     -   - - -        -----         ----         -------
     0   0 0 0      0.000000      0.000000     28.000000

     1   1 0 0     -0.000000      0.000000      0.000000
     1   0 1 0      0.000000      0.000000      0.000000
     1   0 0 1     -5.441724      0.000000     30.564370

     2   2 0 0    -21.238783      0.000000      0.000000
     2   1 1 0     -0.000000      0.000000      0.000000
     2   1 0 1     -0.000000      0.000000      0.000000
     2   0 2 0    -29.917920      0.000000     59.812978
     2   0 1 1      0.000000      0.000000      0.000000
     2   0 0 2     -5.875917      0.000000    155.679086


 Parallel integral file used      28 records with       0 large values

                              NWChem Gradients Module
                              -----------------------



  wavefunction    =   RHF     

nuclear repulsion gradient  
     0.000000     0.000000     2.599494
     0.000000     8.114435     4.242213
     0.000000    -8.114435     4.242213
     0.000000     0.000000    -0.474589
     0.000000     0.000000    -7.667794
     0.000000     1.598609    -1.470769
     0.000000    -1.598609    -1.470769

weighted density gradient  
    -0.000000     0.000000     0.040343
    -0.000000     0.316232     0.145831
    -0.000000    -0.316232     0.145831
     0.000000    -0.000000     0.012065
    -0.000000     0.000000    -0.174613
    -0.000000     0.165541    -0.084728
     0.000000    -0.165541    -0.084728

kinetic energy gradient  
     0.000000    -0.000000    -2.783883
     0.000000   -17.183829    -9.312357
    -0.000000    17.183829    -9.312357
    -0.000000     0.000000    -3.176501
     0.000000    -0.000000    17.786241
     0.000000    -4.289617     3.399429
    -0.000000     4.289617     3.399429

2-electron gradient  
    -0.000000     0.000000     0.146470
    -0.000000     8.736774     4.935662
     0.000000    -8.736774     4.935662
     0.000000    -0.000000     3.651047
    -0.000000     0.000000    -9.961075
    -0.000000     2.542035    -1.853883
     0.000000    -2.542035    -1.853883

nuclear-cosmo charge gradient  
    -0.000000    -0.000000    -0.606843
     0.000000     0.166981     0.291094
    -0.000000    -0.166981     0.291094
    -0.000000    -0.000000     0.152834
     0.000000    -0.000000    -0.124602
     0.000000     0.000801    -0.001788
     0.000000    -0.000801    -0.001788

electron-cosmo charge gradient  
    -0.000000    -0.000000     0.695337
    -0.000000    -0.157524    -0.341491
     0.000000     0.157524    -0.341491
     0.000000     0.000000    -0.162675
    -0.000000    -0.000000     0.129883
    -0.000000    -0.016719     0.010219
    -0.000000     0.016719     0.010219

cosmo charge-cosmo charge gradient  
     0.000000     0.000000    -0.018266
    -0.000000    -0.002625     0.009083
    -0.000000     0.002625     0.009083
    -0.000000    -0.000000     0.001604
    -0.000000    -0.000000    -0.001539
    -0.000000    -0.000025     0.000017
    -0.000000     0.000025     0.000017

total RHF gradient
    -0.000000     0.000000     0.072652
    -0.000000    -0.009556    -0.029965
     0.000000     0.009556    -0.029965
    -0.000000     0.000000     0.003784
    -0.000000     0.000000    -0.013500
     0.000000     0.000626    -0.001503
    -0.000000    -0.000626    -0.001503



                         RHF ENERGY GRADIENTS

    atom               coordinates                        gradient
                 x          y          z           x          y          z
   1 mg      0.000000   0.000000  -2.966741   -0.000000   0.000000   0.072652
   2 o       0.000000  -2.114790  -0.224240   -0.000000  -0.009556  -0.029965
   3 o       0.000000   2.114790  -0.224240    0.000000   0.009556  -0.029965
   4 c       0.000000   0.000000   1.218908   -0.000000   0.000000   0.003784
   5 c       0.000000   0.000000   3.729953   -0.000000   0.000000  -0.013500
   6 h       0.000000  -1.752848   4.747782    0.000000   0.000626  -0.001503
   7 h       0.000000   1.752848   4.747782   -0.000000  -0.000626  -0.001503

                 ----------------------------------------
                 |  Time  |  1-e(secs)   |  2-e(secs)   |
                 ----------------------------------------
                 |  CPU   |       0.05   |       0.79   |
                 ----------------------------------------
                 |  WALL  |       0.05   |       0.79   |
                 ----------------------------------------

 Task  times  cpu:        2.8s     wall:        2.8s


                                NWChem Input Module
                                -------------------


 Summary of allocated global arrays
-----------------------------------
  No active global arrays



                         GA Statistics for process    0
                         ------------------------------

       create   destroy   get      put      acc     scatter   gather  read&inc
calls:  774      774     1.83e+04 2321     4227        0        0      365     
number of processes/call -4.97e+14 1.12e+14 1.49e+13 0.00e+00 0.00e+00
bytes total:             1.79e+07 6.04e+06 4.40e+06 0.00e+00 0.00e+00 2.92e+03
bytes remote:            8.91e+06 1.20e+06 2.21e+06 0.00e+00 0.00e+00 0.00e+00
Max memory consumed for GA by this process: 163384 bytes

MA_summarize_allocated_blocks: starting scan ...
MA_summarize_allocated_blocks: scan completed: 0 heap blocks, 0 stack blocks
MA usage statistics:

	allocation statistics:
					      heap	     stack
					      ----	     -----
	current number of blocks	         0	         0
	maximum number of blocks	        41	        31
	current total bytes		         0	         0
	maximum total bytes		  10550056	  32876584
	maximum total K-bytes		     10551	     32877
	maximum total M-bytes		        11	        33


                                     CITATION
                                     --------
                Please cite the following reference when publishing
                           results obtained with NWChem:

          E. Apra, E. J. Bylaska, W. A. de Jong, N. Govind, K. Kowalski,
       T. P. Straatsma, M. Valiev, H. J. J. van Dam, Y. Alexeev, J. Anchell,
       V. Anisimov, F. W. Aquino, R. Atta-Fynn, J. Autschbach, N. P. Bauman,
     J. C. Becca, D. E. Bernholdt, K. Bhaskaran-Nair, S. Bogatko, P. Borowski,
         J. Boschen, J. Brabec, A. Bruner, E. Cauet, Y. Chen, G. N. Chuev,
      C. J. Cramer, J. Daily, M. J. O. Deegan, T. H. Dunning Jr., M. Dupuis,
   K. G. Dyall, G. I. Fann, S. A. Fischer, A. Fonari, H. Fruchtl, L. Gagliardi,
      J. Garza, N. Gawande, S. Ghosh, K. Glaesemann, A. W. Gotz, J. Hammond,
       V. Helms, E. D. Hermes, K. Hirao, S. Hirata, M. Jacquelin, L. Jensen,
   B. G. Johnson, H. Jonsson, R. A. Kendall, M. Klemm, R. Kobayashi, V. Konkov,
      S. Krishnamoorthy, M. Krishnan, Z. Lin, R. D. Lins, R. J. Littlefield,
      A. J. Logsdail, K. Lopata, W. Ma, A. V. Marenich, J. Martin del Campo,
   D. Mejia-Rodriguez, J. E. Moore, J. M. Mullin, T. Nakajima, D. R. Nascimento,
    J. A. Nichols, P. J. Nichols, J. Nieplocha, A. Otero-de-la-Roza, B. Palmer,
    A. Panyala, T. Pirojsirikul, B. Peng, R. Peverati, J. Pittner, L. Pollack,
   R. M. Richard, P. Sadayappan, G. C. Schatz, W. A. Shelton, D. W. Silverstein,
   D. M. A. Smith, T. A. Soares, D. Song, M. Swart, H. L. Taylor, G. S. Thomas,
            V. Tipparaju, D. G. Truhlar, K. Tsemekhman, T. Van Voorhis,
      A. Vazquez-Mayagoitia, P. Verma, O. Villa, A. Vishnu, K. D. Vogiatzis,
        D. Wang, J. H. Weare, M. J. Williamson, T. L. Windus, K. Wolinski,
        A. T. Wong, Q. Wu, C. Yang, Q. Yu, M. Zacharias, Z. Zhang, Y. Zhao,
                                and R. J. Harrison
                        "NWChem: Past, present, and future
                         J. Chem. Phys. 152, 184102 (2020)
                               doi:10.1063/5.0004997

                                      AUTHORS
                                      -------
     E. Apra, E. J. Bylaska, N. Govind, K. Kowalski, M. Valiev, W. A. de Jong,
      T. P. Straatsma, H. J. J. van Dam, D. Wang, T. L. Windus, N. P. Bauman,
       A. Panyala, J. Hammond, J. Autschbach, K. Bhaskaran-Nair, J. Brabec,
    K. Lopata, S. A. Fischer, S. Krishnamoorthy, M. Jacquelin, W. Ma, M. Klemm,
       O. Villa, Y. Chen, V. Anisimov, F. Aquino, S. Hirata, M. T. Hackler,
           Eric Hermes, L. Jensen, J. E. Moore, J. C. Becca, V. Konjkov,
            D. Mejia-Rodriguez, T. Risthaus, M. Malagoli, A. Marenich,
   A. Otero-de-la-Roza, J. Mullin, P. Nichols, R. Peverati, J. Pittner, Y. Zhao,
        P.-D. Fan, A. Fonari, M. J. Williamson, R. J. Harrison, J. R. Rehr,
      M. Dupuis, D. Silverstein, D. M. A. Smith, J. Nieplocha, V. Tipparaju,
      M. Krishnan, B. E. Van Kuiken, A. Vazquez-Mayagoitia, M. Swart, Q. Wu,
   T. Van Voorhis, A. A. Auer, M. Nooijen, L. D. Crosby, E. Brown, G. Cisneros,
     G. I. Fann, H. Fruchtl, J. Garza, K. Hirao, R. A. Kendall, J. A. Nichols,
       K. Tsemekhman, K. Wolinski, J. Anchell, D. E. Bernholdt, P. Borowski,
       T. Clark, D. Clerc, H. Dachsel, M. J. O. Deegan, K. Dyall, D. Elwood,
      E. Glendening, M. Gutowski, A. C. Hess, J. Jaffe, B. G. Johnson, J. Ju,
        R. Kobayashi, R. Kutteh, Z. Lin, R. Littlefield, X. Long, B. Meng,
      T. Nakajima, S. Niu, L. Pollack, M. Rosing, K. Glaesemann, G. Sandrone,
      M. Stave, H. Taylor, G. Thomas, J. H. van Lenthe, A. T. Wong, Z. Zhang.

 Total times  cpu:        2.9s     wall:        2.9s
