 argument  1 = ch4cl_zts.nw



============================== echo of input deck ==============================
echo
start ch4cl_zts_dat

charge -1

geometry geometry nocenter
  symmetry c1
C     0.000000     0.000000     0.000000
H     0.000000     0.000000     1.089000
H     1.026719     0.000000    -0.363000
H    -0.513360    -0.889165    -0.363000
H    -0.513360     0.889165    -0.363000
Cl    0.000000     0.000000    -4.000000
end

geometry endgeom nocenter
  symmetry c1
C     0.000000     0.000000     0.000000
H     0.000000     0.000000     4.000000
H     1.030648     0.000000     0.348926
H    -0.515324    -0.892568     0.348926
H    -0.515324     0.892568     0.348926
Cl    0.000000     0.000000    -1.805001
end


basis
  * library STO-3G
end

print low

string
tol  0.001d0
stepsize 0.20d0
nbeads 24
maxiter 100
interpol 1
end

set string:freezen .true.
set string:freeze1 .true.

task string scf

================================================================================


                                         
                                         


              Northwest Computational Chemistry Package (NWChem) 6.0
              ------------------------------------------------------


                    Environmental Molecular Sciences Laboratory
                       Pacific Northwest National Laboratory
                                Richland, WA 99352

                              Copyright (c) 1994-2010
                       Pacific Northwest National Laboratory
                            Battelle Memorial Institute

             NWChem is an open-source computational chemistry package
                        distributed under the terms of the
                      Educational Community License (ECL) 2.0
             A copy of the license is included with this distribution
                              in the LICENSE.TXT file

                                  ACKNOWLEDGMENT
                                  --------------

            This software and its documentation were developed at the
            EMSL at Pacific Northwest National Laboratory, a multiprogram
            national laboratory, operated for the U.S. Department of Energy
            by Battelle under Contract Number DE-AC05-76RL01830. Support
            for this work was provided by the Department of Energy Office
            of Biological and Environmental Research, Office of Basic
            Energy Sciences, and the Office of Advanced Scientific Computing.


           Job information
           ---------------

    hostname      = LX17
    program       = /Users/d3p852/nwchem-6.0//bin/MACX/nwchem
    date          = Tue Oct 25 15:08:01 2011

    compiled      = Tue_Oct_25_13:27:21_2011
    source        = /Users/d3p852/nwchem-6.0/
    nwchem branch = Development
    input         = ch4cl_zts.nw
    prefix        = ch4cl_zts_dat.
    data base     = ./ch4cl_zts_dat.db
    status        = startup
    nproc         =        1
    time left     =     -1s



           Memory information
           ------------------

    heap     =   13107201 doubles =    100.0 Mbytes
    stack    =   13107201 doubles =    100.0 Mbytes
    global   =   26214400 doubles =    200.0 Mbytes (distinct from heap & stack)
    total    =   52428802 doubles =    400.0 Mbytes
    verify   = yes
    hardfail = no 


           Directory information
           ---------------------

  0 permanent = .
  0 scratch   = .




                                NWChem Input Module
                                -------------------


 ncenter=           6

 Scaling coordinates for geometry "geometry" by  1.889725989
 (inverse scale =  0.529177249)

 Turning off AUTOSYM since
 SYMMETRY directive was detected!


          ------
          auto-z
          ------
  autoz: The atoms group into disjoint clusters
 cluster   1:    1    2    3    4    5
 cluster   2:    6
 Connecting clusters   1   2 via atoms    3    6 r = 3.78
  autoz: regenerating connections with new bonds


                             Geometry "geometry" -> ""
                             -------------------------

 Output coordinates in angstroms (scale by  1.889725989 to convert to a.u.)

  No.       Tag          Charge          X              Y              Z
 ---- ---------------- ---------- -------------- -------------- --------------
    1 C                    6.0000     0.00000000     0.00000000     0.00000000
    2 H                    1.0000     0.00000000     0.00000000     1.08900000
    3 H                    1.0000     1.02671900     0.00000000    -0.36300000
    4 H                    1.0000    -0.51336000    -0.88916500    -0.36300000
    5 H                    1.0000    -0.51336000     0.88916500    -0.36300000
    6 Cl                  17.0000     0.00000000     0.00000000    -4.00000000

      Atomic Mass 
      ----------- 

      C                 12.000000
      H                  1.007825
      Cl                34.968850


 Effective nuclear repulsion energy (a.u.)      35.8507941666

            Nuclear Dipole moment (a.u.) 
            ----------------------------
        X                 Y               Z
 ---------------- ---------------- ----------------
    -0.0000018897     0.0000000000  -128.5013672234



                                Z-matrix (autoz)
                                -------- 

 Units are Angstrom for bonds and degrees for angles

      Type          Name      I     J     K     L     M      Value
      ----------- --------  ----- ----- ----- ----- ----- ----------
    1 Stretch                  1     2                       1.08900
    2 Stretch                  1     3                       1.08900
    3 Stretch                  1     4                       1.08900
    4 Stretch                  1     5                       1.08900
    5 Stretch                  3     6                       3.77914
    6 Bend                     1     3     6                93.70694
    7 Bend                     2     1     3               109.47122
    8 Bend                     2     1     4               109.47121
    9 Bend                     2     1     5               109.47121
   10 Bend                     3     1     4               109.47124
   11 Bend                     3     1     5               109.47124
   12 Bend                     4     1     5               109.47120
   13 Torsion                  2     1     3     6         180.00000
   14 Torsion                  4     1     3     6          60.00000
   15 Torsion                  5     1     3     6         -60.00000


            XYZ format geometry
            -------------------
     6
 geometry
 C                     0.00000000     0.00000000     0.00000000
 H                     0.00000000     0.00000000     1.08900000
 H                     1.02671900     0.00000000    -0.36300000
 H                    -0.51336000    -0.88916500    -0.36300000
 H                    -0.51336000     0.88916500    -0.36300000
 Cl                    0.00000000     0.00000000    -4.00000000

 ==============================================================================
                                internuclear distances
 ------------------------------------------------------------------------------
       center one      |      center two      | atomic units |  angstroms
 ------------------------------------------------------------------------------
    2 H                |   1 C                |     2.05791  |     1.08900
    3 H                |   1 C                |     2.05791  |     1.08900
    4 H                |   1 C                |     2.05791  |     1.08900
    5 H                |   1 C                |     2.05791  |     1.08900
 ------------------------------------------------------------------------------
                         number of included internuclear distances:          4
 ==============================================================================



 ==============================================================================
                                 internuclear angles
 ------------------------------------------------------------------------------
        center 1       |       center 2       |       center 3       |  degrees
 ------------------------------------------------------------------------------
    2 H                |   1 C                |   3 H                |   109.47
    2 H                |   1 C                |   4 H                |   109.47
    2 H                |   1 C                |   5 H                |   109.47
    3 H                |   1 C                |   4 H                |   109.47
    3 H                |   1 C                |   5 H                |   109.47
    4 H                |   1 C                |   5 H                |   109.47
 ------------------------------------------------------------------------------
                            number of included internuclear angles:          6
 ==============================================================================



 ncenter=           6

 Scaling coordinates for geometry "endgeom" by  1.889725989
 (inverse scale =  0.529177249)

 Turning off AUTOSYM since
 SYMMETRY directive was detected!


          ------
          auto-z
          ------
  autoz: The atoms group into disjoint clusters
 cluster   1:    1    3    4    5    6
 cluster   2:    2
 Clusters   1   2 closest atoms are    3    2 r = 3.79 ... close but too far?
     1 autoz failed with cvr_scaling = 1.2 changing to 1.3
  autoz: The atoms group into disjoint clusters
 cluster   1:    1    3    4    5    6
 cluster   2:    2
 Clusters   1   2 closest atoms are    3    2 r = 3.79 ... close but too far?
     2 autoz failed with cvr_scaling = 1.3 changing to 1.4
  autoz: The atoms group into disjoint clusters
 cluster   1:    1    3    4    5    6
 cluster   2:    2
 Clusters   1   2 closest atoms are    3    2 r = 3.79 ... close but too far?
     3 autoz failed with cvr_scaling = 1.4 changing to 1.5
  autoz: The atoms group into disjoint clusters
 cluster   1:    1    3    4    5    6
 cluster   2:    2
 Clusters   1   2 closest atoms are    3    2 r = 3.79 ... close but too far?
     4 autoz failed with cvr_scaling = 1.5 changing to 1.6
  autoz: The atoms group into disjoint clusters
 cluster   1:    1    3    4    5    6
 cluster   2:    2
 Connecting clusters   1   2 via atoms    3    2 r = 3.79
  autoz: regenerating connections with new bonds


                         Geometry "endgeom" -> "        "
                         --------------------------------

 Output coordinates in angstroms (scale by  1.889725989 to convert to a.u.)

  No.       Tag          Charge          X              Y              Z
 ---- ---------------- ---------- -------------- -------------- --------------
    1 C                    6.0000     0.00000000     0.00000000     0.00000000
    2 H                    1.0000     0.00000000     0.00000000     4.00000000
    3 H                    1.0000     1.03064800     0.00000000     0.34892600
    4 H                    1.0000    -0.51532400    -0.89256800     0.34892600
    5 H                    1.0000    -0.51532400     0.89256800     0.34892600
    6 Cl                  17.0000     0.00000000     0.00000000    -1.80500100

      Atomic Mass 
      ----------- 

      C                 12.000000
      H                  1.007825
      Cl                34.968850


 Effective nuclear repulsion energy (a.u.)      53.6111607256

            Nuclear Dipole moment (a.u.) 
            ----------------------------
        X                 Y               Z
 ---------------- ---------------- ----------------
     0.0000000000     0.0000000000   -48.4492465397



                                Z-matrix (autoz)
                                -------- 

 Units are Angstrom for bonds and degrees for angles

      Type          Name      I     J     K     L     M      Value
      ----------- --------  ----- ----- ----- ----- ----- ----------
    1 Stretch                  1     3                       1.08811
    2 Stretch                  1     4                       1.08811
    3 Stretch                  1     5                       1.08811
    4 Stretch                  1     6                       1.80500
    5 Stretch                  2     3                       3.79375
    6 Bend                     1     3     2                92.93989
    7 Bend                     3     1     4               110.22786
    8 Bend                     3     1     5               110.22786
    9 Bend                     3     1     6               108.70354
   10 Bend                     4     1     5               110.22791
   11 Bend                     4     1     6               108.70353
   12 Bend                     5     1     6               108.70353
   13 Torsion                  2     3     1     4         -60.95138
   14 Torsion                  2     3     1     5          60.95138
   15 Torsion                  2     3     1     6         180.00000


            XYZ format geometry
            -------------------
     6
 endgeom
 C                     0.00000000     0.00000000     0.00000000
 H                     0.00000000     0.00000000     4.00000000
 H                     1.03064800     0.00000000     0.34892600
 H                    -0.51532400    -0.89256800     0.34892600
 H                    -0.51532400     0.89256800     0.34892600
 Cl                    0.00000000     0.00000000    -1.80500100

 ==============================================================================
                                internuclear distances
 ------------------------------------------------------------------------------
       center one      |      center two      | atomic units |  angstroms
 ------------------------------------------------------------------------------
    3 H                |   1 C                |     2.05623  |     1.08811
    4 H                |   1 C                |     2.05623  |     1.08811
    5 H                |   1 C                |     2.05623  |     1.08811
    6 Cl               |   1 C                |     3.41096  |     1.80500
 ------------------------------------------------------------------------------
                         number of included internuclear distances:          4
 ==============================================================================



 ==============================================================================
                                 internuclear angles
 ------------------------------------------------------------------------------
        center 1       |       center 2       |       center 3       |  degrees
 ------------------------------------------------------------------------------
    3 H                |   1 C                |   4 H                |   110.23
    3 H                |   1 C                |   5 H                |   110.23
    3 H                |   1 C                |   6 Cl               |   108.70
    4 H                |   1 C                |   5 H                |   110.23
    4 H                |   1 C                |   6 Cl               |   108.70
    5 H                |   1 C                |   6 Cl               |   108.70
 ------------------------------------------------------------------------------
                            number of included internuclear angles:          6
 ==============================================================================





 Summary of "ao basis" -> "" (cartesian)
 ------------------------------------------------------------------------------
       Tag                 Description            Shells   Functions and Types
 ---------------- ------------------------------  ------  ---------------------
 *                           STO-3G                   on all atoms 


  geom_rtdb_load: not found or rtdb corrupt: midgeom -> midgeom
 geom_rtdb_load: open geometies:  2
  1 geom_rtdb_load: "geometry" -> "geometry"
  2 geom_rtdb_load: "midgeom" -> "midgeom"
 geom_rtdb_load: geometries in last accessed data base:  2
 geometry
 endgeom
@ String method.
@ Temperature          =   0.00000
@ Covergence Tolerance =   0.00100
@ Step Size            =   0.20000
@ Maximum Time Steps   =       100
@ Number of replicas   =        24
@ String Interpolator  =         1
@ First Replica        = frozen
@ Last Replica         = frozen
@  Step   xrms          E end         E middle          E end          E max
                      Basis "ao basis" -> "ao basis" (cartesian)
                      -----
  C (Carbon)
  ----------
            Exponent  Coefficients 
       -------------- ---------------------------------------------------------
  1 S  7.16168370E+01  0.154329
  1 S  1.30450960E+01  0.535328
  1 S  3.53051220E+00  0.444635

  2 S  2.94124940E+00 -0.099967
  2 S  6.83483100E-01  0.399513
  2 S  2.22289900E-01  0.700115

  3 P  2.94124940E+00  0.155916
  3 P  6.83483100E-01  0.607684
  3 P  2.22289900E-01  0.391957

  H (Hydrogen)
  ------------
            Exponent  Coefficients 
       -------------- ---------------------------------------------------------
  1 S  3.42525091E+00  0.154329
  1 S  6.23913730E-01  0.535328
  1 S  1.68855400E-01  0.444635

  Cl (Chlorine)
  -------------
            Exponent  Coefficients 
       -------------- ---------------------------------------------------------
  1 S  6.01345614E+02  0.154329
  1 S  1.09535854E+02  0.535328
  1 S  2.96446769E+01  0.444635

  2 S  3.89604189E+01 -0.099967
  2 S  9.05356348E+00  0.399513
  2 S  2.94449983E+00  0.700115

  3 P  3.89604189E+01  0.155916
  3 P  9.05356348E+00  0.607684
  3 P  2.94449983E+00  0.391957

  4 S  2.12938649E+00 -0.219620
  4 S  5.94093427E-01  0.225595
  4 S  2.32524141E-01  0.900398

  5 P  2.12938649E+00  0.010588
  5 P  5.94093427E-01  0.595167
  5 P  2.32524141E-01  0.462001



 Summary of "ao basis" -> "ao basis" (cartesian)
 ------------------------------------------------------------------------------
       Tag                 Description            Shells   Functions and Types
 ---------------- ------------------------------  ------  ---------------------
 C                           STO-3G                  3        5   2s1p
 H                           STO-3G                  1        1   1s
 Cl                          STO-3G                  5        9   3s2p


                                 NWChem SCF Module
                                 -----------------



  ao basis        = "ao basis"
  functions       =    18
  atoms           =     6
  closed shells   =    14
  open shells     =     0
  charge          =  -1.00
  wavefunction    = RHF 
  input vectors   = atomic
  output vectors  = ./ch4cl_zts_dat.movecs
  use symmetry    = F
  symmetry adapt  = F


 Forming initial guess at       0.0s


 Starting SCF solution at       0.1s



       Final RHF  results 
       ------------------ 

         Total SCF energy =   -494.207095998342
      One-electron energy =   -765.326626867559
      Two-electron energy =    235.268736702601
 Nuclear repulsion energy =     35.850794166616

        Time for solution =      0.0s


                              NWChem Gradients Module
                              -----------------------



                         RHF ENERGY GRADIENTS

    atom               coordinates                        gradient
                 x          y          z           x          y          z
   1 C       0.000000   0.000000   0.000000    0.000000  -0.000000  -0.002267
   2 H       0.000000   0.000000   2.057912   -0.000000   0.000000   0.003439
   3 H       1.940218   0.000000  -0.685971    0.006167  -0.000000  -0.000441
   4 H      -0.970110  -1.680278  -0.685971   -0.003084  -0.005341  -0.000442
   5 H      -0.970110   1.680278  -0.685971   -0.003084   0.005341  -0.000442
   6 Cl      0.000000   0.000000  -7.558904   -0.000000   0.000000   0.000152

                                 NWChem SCF Module
                                 -----------------



  ao basis        = "ao basis"
  functions       =    18
  atoms           =     6
  closed shells   =    14
  open shells     =     0
  charge          =  -1.00
  wavefunction    = RHF 
  input vectors   = ./ch4cl_zts_dat.movecs
  output vectors  = ./ch4cl_zts_dat.movecs
  use symmetry    = F
  symmetry adapt  = F


 Forming initial guess at       0.2s


 Starting SCF solution at       0.2s



       Final RHF  results 
       ------------------ 

         Total SCF energy =   -494.194872456044
      One-electron energy =   -765.721139811309
      Two-electron energy =    235.499929801777
 Nuclear repulsion energy =     36.026337553488

        Time for solution =      0.0s


                              NWChem Gradients Module
                              -----------------------



                         RHF ENERGY GRADIENTS

    atom               coordinates                        gradient
                 x          y          z           x          y          z
   1 C       0.000000   0.000000  -0.058594    0.000000   0.000000  -0.101597
   2 H       0.000000   0.000000   2.238491   -0.000000   0.000000   0.086428
   3 H       1.940540   0.000000  -0.686071   -0.002072   0.000000   0.005024
   4 H      -0.970271  -1.680558  -0.686071    0.001036   0.001794   0.005024
   5 H      -0.970271   1.680558  -0.686071    0.001036  -0.001794   0.005024
   6 Cl      0.000000   0.000000  -7.437152   -0.000000   0.000000   0.000096

                                 NWChem SCF Module
                                 -----------------



  ao basis        = "ao basis"
  functions       =    18
  atoms           =     6
  closed shells   =    14
  open shells     =     0
  charge          =  -1.00
  wavefunction    = RHF 
  input vectors   = ./ch4cl_zts_dat.movecs
  output vectors  = ./ch4cl_zts_dat.movecs
  use symmetry    = F
  symmetry adapt  = F


 Forming initial guess at       0.3s


 Starting SCF solution at       0.3s



       Final RHF  results 
       ------------------ 

         Total SCF energy =   -494.167151508215
      One-electron energy =   -766.212070830987
      Two-electron energy =    235.768070951802
 Nuclear repulsion energy =     36.276848370971

        Time for solution =      0.0s


                              NWChem Gradients Module
                              -----------------------



                         RHF ENERGY GRADIENTS

    atom               coordinates                        gradient
                 x          y          z           x          y          z
   1 C       0.000000   0.000000  -0.117188    0.000001  -0.000000  -0.158237
   2 H       0.000000   0.000000   2.419071   -0.000000   0.000000   0.129616
   3 H       1.940863   0.000000  -0.686172   -0.010077  -0.000000   0.009548
   4 H      -0.970432  -1.680837  -0.686172    0.005038   0.008727   0.009548
   5 H      -0.970432   1.680837  -0.686172    0.005038  -0.008727   0.009548
   6 Cl      0.000000   0.000000  -7.315400   -0.000000   0.000000  -0.000024

                                 NWChem SCF Module
                                 -----------------



  ao basis        = "ao basis"
  functions       =    18
  atoms           =     6
  closed shells   =    14
  open shells     =     0
  charge          =  -1.00
  wavefunction    = RHF 
  input vectors   = ./ch4cl_zts_dat.movecs
  output vectors  = ./ch4cl_zts_dat.movecs
  use symmetry    = F
  symmetry adapt  = F


 Forming initial guess at       0.5s


 Starting SCF solution at       0.5s



       Final RHF  results 
       ------------------ 

         Total SCF energy =   -494.131433894985
      One-electron energy =   -766.790224357962
      Two-electron energy =    236.070431967689
 Nuclear repulsion energy =     36.588358495288

        Time for solution =      0.0s


                              NWChem Gradients Module
                              -----------------------



                         RHF ENERGY GRADIENTS

    atom               coordinates                        gradient
                 x          y          z           x          y          z
   1 C       0.000000   0.000000  -0.175781    0.000001  -0.000000  -0.188849
   2 H       0.000000   0.000000   2.599651   -0.000000   0.000000   0.149652
   3 H       1.941186   0.000000  -0.686272   -0.017795   0.000000   0.013140
   4 H      -0.970594  -1.681117  -0.686272    0.008897   0.015411   0.013140
   5 H      -0.970594   1.681117  -0.686272    0.008897  -0.015411   0.013140
   6 Cl      0.000000   0.000000  -7.193649   -0.000000   0.000000  -0.000221

                                 NWChem SCF Module
                                 -----------------



  ao basis        = "ao basis"
  functions       =    18
  atoms           =     6
  closed shells   =    14
  open shells     =     0
  charge          =  -1.00
  wavefunction    = RHF 
  input vectors   = ./ch4cl_zts_dat.movecs
  output vectors  = ./ch4cl_zts_dat.movecs
  use symmetry    = F
  symmetry adapt  = F


 Forming initial guess at       0.6s


 Starting SCF solution at       0.6s



       Final RHF  results 
       ------------------ 

         Total SCF energy =   -494.092224478123
      One-electron energy =   -767.447676687644
      Two-electron energy =    236.403699607546
 Nuclear repulsion energy =     36.951752601974

        Time for solution =      0.0s


                              NWChem Gradients Module
                              -----------------------



                         RHF ENERGY GRADIENTS

    atom               coordinates                        gradient
                 x          y          z           x          y          z
   1 C       0.000000   0.000000  -0.234375    0.000001   0.000000  -0.202666
   2 H       0.000000   0.000000   2.780231   -0.000000   0.000000   0.155831
   3 H       1.941509   0.000000  -0.686372   -0.025148   0.000000   0.015792
   4 H      -0.970755  -1.681397  -0.686372    0.012574   0.021778   0.015792
   5 H      -0.970755   1.681397  -0.686372    0.012574  -0.021778   0.015792
   6 Cl      0.000000   0.000000  -7.071897   -0.000000   0.000000  -0.000541

                                 NWChem SCF Module
                                 -----------------



  ao basis        = "ao basis"
  functions       =    18
  atoms           =     6
  closed shells   =    14
  open shells     =     0
  charge          =  -1.00
  wavefunction    = RHF 
  input vectors   = ./ch4cl_zts_dat.movecs
  output vectors  = ./ch4cl_zts_dat.movecs
  use symmetry    = F
  symmetry adapt  = F


 Forming initial guess at       0.8s


 Starting SCF solution at       0.8s



       Final RHF  results 
       ------------------ 

         Total SCF energy =   -494.052333792470
      One-electron energy =   -768.176806089066
      Two-electron energy =    236.763397129347
 Nuclear repulsion energy =     37.361075167250

        Time for solution =      0.0s


                              NWChem Gradients Module
                              -----------------------



                         RHF ENERGY GRADIENTS

    atom               coordinates                        gradient
                 x          y          z           x          y          z
   1 C       0.000000   0.000000  -0.292969    0.000001   0.000000  -0.204917
   2 H       0.000000   0.000000   2.960811   -0.000000   0.000000   0.153487
   3 H       1.941832   0.000000  -0.686473   -0.032034  -0.000000   0.017500
   4 H      -0.970917  -1.681676  -0.686473    0.016016   0.027741   0.017500
   5 H      -0.970917   1.681676  -0.686473    0.016016  -0.027741   0.017500
   6 Cl      0.000000   0.000000  -6.950145   -0.000000  -0.000000  -0.001069

                                 NWChem SCF Module
                                 -----------------



  ao basis        = "ao basis"
  functions       =    18
  atoms           =     6
  closed shells   =    14
  open shells     =     0
  charge          =  -1.00
  wavefunction    = RHF 
  input vectors   = ./ch4cl_zts_dat.movecs
  output vectors  = ./ch4cl_zts_dat.movecs
  use symmetry    = F
  symmetry adapt  = F


 Forming initial guess at       0.9s


 Starting SCF solution at       0.9s



       Final RHF  results 
       ------------------ 

         Total SCF energy =   -494.013621316608
      One-electron energy =   -768.968608114284
      Two-electron energy =    237.142439372490
 Nuclear repulsion energy =     37.812547425186

        Time for solution =      0.0s


                              NWChem Gradients Module
                              -----------------------



                         RHF ENERGY GRADIENTS

    atom               coordinates                        gradient
                 x          y          z           x          y          z
   1 C       0.000000   0.000000  -0.351563    0.000001   0.000000  -0.198476
   2 H       0.000000   0.000000   3.141391   -0.000000   0.000000   0.145640
   3 H       1.942154   0.000000  -0.686573   -0.038322  -0.000000   0.018267
   4 H      -0.971078  -1.681956  -0.686573    0.019161   0.033187   0.018267
   5 H      -0.971078   1.681956  -0.686573    0.019161  -0.033187   0.018267
   6 Cl      0.000000   0.000000  -6.828393   -0.000000  -0.000000  -0.001965

                                 NWChem SCF Module
                                 -----------------



  ao basis        = "ao basis"
  functions       =    18
  atoms           =     6
  closed shells   =    14
  open shells     =     0
  charge          =  -1.00
  wavefunction    = RHF 
  input vectors   = ./ch4cl_zts_dat.movecs
  output vectors  = ./ch4cl_zts_dat.movecs
  use symmetry    = F
  symmetry adapt  = F


 Forming initial guess at       1.1s


 Starting SCF solution at       1.1s



       Final RHF  results 
       ------------------ 

         Total SCF energy =   -493.977421687639
      One-electron energy =   -769.810313007983
      Two-electron energy =    237.528914093927
 Nuclear repulsion energy =     38.303977226418

        Time for solution =      0.0s


                              NWChem Gradients Module
                              -----------------------



                         RHF ENERGY GRADIENTS

    atom               coordinates                        gradient
                 x          y          z           x          y          z
   1 C       0.000000   0.000000  -0.410156    0.000001  -0.000000  -0.184929
   2 H       0.000000   0.000000   3.321970   -0.000000   0.000000   0.134108
   3 H       1.942477   0.000000  -0.686674   -0.043859  -0.000000   0.018095
   4 H      -0.971239  -1.682235  -0.686674    0.021929   0.037983   0.018095
   5 H      -0.971239   1.682235  -0.686674    0.021929  -0.037983   0.018095
   6 Cl      0.000000   0.000000  -6.706642   -0.000000   0.000000  -0.003464

                                 NWChem SCF Module
                                 -----------------



  ao basis        = "ao basis"
  functions       =    18
  atoms           =     6
  closed shells   =    14
  open shells     =     0
  charge          =  -1.00
  wavefunction    = RHF 
  input vectors   = ./ch4cl_zts_dat.movecs
  output vectors  = ./ch4cl_zts_dat.movecs
  use symmetry    = F
  symmetry adapt  = F


 Forming initial guess at       1.2s


 Starting SCF solution at       1.2s



       Final RHF  results 
       ------------------ 

         Total SCF energy =   -493.944753629748
      One-electron energy =   -770.684699431452
      Two-electron energy =    237.905547833111
 Nuclear repulsion energy =     38.834397968592

        Time for solution =      0.1s


                              NWChem Gradients Module
                              -----------------------



                         RHF ENERGY GRADIENTS

    atom               coordinates                        gradient
                 x          y          z           x          y          z
   1 C       0.000000   0.000000  -0.468750    0.000001   0.000000  -0.165327
   2 H       0.000000   0.000000   3.502550   -0.000000   0.000000   0.120205
   3 H       1.942800   0.000000  -0.686774   -0.048466  -0.000000   0.017000
   4 H      -0.971401  -1.682515  -0.686774    0.024233   0.041972   0.017000
   5 H      -0.971401   1.682515  -0.686774    0.024233  -0.041972   0.017000
   6 Cl      0.000000   0.000000  -6.584890    0.000000   0.000000  -0.005878

                                 NWChem SCF Module
                                 -----------------



  ao basis        = "ao basis"
  functions       =    18
  atoms           =     6
  closed shells   =    14
  open shells     =     0
  charge          =  -1.00
  wavefunction    = RHF 
  input vectors   = ./ch4cl_zts_dat.movecs
  output vectors  = ./ch4cl_zts_dat.movecs
  use symmetry    = F
  symmetry adapt  = F


 Forming initial guess at       1.5s


 Starting SCF solution at       1.5s



       Final RHF  results 
       ------------------ 

         Total SCF energy =   -493.916382441407
      One-electron energy =   -771.576685212042
      Two-electron energy =    238.256455051370
 Nuclear repulsion energy =     39.403847719264

        Time for solution =      0.0s


                              NWChem Gradients Module
                              -----------------------



                         RHF ENERGY GRADIENTS

    atom               coordinates                        gradient
                 x          y          z           x          y          z
   1 C       0.000000   0.000000  -0.527344    0.000001  -0.000000  -0.140812
   2 H       0.000000   0.000000   3.683130   -0.000000   0.000000   0.105137
   3 H       1.943123   0.000000  -0.686875   -0.051969  -0.000000   0.015024
   4 H      -0.971562  -1.682795  -0.686875    0.025984   0.045006   0.015024
   5 H      -0.971562   1.682795  -0.686875    0.025984  -0.045006   0.015024
   6 Cl      0.000000   0.000000  -6.463138   -0.000000   0.000000  -0.009397

                                 NWChem SCF Module
                                 -----------------



  ao basis        = "ao basis"
  functions       =    18
  atoms           =     6
  closed shells   =    14
  open shells     =     0
  charge          =  -1.00
  wavefunction    = RHF 
  input vectors   = ./ch4cl_zts_dat.movecs
  output vectors  = ./ch4cl_zts_dat.movecs
  use symmetry    = F
  symmetry adapt  = F


 Forming initial guess at       1.6s


 Starting SCF solution at       1.6s



       Final RHF  results 
       ------------------ 

         Total SCF energy =   -493.892785235855
      One-electron energy =   -772.486146730567
      Two-electron energy =    238.580123033246
 Nuclear repulsion energy =     40.013238461466

        Time for solution =      0.0s


                              NWChem Gradients Module
                              -----------------------



                         RHF ENERGY GRADIENTS

    atom               coordinates                        gradient
                 x          y          z           x          y          z
   1 C       0.000000   0.000000  -0.585938    0.000001  -0.000000  -0.113008
   2 H       0.000000   0.000000   3.863710   -0.000000   0.000000   0.090068
   3 H       1.943446   0.000000  -0.686975   -0.054272   0.000000   0.012290
   4 H      -0.971723  -1.683074  -0.686975    0.027136   0.047000   0.012290
   5 H      -0.971723   1.683074  -0.686975    0.027136  -0.047000   0.012290
   6 Cl      0.000000   0.000000  -6.341386   -0.000000   0.000000  -0.013930

                                 NWChem SCF Module
                                 -----------------



  ao basis        = "ao basis"
  functions       =    18
  atoms           =     6
  closed shells   =    14
  open shells     =     0
  charge          =  -1.00
  wavefunction    = RHF 
  input vectors   = ./ch4cl_zts_dat.movecs
  output vectors  = ./ch4cl_zts_dat.movecs
  use symmetry    = F
  symmetry adapt  = F


 Forming initial guess at       1.8s


 Starting SCF solution at       1.8s



       Final RHF  results 
       ------------------ 

         Total SCF energy =   -493.874115671111
      One-electron energy =   -773.429129560979
      Two-electron energy =    238.890727330974
 Nuclear repulsion energy =     40.664286558895

        Time for solution =      0.0s


                              NWChem Gradients Module
                              -----------------------



                         RHF ENERGY GRADIENTS

    atom               coordinates                        gradient
                 x          y          z           x          y          z
   1 C       0.000000   0.000000  -0.644531    0.000001  -0.000000  -0.083775
   2 H       0.000000   0.000000   4.044290   -0.000000   0.000000   0.075938
   3 H       1.943769   0.000000  -0.687076   -0.055373   0.000000   0.009015
   4 H      -0.971885  -1.683354  -0.687076    0.027686   0.047954   0.009015
   5 H      -0.971885   1.683354  -0.687076    0.027686  -0.047954   0.009015
   6 Cl      0.000000   0.000000  -6.219635   -0.000000   0.000000  -0.019208

                                 NWChem SCF Module
                                 -----------------



  ao basis        = "ao basis"
  functions       =    18
  atoms           =     6
  closed shells   =    14
  open shells     =     0
  charge          =  -1.00
  wavefunction    = RHF 
  input vectors   = ./ch4cl_zts_dat.movecs
  output vectors  = ./ch4cl_zts_dat.movecs
  use symmetry    = F
  symmetry adapt  = F


 Forming initial guess at       2.0s


 Starting SCF solution at       2.0s



       Final RHF  results 
       ------------------ 

         Total SCF energy =   -493.860259145427
      One-electron energy =   -774.425705889848
      Two-electron energy =    239.205959050141
 Nuclear repulsion energy =     41.359487694281

        Time for solution =      0.0s


                              NWChem Gradients Module
                              -----------------------



                         RHF ENERGY GRADIENTS

    atom               coordinates                        gradient
                 x          y          z           x          y          z
   1 C       0.000000   0.000000  -0.703125    0.000001  -0.000000  -0.054682
   2 H       0.000000   0.000000   4.224870   -0.000000   0.000000   0.063254
   3 H       1.944091   0.000000  -0.687176   -0.055330   0.000000   0.005457
   4 H      -0.972046  -1.683633  -0.687176    0.027665   0.047917   0.005457
   5 H      -0.972046   1.683633  -0.687176    0.027665  -0.047917   0.005457
   6 Cl      0.000000   0.000000  -6.097883   -0.000000   0.000000  -0.024943

                                 NWChem SCF Module
                                 -----------------



  ao basis        = "ao basis"
  functions       =    18
  atoms           =     6
  closed shells   =    14
  open shells     =     0
  charge          =  -1.00
  wavefunction    = RHF 
  input vectors   = ./ch4cl_zts_dat.movecs
  output vectors  = ./ch4cl_zts_dat.movecs
  use symmetry    = F
  symmetry adapt  = F


 Forming initial guess at       2.2s


 Starting SCF solution at       2.2s



       Final RHF  results 
       ------------------ 

         Total SCF energy =   -493.850933356415
      One-electron energy =   -775.491822351732
      Two-electron energy =    239.538762060742
 Nuclear repulsion energy =     42.102126934576

        Time for solution =      0.0s


                              NWChem Gradients Module
                              -----------------------



                         RHF ENERGY GRADIENTS

    atom               coordinates                        gradient
                 x          y          z           x          y          z
   1 C       0.000000   0.000000  -0.761719    0.000001  -0.000000  -0.026888
   2 H       0.000000   0.000000   4.405449   -0.000000   0.000000   0.052160
   3 H       1.944414   0.000000  -0.687277   -0.054214   0.000000   0.001876
   4 H      -0.972207  -1.683913  -0.687277    0.027107   0.046950   0.001876
   5 H      -0.972207   1.683913  -0.687277    0.027107  -0.046950   0.001876
   6 Cl      0.000000   0.000000  -5.976131   -0.000000   0.000000  -0.030900

                                 NWChem SCF Module
                                 -----------------



  ao basis        = "ao basis"
  functions       =    18
  atoms           =     6
  closed shells   =    14
  open shells     =     0
  charge          =  -1.00
  wavefunction    = RHF 
  input vectors   = ./ch4cl_zts_dat.movecs
  output vectors  = ./ch4cl_zts_dat.movecs
  use symmetry    = F
  symmetry adapt  = F


 Forming initial guess at       2.3s


 Starting SCF solution at       2.3s



       Final RHF  results 
       ------------------ 

         Total SCF energy =   -493.845765923460
      One-electron energy =   -776.638769788965
      Two-electron energy =    239.896684437988
 Nuclear repulsion energy =     42.896319427516

        Time for solution =      0.0s


                              NWChem Gradients Module
                              -----------------------



                         RHF ENERGY GRADIENTS

    atom               coordinates                        gradient
                 x          y          z           x          y          z
   1 C       0.000000   0.000000  -0.820313    0.000001  -0.000000  -0.001263
   2 H       0.000000   0.000000   4.586029   -0.000000   0.000000   0.042595
   3 H       1.944737   0.000000  -0.687377   -0.052096   0.000000  -0.001487
   4 H      -0.972369  -1.684193  -0.687377    0.026047   0.045116  -0.001487
   5 H      -0.972369   1.684193  -0.687377    0.026047  -0.045116  -0.001487
   6 Cl      0.000000   0.000000  -5.854379   -0.000000   0.000000  -0.036871

                                 NWChem SCF Module
                                 -----------------



  ao basis        = "ao basis"
  functions       =    18
  atoms           =     6
  closed shells   =    14
  open shells     =     0
  charge          =  -1.00
  wavefunction    = RHF 
  input vectors   = ./ch4cl_zts_dat.movecs
  output vectors  = ./ch4cl_zts_dat.movecs
  use symmetry    = F
  symmetry adapt  = F


 Forming initial guess at       2.5s


 Starting SCF solution at       2.5s



       Final RHF  results 
       ------------------ 

         Total SCF energy =   -493.844330000796
      One-electron energy =   -777.875006089360
      Two-electron energy =    240.283595338985
 Nuclear repulsion energy =     43.747080749579

        Time for solution =      0.0s


                              NWChem Gradients Module
                              -----------------------



                         RHF ENERGY GRADIENTS

    atom               coordinates                        gradient
                 x          y          z           x          y          z
   1 C       0.000000   0.000000  -0.878906    0.000001   0.000000   0.021462
   2 H       0.000000   0.000000   4.766609   -0.000000  -0.000000   0.034425
   3 H       1.945060   0.000000  -0.687478   -0.049048   0.000000  -0.004422
   4 H      -0.972530  -1.684472  -0.687478    0.024524   0.042476  -0.004422
   5 H      -0.972530   1.684472  -0.687478    0.024524  -0.042476  -0.004422
   6 Cl      0.000000   0.000000  -5.732628   -0.000000  -0.000000  -0.042620

                                 NWChem SCF Module
                                 -----------------



  ao basis        = "ao basis"
  functions       =    18
  atoms           =     6
  closed shells   =    14
  open shells     =     0
  charge          =  -1.00
  wavefunction    = RHF 
  input vectors   = ./ch4cl_zts_dat.movecs
  output vectors  = ./ch4cl_zts_dat.movecs
  use symmetry    = F
  symmetry adapt  = F


 Forming initial guess at       2.7s


 Starting SCF solution at       2.7s



       Final RHF  results 
       ------------------ 

         Total SCF energy =   -493.846152426522
      One-electron energy =   -779.207709705099
      Two-electron energy =    240.701128451411
 Nuclear repulsion energy =     44.660428827166

        Time for solution =      0.0s


                              NWChem Gradients Module
                              -----------------------



                         RHF ENERGY GRADIENTS

    atom               coordinates                        gradient
                 x          y          z           x          y          z
   1 C       0.000000   0.000000  -0.937500    0.000001  -0.000000   0.040622
   2 H       0.000000   0.000000   4.947189    0.000000  -0.000000   0.027501
   3 H       1.945383   0.000000  -0.687578   -0.045148  -0.000000  -0.006759
   4 H      -0.972692  -1.684752  -0.687578    0.022574   0.039099  -0.006759
   5 H      -0.972692   1.684752  -0.687578    0.022574  -0.039099  -0.006759
   6 Cl      0.000000   0.000000  -5.610876   -0.000000   0.000000  -0.047845

                                 NWChem SCF Module
                                 -----------------



  ao basis        = "ao basis"
  functions       =    18
  atoms           =     6
  closed shells   =    14
  open shells     =     0
  charge          =  -1.00
  wavefunction    = RHF 
  input vectors   = ./ch4cl_zts_dat.movecs
  output vectors  = ./ch4cl_zts_dat.movecs
  use symmetry    = F
  symmetry adapt  = F


 Forming initial guess at       2.9s


 Starting SCF solution at       2.9s



       Final RHF  results 
       ------------------ 

         Total SCF energy =   -493.850706911870
      One-electron energy =   -780.643736475634
      Two-electron energy =    241.149507436527
 Nuclear repulsion energy =     45.643522127237

        Time for solution =      0.0s


                              NWChem Gradients Module
                              -----------------------



                         RHF ENERGY GRADIENTS

    atom               coordinates                        gradient
                 x          y          z           x          y          z
   1 C       0.000000   0.000000  -0.996094    0.000001   0.000000   0.055581
   2 H       0.000000   0.000000   5.127769   -0.000000  -0.000000   0.021682
   3 H       1.945705   0.000000  -0.687679   -0.040477  -0.000000  -0.008364
   4 H      -0.972853  -1.685031  -0.687679    0.020238   0.035053  -0.008364
   5 H      -0.972853   1.685031  -0.687679    0.020238  -0.035053  -0.008364
   6 Cl      0.000000   0.000000  -5.489124   -0.000000  -0.000000  -0.052171

                                 NWChem SCF Module
                                 -----------------



  ao basis        = "ao basis"
  functions       =    18
  atoms           =     6
  closed shells   =    14
  open shells     =     0
  charge          =  -1.00
  wavefunction    = RHF 
  input vectors   = ./ch4cl_zts_dat.movecs
  output vectors  = ./ch4cl_zts_dat.movecs
  use symmetry    = F
  symmetry adapt  = F


 Forming initial guess at       3.1s


 Starting SCF solution at       3.1s



       Final RHF  results 
       ------------------ 

         Total SCF energy =   -493.857404691702
      One-electron energy =   -782.190215426001
      Two-electron energy =    241.627968879492
 Nuclear repulsion energy =     46.704841854807

        Time for solution =      0.0s


                              NWChem Gradients Module
                              -----------------------



                         RHF ENERGY GRADIENTS

    atom               coordinates                        gradient
                 x          y          z           x          y          z
   1 C       0.000000   0.000000  -1.054687    0.000001   0.000000   0.065735
   2 H       0.000000   0.000000   5.308349   -0.000000  -0.000000   0.016835
   3 H       1.946028   0.000000  -0.687779   -0.035118  -0.000000  -0.009149
   4 H      -0.973014  -1.685311  -0.687779    0.017559   0.030412  -0.009149
   5 H      -0.973014   1.685311  -0.687779    0.017559  -0.030412  -0.009149
   6 Cl      0.000000   0.000000  -5.367372   -0.000000  -0.000000  -0.055123

                                 NWChem SCF Module
                                 -----------------



  ao basis        = "ao basis"
  functions       =    18
  atoms           =     6
  closed shells   =    14
  open shells     =     0
  charge          =  -1.00
  wavefunction    = RHF 
  input vectors   = ./ch4cl_zts_dat.movecs
  output vectors  = ./ch4cl_zts_dat.movecs
  use symmetry    = F
  symmetry adapt  = F


 Forming initial guess at       3.3s


 Starting SCF solution at       3.3s



       Final RHF  results 
       ------------------ 

         Total SCF energy =   -493.865581342082
      One-electron energy =   -783.855441967507
      Two-electron energy =    242.135431023297
 Nuclear repulsion energy =     47.854429602128

        Time for solution =      0.0s


                              NWChem Gradients Module
                              -----------------------



                         RHF ENERGY GRADIENTS

    atom               coordinates                        gradient
                 x          y          z           x          y          z
   1 C       0.000000   0.000000  -1.113281    0.000001   0.000000   0.070498
   2 H       0.000000   0.000000   5.488928   -0.000000   0.000000   0.012827
   3 H       1.946351   0.000000  -0.687880   -0.029157  -0.000000  -0.009071
   4 H      -0.973176  -1.685591  -0.687880    0.014578   0.025250  -0.009071
   5 H      -0.973176   1.685591  -0.687880    0.014578  -0.025250  -0.009071
   6 Cl      0.000000   0.000000  -5.245621   -0.000000  -0.000000  -0.056111

                                 NWChem SCF Module
                                 -----------------



  ao basis        = "ao basis"
  functions       =    18
  atoms           =     6
  closed shells   =    14
  open shells     =     0
  charge          =  -1.00
  wavefunction    = RHF 
  input vectors   = ./ch4cl_zts_dat.movecs
  output vectors  = ./ch4cl_zts_dat.movecs
  use symmetry    = F
  symmetry adapt  = F


 Forming initial guess at       3.4s


 Starting SCF solution at       3.4s



       Final RHF  results 
       ------------------ 

         Total SCF energy =   -493.874483699322
      One-electron energy =   -785.649241368674
      Two-electron energy =    242.670560912270
 Nuclear repulsion energy =     49.104196757082

        Time for solution =      0.0s


                              NWChem Gradients Module
                              -----------------------



                         RHF ENERGY GRADIENTS

    atom               coordinates                        gradient
                 x          y          z           x          y          z
   1 C       0.000000   0.000000  -1.171875    0.000000   0.000000   0.069290
   2 H       0.000000   0.000000   5.669508   -0.000000   0.000000   0.009518
   3 H       1.946674   0.000000  -0.687980   -0.022678  -0.000000  -0.008130
   4 H      -0.973337  -1.685870  -0.687980    0.011339   0.019639  -0.008130
   5 H      -0.973337   1.685870  -0.687980    0.011339  -0.019639  -0.008130
   6 Cl      0.000000   0.000000  -5.123869   -0.000000  -0.000000  -0.054420

                                 NWChem SCF Module
                                 -----------------



  ao basis        = "ao basis"
  functions       =    18
  atoms           =     6
  closed shells   =    14
  open shells     =     0
  charge          =  -1.00
  wavefunction    = RHF 
  input vectors   = ./ch4cl_zts_dat.movecs
  output vectors  = ./ch4cl_zts_dat.movecs
  use symmetry    = F
  symmetry adapt  = F


 Forming initial guess at       3.6s


 Starting SCF solution at       3.6s



       Final RHF  results 
       ------------------ 

         Total SCF energy =   -493.883229266274
      One-electron energy =   -787.595833286317
      Two-electron energy =    243.244275345374
 Nuclear repulsion energy =     50.468328674670

        Time for solution =      0.1s


                              NWChem Gradients Module
                              -----------------------



                         RHF ENERGY GRADIENTS

    atom               coordinates                        gradient
                 x          y          z           x          y          z
   1 C       0.000000   0.000000  -1.230469    0.000000   0.000000   0.061087
   2 H       0.000000   0.000000   5.850088   -0.000000   0.000000   0.006737
   3 H       1.946997   0.000000  -0.688081   -0.015730  -0.000000  -0.006354
   4 H      -0.973498  -1.686150  -0.688081    0.007865   0.013622  -0.006354
   5 H      -0.973498   1.686150  -0.688081    0.007865  -0.013622  -0.006354
   6 Cl      0.000000   0.000000  -5.002117   -0.000000  -0.000000  -0.048763

                                 NWChem SCF Module
                                 -----------------



  ao basis        = "ao basis"
  functions       =    18
  atoms           =     6
  closed shells   =    14
  open shells     =     0
  charge          =  -1.00
  wavefunction    = RHF 
  input vectors   = ./ch4cl_zts_dat.movecs
  output vectors  = ./ch4cl_zts_dat.movecs
  use symmetry    = F
  symmetry adapt  = F


 Forming initial guess at       3.8s


 Starting SCF solution at       3.8s



       Final RHF  results 
       ------------------ 

         Total SCF energy =   -493.890535673233
      One-electron energy =   -789.811791527166
      Two-electron energy =    243.957439698644
 Nuclear repulsion energy =     51.963816155290

        Time for solution =      0.1s


                              NWChem Gradients Module
                              -----------------------



                         RHF ENERGY GRADIENTS

    atom               coordinates                        gradient
                 x          y          z           x          y          z
   1 C       0.000000   0.000000  -1.289063    0.000000   0.000000   0.041092
   2 H       0.000000   0.000000   6.030668   -0.000000  -0.000000   0.004278
   3 H       1.947319   0.000000  -0.688181   -0.008165   0.000000  -0.003799
   4 H      -0.973660  -1.686429  -0.688181    0.004082   0.007071  -0.003798
   5 H      -0.973660   1.686429  -0.688181    0.004082  -0.007071  -0.003798
   6 Cl      0.000000   0.000000  -4.880365   -0.000000  -0.000000  -0.033974

                                 NWChem SCF Module
                                 -----------------



  ao basis        = "ao basis"
  functions       =    18
  atoms           =     6
  closed shells   =    14
  open shells     =     0
  charge          =  -1.00
  wavefunction    = RHF 
  input vectors   = ./ch4cl_zts_dat.movecs
  output vectors  = ./ch4cl_zts_dat.movecs
  use symmetry    = F
  symmetry adapt  = F


 Forming initial guess at       4.0s


 Starting SCF solution at       4.0s



       Final RHF  results 
       ------------------ 

         Total SCF energy =   -493.892902871695
      One-electron energy =   -792.672089705180
      Two-electron energy =    245.168026107848
 Nuclear repulsion energy =     53.611160725637

        Time for solution =      0.1s


                              NWChem Gradients Module
                              -----------------------



                         RHF ENERGY GRADIENTS

    atom               coordinates                        gradient
                 x          y          z           x          y          z
   1 C       0.000000   0.000000  -1.347656    0.000000   0.000000  -0.008876
   2 H       0.000000   0.000000   6.211248   -0.000000  -0.000000   0.002792
   3 H       1.947642   0.000000  -0.688282    0.000464   0.000000  -0.000807
   4 H      -0.973821  -1.686709  -0.688282   -0.000232  -0.000403  -0.000807
   5 H      -0.973821   1.686709  -0.688282   -0.000232   0.000403  -0.000807
   6 Cl      0.000000   0.000000  -4.758614   -0.000000  -0.000000   0.008505

                                 NWChem SCF Module
                                 -----------------



  ao basis        = "ao basis"
  functions       =    18
  atoms           =     6
  closed shells   =    14
  open shells     =     0
  charge          =  -1.00
  wavefunction    = RHF 
  input vectors   = ./ch4cl_zts_dat.movecs
  output vectors  = ./ch4cl_zts_dat.movecs
  use symmetry    = F
  symmetry adapt  = F


 Forming initial guess at       4.2s


 Starting SCF solution at       4.2s



       Final RHF  results 
       ------------------ 

         Total SCF energy =   -494.198196829739
      One-electron energy =   -765.690664988382
      Two-electron energy =    235.484011928448
 Nuclear repulsion energy =     36.008456230195

        Time for solution =      0.0s


                                 NWChem SCF Module
                                 -----------------



  ao basis        = "ao basis"
  functions       =    18
  atoms           =     6
  closed shells   =    14
  open shells     =     0
  charge          =  -1.00
  wavefunction    = RHF 
  input vectors   = ./ch4cl_zts_dat.movecs
  output vectors  = ./ch4cl_zts_dat.movecs
  use symmetry    = F
  symmetry adapt  = F


 Forming initial guess at       4.3s


 Starting SCF solution at       4.3s



       Final RHF  results 
       ------------------ 

         Total SCF energy =   -494.175246549326
      One-electron energy =   -766.135778676605
      Two-electron energy =    235.732165990150
 Nuclear repulsion energy =     36.228366137129

        Time for solution =      0.0s


                                 NWChem SCF Module
                                 -----------------



  ao basis        = "ao basis"
  functions       =    18
  atoms           =     6
  closed shells   =    14
  open shells     =     0
  charge          =  -1.00
  wavefunction    = RHF 
  input vectors   = ./ch4cl_zts_dat.movecs
  output vectors  = ./ch4cl_zts_dat.movecs
  use symmetry    = F
  symmetry adapt  = F


 Forming initial guess at       4.3s


 Starting SCF solution at       4.3s



       Final RHF  results 
       ------------------ 

         Total SCF energy =   -494.142979094200
      One-electron energy =   -766.672569039303
      Two-electron energy =    236.017459222204
 Nuclear repulsion energy =     36.512130722899

        Time for solution =      0.0s


                                 NWChem SCF Module
                                 -----------------



  ao basis        = "ao basis"
  functions       =    18
  atoms           =     6
  closed shells   =    14
  open shells     =     0
  charge          =  -1.00
  wavefunction    = RHF 
  input vectors   = ./ch4cl_zts_dat.movecs
  output vectors  = ./ch4cl_zts_dat.movecs
  use symmetry    = F
  symmetry adapt  = F


 Forming initial guess at       4.4s


 Starting SCF solution at       4.4s



       Final RHF  results 
       ------------------ 

         Total SCF energy =   -494.105548049708
      One-electron energy =   -767.296578709959
      Two-electron energy =    236.337657399607
 Nuclear repulsion energy =     36.853373260644

        Time for solution =      0.0s


                                 NWChem SCF Module
                                 -----------------



  ao basis        = "ao basis"
  functions       =    18
  atoms           =     6
  closed shells   =    14
  open shells     =     0
  charge          =  -1.00
  wavefunction    = RHF 
  input vectors   = ./ch4cl_zts_dat.movecs
  output vectors  = ./ch4cl_zts_dat.movecs
  use symmetry    = F
  symmetry adapt  = F


 Forming initial guess at       4.5s


 Starting SCF solution at       4.5s



       Final RHF  results 
       ------------------ 

         Total SCF energy =   -494.066051911302
      One-electron energy =   -768.001698164166
      Two-electron energy =    236.689010215060
 Nuclear repulsion energy =     37.246636037805

        Time for solution =      0.0s


                                 NWChem SCF Module
                                 -----------------



  ao basis        = "ao basis"
  functions       =    18
  atoms           =     6
  closed shells   =    14
  open shells     =     0
  charge          =  -1.00
  wavefunction    = RHF 
  input vectors   = ./ch4cl_zts_dat.movecs
  output vectors  = ./ch4cl_zts_dat.movecs
  use symmetry    = F
  symmetry adapt  = F


 Forming initial guess at       4.5s


 Starting SCF solution at       4.5s



       Final RHF  results 
       ------------------ 

         Total SCF energy =   -494.026703289674
      One-electron energy =   -768.780188218987
      Two-electron energy =    237.065402056412
 Nuclear repulsion energy =     37.688082872900

        Time for solution =      0.0s


                                 NWChem SCF Module
                                 -----------------



  ao basis        = "ao basis"
  functions       =    18
  atoms           =     6
  closed shells   =    14
  open shells     =     0
  charge          =  -1.00
  wavefunction    = RHF 
  input vectors   = ./ch4cl_zts_dat.movecs
  output vectors  = ./ch4cl_zts_dat.movecs
  use symmetry    = F
  symmetry adapt  = F


 Forming initial guess at       4.6s


 Starting SCF solution at       4.6s



       Final RHF  results 
       ------------------ 

         Total SCF energy =   -493.989140257124
      One-electron energy =   -769.620891034959
      Two-electron energy =    237.456262526454
 Nuclear repulsion energy =     38.175488251381

        Time for solution =      0.0s


                                 NWChem SCF Module
                                 -----------------



  ao basis        = "ao basis"
  functions       =    18
  atoms           =     6
  closed shells   =    14
  open shells     =     0
  charge          =  -1.00
  wavefunction    = RHF 
  input vectors   = ./ch4cl_zts_dat.movecs
  output vectors  = ./ch4cl_zts_dat.movecs
  use symmetry    = F
  symmetry adapt  = F


 Forming initial guess at       4.6s


 Starting SCF solution at       4.6s



       Final RHF  results 
       ------------------ 

         Total SCF energy =   -493.954654769670
      One-electron energy =   -770.507283434835
      Two-electron energy =    237.844633322091
 Nuclear repulsion energy =     38.707995343074

        Time for solution =      0.0s


                                 NWChem SCF Module
                                 -----------------



  ao basis        = "ao basis"
  functions       =    18
  atoms           =     6
  closed shells   =    14
  open shells     =     0
  charge          =  -1.00
  wavefunction    = RHF 
  input vectors   = ./ch4cl_zts_dat.movecs
  output vectors  = ./ch4cl_zts_dat.movecs
  use symmetry    = F
  symmetry adapt  = F


 Forming initial guess at       4.7s


 Starting SCF solution at       4.7s



       Final RHF  results 
       ------------------ 

         Total SCF energy =   -493.924290456991
      One-electron energy =   -771.421215711805
      Two-electron energy =    238.211352405056
 Nuclear repulsion energy =     39.285572849759

        Time for solution =      0.0s


                                 NWChem SCF Module
                                 -----------------



  ao basis        = "ao basis"
  functions       =    18
  atoms           =     6
  closed shells   =    14
  open shells     =     0
  charge          =  -1.00
  wavefunction    = RHF 
  input vectors   = ./ch4cl_zts_dat.movecs
  output vectors  = ./ch4cl_zts_dat.movecs
  use symmetry    = F
  symmetry adapt  = F


 Forming initial guess at       4.7s


 Starting SCF solution at       4.7s



       Final RHF  results 
       ------------------ 

         Total SCF energy =   -493.898802538397
      One-electron energy =   -772.356372547924
      Two-electron energy =    238.549072884298
 Nuclear repulsion energy =     39.908497125229

        Time for solution =      0.0s


                                 NWChem SCF Module
                                 -----------------



  ao basis        = "ao basis"
  functions       =    18
  atoms           =     6
  closed shells   =    14
  open shells     =     0
  charge          =  -1.00
  wavefunction    = RHF 
  input vectors   = ./ch4cl_zts_dat.movecs
  output vectors  = ./ch4cl_zts_dat.movecs
  use symmetry    = F
  symmetry adapt  = F


 Forming initial guess at       4.8s


 Starting SCF solution at       4.8s



       Final RHF  results 
       ------------------ 

         Total SCF energy =   -493.878558894040
      One-electron energy =   -773.325462544591
      Two-electron energy =    238.869458440954
 Nuclear repulsion energy =     40.577445209598

        Time for solution =      0.0s


                                 NWChem SCF Module
                                 -----------------



  ao basis        = "ao basis"
  functions       =    18
  atoms           =     6
  closed shells   =    14
  open shells     =     0
  charge          =  -1.00
  wavefunction    = RHF 
  input vectors   = ./ch4cl_zts_dat.movecs
  output vectors  = ./ch4cl_zts_dat.movecs
  use symmetry    = F
  symmetry adapt  = F


 Forming initial guess at       4.8s


 Starting SCF solution at       4.8s



       Final RHF  results 
       ------------------ 

         Total SCF energy =   -493.863544544088
      One-electron energy =   -774.349115461208
      Two-electron energy =    239.191632462568
 Nuclear repulsion energy =     41.293938454553

        Time for solution =      0.0s


                                 NWChem SCF Module
                                 -----------------



  ao basis        = "ao basis"
  functions       =    18
  atoms           =     6
  closed shells   =    14
  open shells     =     0
  charge          =  -1.00
  wavefunction    = RHF 
  input vectors   = ./ch4cl_zts_dat.movecs
  output vectors  = ./ch4cl_zts_dat.movecs
  use symmetry    = F
  symmetry adapt  = F


 Forming initial guess at       4.9s


 Starting SCF solution at       4.9s



       Final RHF  results 
       ------------------ 

         Total SCF energy =   -493.853479077608
      One-electron energy =   -775.444677238467
      Two-electron energy =    239.530636705264
 Nuclear repulsion energy =     42.060561455596

        Time for solution =      0.0s


                                 NWChem SCF Module
                                 -----------------



  ao basis        = "ao basis"
  functions       =    18
  atoms           =     6
  closed shells   =    14
  open shells     =     0
  charge          =  -1.00
  wavefunction    = RHF 
  input vectors   = ./ch4cl_zts_dat.movecs
  output vectors  = ./ch4cl_zts_dat.movecs
  use symmetry    = F
  symmetry adapt  = F


 Forming initial guess at       5.0s


 Starting SCF solution at       5.0s



       Final RHF  results 
       ------------------ 

         Total SCF energy =   -493.847931804358
      One-electron energy =   -776.624229682720
      Two-electron energy =    239.895366989719
 Nuclear repulsion energy =     42.880930888642

        Time for solution =      0.0s


                                 NWChem SCF Module
                                 -----------------



  ao basis        = "ao basis"
  functions       =    18
  atoms           =     6
  closed shells   =    14
  open shells     =     0
  charge          =  -1.00
  wavefunction    = RHF 
  input vectors   = ./ch4cl_zts_dat.movecs
  output vectors  = ./ch4cl_zts_dat.movecs
  use symmetry    = F
  symmetry adapt  = F


 Forming initial guess at       5.0s


 Starting SCF solution at       5.0s



       Final RHF  results 
       ------------------ 

         Total SCF energy =   -493.846385212920
      One-electron energy =   -777.896241309807
      Two-electron energy =    240.290278015772
 Nuclear repulsion energy =     43.759578081115

        Time for solution =      0.0s


                                 NWChem SCF Module
                                 -----------------



  ao basis        = "ao basis"
  functions       =    18
  atoms           =     6
  closed shells   =    14
  open shells     =     0
  charge          =  -1.00
  wavefunction    = RHF 
  input vectors   = ./ch4cl_zts_dat.movecs
  output vectors  = ./ch4cl_zts_dat.movecs
  use symmetry    = F
  symmetry adapt  = F


 Forming initial guess at       5.1s


 Starting SCF solution at       5.1s



       Final RHF  results 
       ------------------ 

         Total SCF energy =   -493.848258359938
      One-electron energy =   -779.267147831227
      Two-electron energy =    240.717019847221
 Nuclear repulsion energy =     44.701869624068

        Time for solution =      0.0s


                                 NWChem SCF Module
                                 -----------------



  ao basis        = "ao basis"
  functions       =    18
  atoms           =     6
  closed shells   =    14
  open shells     =     0
  charge          =  -1.00
  wavefunction    = RHF 
  input vectors   = ./ch4cl_zts_dat.movecs
  output vectors  = ./ch4cl_zts_dat.movecs
  use symmetry    = F
  symmetry adapt  = F


 Forming initial guess at       5.1s


 Starting SCF solution at       5.1s



       Final RHF  results 
       ------------------ 

         Total SCF energy =   -493.852912793957
      One-electron energy =   -780.742292461701
      Two-electron energy =    241.175383349238
 Nuclear repulsion energy =     45.713996318506

        Time for solution =      0.0s


                                 NWChem SCF Module
                                 -----------------



  ao basis        = "ao basis"
  functions       =    18
  atoms           =     6
  closed shells   =    14
  open shells     =     0
  charge          =  -1.00
  wavefunction    = RHF 
  input vectors   = ./ch4cl_zts_dat.movecs
  output vectors  = ./ch4cl_zts_dat.movecs
  use symmetry    = F
  symmetry adapt  = F


 Forming initial guess at       5.2s


 Starting SCF solution at       5.2s



       Final RHF  results 
       ------------------ 

         Total SCF energy =   -493.859654214110
      One-electron energy =   -782.326419863868
      Two-electron energy =    241.663815981388
 Nuclear repulsion energy =     46.802949668370

        Time for solution =      0.0s


                                 NWChem SCF Module
                                 -----------------



  ao basis        = "ao basis"
  functions       =    18
  atoms           =     6
  closed shells   =    14
  open shells     =     0
  charge          =  -1.00
  wavefunction    = RHF 
  input vectors   = ./ch4cl_zts_dat.movecs
  output vectors  = ./ch4cl_zts_dat.movecs
  use symmetry    = F
  symmetry adapt  = F


 Forming initial guess at       5.3s


 Starting SCF solution at       5.3s



       Final RHF  results 
       ------------------ 

         Total SCF energy =   -493.867733417502
      One-electron energy =   -784.024417153923
      Two-electron energy =    242.180177983783
 Nuclear repulsion energy =     47.976505752638

        Time for solution =      0.0s


                                 NWChem SCF Module
                                 -----------------



  ao basis        = "ao basis"
  functions       =    18
  atoms           =     6
  closed shells   =    14
  open shells     =     0
  charge          =  -1.00
  wavefunction    = RHF 
  input vectors   = ./ch4cl_zts_dat.movecs
  output vectors  = ./ch4cl_zts_dat.movecs
  use symmetry    = F
  symmetry adapt  = F


 Forming initial guess at       5.3s


 Starting SCF solution at       5.3s



       Final RHF  results 
       ------------------ 

         Total SCF energy =   -493.876344702347
      One-electron energy =   -785.841598980964
      Two-electron energy =    242.722042413521
 Nuclear repulsion energy =     49.243211865096

        Time for solution =      0.1s


                                 NWChem SCF Module
                                 -----------------



  ao basis        = "ao basis"
  functions       =    18
  atoms           =     6
  closed shells   =    14
  open shells     =     0
  charge          =  -1.00
  wavefunction    = RHF 
  input vectors   = ./ch4cl_zts_dat.movecs
  output vectors  = ./ch4cl_zts_dat.movecs
  use symmetry    = F
  symmetry adapt  = F


 Forming initial guess at       5.4s


 Starting SCF solution at       5.4s



       Final RHF  results 
       ------------------ 

         Total SCF energy =   -493.884585276332
      One-electron energy =   -787.797145078812
      Two-electron energy =    243.301504367028
 Nuclear repulsion energy =     50.611055435452

        Time for solution =      0.1s


                                 NWChem SCF Module
                                 -----------------



  ao basis        = "ao basis"
  functions       =    18
  atoms           =     6
  closed shells   =    14
  open shells     =     0
  charge          =  -1.00
  wavefunction    = RHF 
  input vectors   = ./ch4cl_zts_dat.movecs
  output vectors  = ./ch4cl_zts_dat.movecs
  use symmetry    = F
  symmetry adapt  = F


 Forming initial guess at       5.4s


 Starting SCF solution at       5.4s



       Final RHF  results 
       ------------------ 

         Total SCF energy =   -493.891124892933
      One-electron energy =   -789.994330152505
      Two-electron energy =    244.027404118974
 Nuclear repulsion energy =     52.075801140598

        Time for solution =      0.1s


@     1 0.049869   -494.2070960   -493.8602591   -493.8929029   -493.8443300
                                 NWChem SCF Module
                                 -----------------



  ao basis        = "ao basis"
  functions       =    18
  atoms           =     6
  closed shells   =    14
  open shells     =     0
  charge          =  -1.00
  wavefunction    = RHF 
  input vectors   = ./ch4cl_zts_dat.movecs
  output vectors  = ./ch4cl_zts_dat.movecs
  use symmetry    = F
  symmetry adapt  = F


 Forming initial guess at       5.5s


 Starting SCF solution at       5.5s



       Final RHF  results 
       ------------------ 

         Total SCF energy =   -494.201917500670
      One-electron energy =   -765.705201404165
      Two-electron energy =    235.500357422402
 Nuclear repulsion energy =     36.002926481093

        Time for solution =      0.0s


                              NWChem Gradients Module
                              -----------------------



                         RHF ENERGY GRADIENTS

    atom               coordinates                        gradient
                 x          y          z           x          y          z
   1 C      -0.000000  -0.000000   0.000114   -0.000000   0.000000  -0.046219
   2 H       0.000000  -0.000000   2.202175    0.000000  -0.000000   0.060665
   3 H       1.944537  -0.000000  -0.709336    0.009626   0.000000  -0.004843
   4 H      -0.972269  -1.684019  -0.709336   -0.004813  -0.008336  -0.004843
   5 H      -0.972269   1.684019  -0.709336   -0.004813   0.008336  -0.004843
   6 Cl      0.000000  -0.000000  -7.412812   -0.000000  -0.000000   0.000083

                                 NWChem SCF Module
                                 -----------------



  ao basis        = "ao basis"
  functions       =    18
  atoms           =     6
  closed shells   =    14
  open shells     =     0
  charge          =  -1.00
  wavefunction    = RHF 
  input vectors   = ./ch4cl_zts_dat.movecs
  output vectors  = ./ch4cl_zts_dat.movecs
  use symmetry    = F
  symmetry adapt  = F


 Forming initial guess at       5.6s


 Starting SCF solution at       5.6s



       Final RHF  results 
       ------------------ 

         Total SCF energy =   -494.183727799358
      One-electron energy =   -766.116412278988
      Two-electron energy =    235.742297795739
 Nuclear repulsion energy =     36.190386683891

        Time for solution =      0.0s


                              NWChem Gradients Module
                              -----------------------



                         RHF ENERGY GRADIENTS

    atom               coordinates                        gradient
                 x          y          z           x          y          z
   1 C      -0.000000   0.000000  -0.025021   -0.000000  -0.000000  -0.099157
   2 H       0.000000  -0.000000   2.383107    0.000000  -0.000000   0.111921
   3 H       1.952266   0.000000  -0.712225    0.009079   0.000000  -0.004257
   4 H      -0.976134  -1.690712  -0.712225   -0.004540  -0.007863  -0.004257
   5 H      -0.976134   1.690712  -0.712225   -0.004540   0.007863  -0.004257
   6 Cl      0.000000  -0.000000  -7.269580   -0.000000  -0.000000   0.000005

                                 NWChem SCF Module
                                 -----------------



  ao basis        = "ao basis"
  functions       =    18
  atoms           =     6
  closed shells   =    14
  open shells     =     0
  charge          =  -1.00
  wavefunction    = RHF 
  input vectors   = ./ch4cl_zts_dat.movecs
  output vectors  = ./ch4cl_zts_dat.movecs
  use symmetry    = F
  symmetry adapt  = F


 Forming initial guess at       5.8s


 Starting SCF solution at       5.8s



       Final RHF  results 
       ------------------ 

         Total SCF energy =   -494.155176140461
      One-electron energy =   -766.611091665260
      Two-electron energy =    236.014061284144
 Nuclear repulsion energy =     36.441854240655

        Time for solution =      0.0s


                              NWChem Gradients Module
                              -----------------------



                         RHF ENERGY GRADIENTS

    atom               coordinates                        gradient
                 x          y          z           x          y          z
   1 C      -0.000000   0.000000  -0.068392   -0.000000  -0.000000  -0.136654
   2 H       0.000000  -0.000000   2.563406    0.000000  -0.000000   0.141877
   3 H       1.958958  -0.000000  -0.714652    0.006214   0.000000  -0.001704
   4 H      -0.979479  -1.696507  -0.714652   -0.003107  -0.005381  -0.001704
   5 H      -0.979479   1.696507  -0.714652   -0.003107   0.005381  -0.001704
   6 Cl      0.000000  -0.000000  -7.140553    0.000000  -0.000000  -0.000110

                                 NWChem SCF Module
                                 -----------------



  ao basis        = "ao basis"
  functions       =    18
  atoms           =     6
  closed shells   =    14
  open shells     =     0
  charge          =  -1.00
  wavefunction    = RHF 
  input vectors   = ./ch4cl_zts_dat.movecs
  output vectors  = ./ch4cl_zts_dat.movecs
  use symmetry    = F
  symmetry adapt  = F


 Forming initial guess at       5.9s


 Starting SCF solution at       5.9s



       Final RHF  results 
       ------------------ 

         Total SCF energy =   -494.120244031414
      One-electron energy =   -767.193355003059
      Two-electron energy =    236.318907313810
 Nuclear repulsion energy =     36.754203657834

        Time for solution =      0.0s


                              NWChem Gradients Module
                              -----------------------



                         RHF ENERGY GRADIENTS

    atom               coordinates                        gradient
                 x          y          z           x          y          z
   1 C      -0.000000  -0.000000  -0.121671   -0.000000  -0.000000  -0.159730
   2 H       0.000000  -0.000000   2.743014    0.000000   0.000000   0.155548
   3 H       1.964963   0.000000  -0.716782    0.002216  -0.000000   0.001496
   4 H      -0.982482  -1.701708  -0.716782   -0.001108  -0.001919   0.001496
   5 H      -0.982482   1.701708  -0.716782   -0.001108   0.001919   0.001496
   6 Cl      0.000000   0.000000  -7.018504   -0.000000  -0.000000  -0.000305

                                 NWChem SCF Module
                                 -----------------



  ao basis        = "ao basis"
  functions       =    18
  atoms           =     6
  closed shells   =    14
  open shells     =     0
  charge          =  -1.00
  wavefunction    = RHF 
  input vectors   = ./ch4cl_zts_dat.movecs
  output vectors  = ./ch4cl_zts_dat.movecs
  use symmetry    = F
  symmetry adapt  = F


[...]
  output vectors  = ./ch4cl_zts_dat.movecs
  use symmetry    = F
  symmetry adapt  = F


 Forming initial guess at     326.7s


 Starting SCF solution at     326.7s



       Final RHF  results 
       ------------------ 

         Total SCF energy =   -493.934561443628
      One-electron energy =   -790.553159485404
      Two-electron energy =    246.378117898928
 Nuclear repulsion energy =     50.240480142849

        Time for solution =      0.1s


                                 NWChem SCF Module
                                 -----------------



  ao basis        = "ao basis"
  functions       =    18
  atoms           =     6
  closed shells   =    14
  open shells     =     0
  charge          =  -1.00
  wavefunction    = RHF 
  input vectors   = ./ch4cl_zts_dat.movecs
  output vectors  = ./ch4cl_zts_dat.movecs
  use symmetry    = F
  symmetry adapt  = F


 Forming initial guess at     326.8s


 Starting SCF solution at     326.8s



       Final RHF  results 
       ------------------ 

         Total SCF energy =   -493.922593788936
      One-electron energy =   -791.557274088430
      Two-electron energy =    246.389721038948
 Nuclear repulsion energy =     51.244959260546

        Time for solution =      0.1s


                                 NWChem SCF Module
                                 -----------------



  ao basis        = "ao basis"
  functions       =    18
  atoms           =     6
  closed shells   =    14
  open shells     =     0
  charge          =  -1.00
  wavefunction    = RHF 
  input vectors   = ./ch4cl_zts_dat.movecs
  output vectors  = ./ch4cl_zts_dat.movecs
  use symmetry    = F
  symmetry adapt  = F


 Forming initial guess at     326.9s


 Starting SCF solution at     326.9s



       Final RHF  results 
       ------------------ 

         Total SCF energy =   -493.915025640649
      One-electron energy =   -792.279484149186
      Two-electron energy =    246.345097756429
 Nuclear repulsion energy =     52.019360752107

        Time for solution =      0.1s


                                 NWChem SCF Module
                                 -----------------



  ao basis        = "ao basis"
  functions       =    18
  atoms           =     6
  closed shells   =    14
  open shells     =     0
  charge          =  -1.00
  wavefunction    = RHF 
  input vectors   = ./ch4cl_zts_dat.movecs
  output vectors  = ./ch4cl_zts_dat.movecs
  use symmetry    = F
  symmetry adapt  = F


 Forming initial guess at     326.9s


 Starting SCF solution at     326.9s



       Final RHF  results 
       ------------------ 

         Total SCF energy =   -493.909191825396
      One-electron energy =   -792.703982455131
      Two-electron energy =    246.225172768074
 Nuclear repulsion energy =     52.569617861661

        Time for solution =      0.1s


                                 NWChem SCF Module
                                 -----------------



  ao basis        = "ao basis"
  functions       =    18
  atoms           =     6
  closed shells   =    14
  open shells     =     0
  charge          =  -1.00
  wavefunction    = RHF 
  input vectors   = ./ch4cl_zts_dat.movecs
  output vectors  = ./ch4cl_zts_dat.movecs
  use symmetry    = F
  symmetry adapt  = F


 Forming initial guess at     327.0s


 Starting SCF solution at     327.0s



       Final RHF  results 
       ------------------ 

         Total SCF energy =   -493.904481277195
      One-electron energy =   -792.903497829061
      Two-electron energy =    246.048467952453
 Nuclear repulsion energy =     52.950548599412

        Time for solution =      0.1s


                                 NWChem SCF Module
                                 -----------------



  ao basis        = "ao basis"
  functions       =    18
  atoms           =     6
  closed shells   =    14
  open shells     =     0
  charge          =  -1.00
  wavefunction    = RHF 
  input vectors   = ./ch4cl_zts_dat.movecs
  output vectors  = ./ch4cl_zts_dat.movecs
  use symmetry    = F
  symmetry adapt  = F


 Forming initial guess at     327.0s


 Starting SCF solution at     327.0s



       Final RHF  results 
       ------------------ 

         Total SCF energy =   -493.900765497758
      One-electron energy =   -792.936118000941
      Two-electron energy =    245.836697611005
 Nuclear repulsion energy =     53.198654892179

        Time for solution =      0.1s


                                 NWChem SCF Module
                                 -----------------



  ao basis        = "ao basis"
  functions       =    18
  atoms           =     6
  closed shells   =    14
  open shells     =     0
  charge          =  -1.00
  wavefunction    = RHF 
  input vectors   = ./ch4cl_zts_dat.movecs
  output vectors  = ./ch4cl_zts_dat.movecs
  use symmetry    = F
  symmetry adapt  = F


 Forming initial guess at     327.1s


 Starting SCF solution at     327.1s



       Final RHF  results 
       ------------------ 

         Total SCF energy =   -493.897927993084
      One-electron energy =   -792.836886504981
      Two-electron energy =    245.604369138341
 Nuclear repulsion energy =     53.334589373556

        Time for solution =      0.1s


                                 NWChem SCF Module
                                 -----------------



  ao basis        = "ao basis"
  functions       =    18
  atoms           =     6
  closed shells   =    14
  open shells     =     0
  charge          =  -1.00
  wavefunction    = RHF 
  input vectors   = ./ch4cl_zts_dat.movecs
  output vectors  = ./ch4cl_zts_dat.movecs
  use symmetry    = F
  symmetry adapt  = F


 Forming initial guess at     327.2s


 Starting SCF solution at     327.2s



       Final RHF  results 
       ------------------ 

         Total SCF energy =   -493.895799650813
      One-electron energy =   -792.639165787644
      Two-electron energy =    245.363421510652
 Nuclear repulsion energy =     53.379944626179

        Time for solution =      0.1s


                                 NWChem SCF Module
                                 -----------------



  ao basis        = "ao basis"
  functions       =    18
  atoms           =     6
  closed shells   =    14
  open shells     =     0
  charge          =  -1.00
  wavefunction    = RHF 
  input vectors   = ./ch4cl_zts_dat.movecs
  output vectors  = ./ch4cl_zts_dat.movecs
  use symmetry    = F
  symmetry adapt  = F


 Forming initial guess at     327.2s


 Starting SCF solution at     327.2s



       Final RHF  results 
       ------------------ 

         Total SCF energy =   -493.894192363215
      One-electron energy =   -792.394236799508
      Two-electron energy =    245.130915580096
 Nuclear repulsion energy =     53.369128856197

        Time for solution =      0.1s


@    60 0.000927   -494.2070960   -493.9905853   -493.8929029   -493.8929029
@ The string calculation converged

@ Bead number =     1  Potential Energy =    -494.207095998342
     6
 geometry
 C                     0.00000000     0.00000000     0.00000000
 H                     0.00000000     0.00000000     1.08900000
 H                     1.02671900     0.00000000    -0.36300000
 H                    -0.51336000    -0.88916500    -0.36300000
 H                    -0.51336000     0.88916500    -0.36300000
 Cl                    0.00000000     0.00000000    -4.00000000
@ Bead number =     2  Potential Energy =    -494.207201664595
     6
 geometry
 C                    -0.00000015     0.00000000     0.00426348
 H                     0.00000055     0.00000000     1.08891028
 H                     1.01649638    -0.00000000    -0.36755102
 H                    -0.50824881    -0.88031208    -0.36754987
 H                    -0.50824881     0.88031208    -0.36754987
 Cl                    0.00000000     0.00000000    -3.82604195
@ Bead number =     3  Potential Energy =    -494.206977640733
     6
 geometry
 C                    -0.00000013     0.00000000     0.00437359
 H                     0.00000052     0.00000000     1.08913566
 H                     1.01571669    -0.00000000    -0.36920317
 H                    -0.50785888    -0.87963676    -0.36920220
 H                    -0.50785888     0.87963676    -0.36920221
 Cl                    0.00000000     0.00000000    -3.61997960
@ Bead number =     4  Potential Energy =    -494.206401179259
     6
 geometry
 C                    -0.00000010     0.00000000     0.00445766
 H                     0.00000051     0.00000000     1.08943994
 H                     1.01437055    -0.00000000    -0.37222472
 H                    -0.50718576    -0.87847096    -0.37222380
 H                    -0.50718575     0.87847096    -0.37222380
 Cl                    0.00000003     0.00000000    -3.41841210
@ Bead number =     5  Potential Energy =    -494.205083945975
     6
 geometry
 C                    -0.00000007     0.00000000     0.00444219
 H                     0.00000051     0.00000000     1.08973406
 H                     1.01203303    -0.00000000    -0.37753316
 H                    -0.50601698    -0.87644664    -0.37753209
 H                    -0.50601698     0.87644664    -0.37753209
 Cl                    0.00000007     0.00000000    -3.22424517
@ Bead number =     6  Potential Energy =    -494.202482707114
     6
 geometry
 C                    -0.00000012    -0.00000000     0.00452855
 H                    -0.00000020     0.00000000     1.09104900
 H                     1.00762374    -0.00000000    -0.38795981
 H                    -0.50381204    -0.87262780    -0.38795998
 H                    -0.50381204     0.87262780    -0.38795998
 Cl                    0.00000029     0.00000000    -3.04775755
@ Bead number =     7  Potential Energy =    -494.198235916876
     6
 geometry
 C                    -0.00000019    -0.00000000     0.00453984
 H                    -0.00000054    -0.00000000     1.10079143
 H                     1.00401324     0.00000000    -0.40845866
 H                    -0.50200671    -0.86950085    -0.40845959
 H                    -0.50200672     0.86950084    -0.40845958
 Cl                    0.00000056     0.00000000    -2.90940389
@ Bead number =     8  Potential Energy =    -494.190315782054
     6
 geometry
 C                    -0.00000022    -0.00000001     0.00451457
 H                    -0.00000036    -0.00000000     1.15172153
 H                     1.01819439     0.00000003    -0.42762125
 H                    -0.50909735    -0.88178214    -0.42762210
 H                    -0.50909743     0.88178211    -0.42762207
 Cl                    0.00000061     0.00000001    -2.82972819
@ Bead number =     9  Potential Energy =    -494.171862379199
     6
 geometry
 C                    -0.00000024    -0.00000001    -0.02429644
 H                    -0.00000028    -0.00000001     1.22853215
 H                     1.03987293     0.00000005    -0.43533410
 H                    -0.51993662    -0.90055634    -0.43533501
 H                    -0.51993677     0.90055628    -0.43533494
 Cl                    0.00000062     0.00000003    -2.79249940
@ Bead number =    10  Potential Energy =    -494.139085201143
     6
 geometry
 C                    -0.00000024    -0.00000001    -0.08855215
 H                    -0.00000024    -0.00000002     1.30358054
 H                     1.05596845     0.00000008    -0.44099028
 H                    -0.52798436    -0.91449551    -0.44099127
 H                    -0.52798460     0.91449541    -0.44099117
 Cl                    0.00000064     0.00000006    -2.77110543
@ Bead number =    11  Potential Energy =    -494.093259214006
     6
 geometry
 C                    -0.00000024    -0.00000002    -0.17625667
 H                    -0.00000021    -0.00000002     1.37642799
 H                     1.06698747     0.00000010    -0.44488324
 H                    -0.53349384    -0.92403832    -0.44488431
 H                    -0.53349418     0.92403815    -0.44488416
 Cl                    0.00000065     0.00000010    -2.75483738
@ Bead number =    12  Potential Energy =    -494.040269111437
     6
 geometry
 C                    -0.00000024    -0.00000003    -0.28078243
 H                    -0.00000017    -0.00000003     1.44958557
 H                     1.07328481     0.00000013    -0.44713288
 H                    -0.53664248    -0.92949204    -0.44713402
 H                    -0.53664292     0.92949180    -0.44713381
 Cl                    0.00000065     0.00000017    -2.74070248
@ Bead number =    13  Potential Energy =    -493.990585278925
     6
 geometry
 C                    -0.00000021    -0.00000005    -0.39451831
 H                    -0.00000013    -0.00000005     1.52544324
 H                     1.07466847     0.00000015    -0.44764973
 H                    -0.53733428    -0.93069040    -0.44765091
 H                    -0.53733483     0.93069008    -0.44765062
 Cl                    0.00000063     0.00000026    -2.72769378
@ Bead number =    14  Potential Energy =    -493.954506634327
     6
 geometry
 C                    -0.00000016    -0.00000007    -0.50807084
 H                    -0.00000008    -0.00000006     1.60264315
 H                     1.07111683     0.00000018    -0.44894480
 H                    -0.53555842    -0.92761468    -0.44894601
 H                    -0.53555909     0.92761426    -0.44894562
 Cl                    0.00000058     0.00000038    -2.71790858
@ Bead number =    15  Potential Energy =    -493.933752715046
     6
 geometry
 C                    -0.00000012    -0.00000009    -0.60826265
 H                    -0.00000003    -0.00000007     1.68343479
 H                     1.06362870     0.00000021    -0.45160836
 H                    -0.53181429    -0.92112985    -0.45160957
 H                    -0.53181512     0.92112932    -0.45160912
 Cl                    0.00000051     0.00000048    -2.71085552
@ Bead number =    16  Potential Energy =    -493.922315877388
     6
 geometry
 C                    -0.00000009    -0.00000006    -0.68749282
 H                     0.00000002    -0.00000005     1.77849932
 H                     1.05412254     0.00000026    -0.45500929
 H                    -0.52706115    -0.91289733    -0.45501046
 H                    -0.52706212     0.91289671    -0.45501009
 Cl                    0.00000046     0.00000047    -2.70355914
@ Bead number =    17  Potential Energy =    -493.914900639956
     6
 geometry
 C                    -0.00000007    -0.00000004    -0.74073234
 H                     0.00000005    -0.00000003     1.89908095
 H                     1.04539986     0.00000029    -0.45810735
 H                    -0.52269980    -0.90534329    -0.45810852
 H                    -0.52270080     0.90534263    -0.45810812
 Cl                    0.00000042     0.00000045    -2.69327014
@ Bead number =    18  Potential Energy =    -493.909124854814
     6
 geometry
 C                    -0.00000004    -0.00000002    -0.77202217
 H                     0.00000008    -0.00000001     2.04695465
 H                     1.03928540     0.00000031    -0.46030292
 H                    -0.51964256    -0.90004803    -0.46030407
 H                    -0.51964358     0.90004734    -0.46030363
 Cl                    0.00000040     0.00000042    -2.68004410
@ Bead number =    19  Potential Energy =    -493.904444190295
     6
 geometry
 C                    -0.00000005    -0.00000001    -0.78982216
 H                     0.00000009     0.00000000     2.21509332
 H                     1.03549543     0.00000031    -0.46170683
 H                    -0.51774756    -0.89676581    -0.46170789
 H                    -0.51774856     0.89676511    -0.46170743
 Cl                    0.00000038     0.00000039    -2.66622797
@ Bead number =    20  Potential Energy =    -493.900745559246
     6
 geometry
 C                    -0.00000003    -0.00000001    -0.79986269
 H                     0.00000008     0.00000001     2.39740825
 H                     1.03326113     0.00000032    -0.46253001
 H                    -0.51663038    -0.89483084    -0.46253101
 H                    -0.51663140     0.89483013    -0.46253056
 Cl                    0.00000036     0.00000038    -2.65384710
@ Bead number =    21  Potential Energy =    -493.897917580748
     6
 geometry
 C                    -0.00000003    -0.00000001    -0.80533225
 H                     0.00000008     0.00000001     2.59008679
 H                     1.03202973     0.00000031    -0.46297907
 H                    -0.51601467    -0.89376438    -0.46297999
 H                    -0.51601565     0.89376370    -0.46297959
 Cl                    0.00000036     0.00000037    -2.64404774
@ Bead number =    22  Potential Energy =    -493.895794134747
     6
 geometry
 C                    -0.00000002    -0.00000002    -0.80812435
 H                     0.00000006     0.00000001     2.79026662
 H                     1.03142701     0.00000027    -0.46322943
 H                    -0.51571333    -0.89324235    -0.46323019
 H                    -0.51571421     0.89324177    -0.46322996
 Cl                    0.00000036     0.00000034    -2.63709802
@ Bead number =    23  Potential Energy =    -493.894189220947
     6
 geometry
 C                    -0.00000005     0.00000004    -0.80925676
 H                     0.00000004    -0.00000001     2.99519966
 H                     1.03118320    -0.00000029    -0.46329089
 H                    -0.51559226    -0.89303061    -0.46329120
 H                    -0.51559133     0.89303123    -0.46329154
 Cl                    0.00000035    -0.00000036    -2.63203809
@ Bead number =    24  Potential Energy =    -493.892902871695
     6
 geometry
 C                     0.00000000     0.00000000    -0.81236976
 H                     0.00000000     0.00000000     3.18763024
 H                     1.03064800     0.00000000    -0.46344376
 H                    -0.51532400    -0.89256800    -0.46344376
 H                    -0.51532400     0.89256800    -0.46344376
 Cl                    0.00000000     0.00000000    -2.61737076



                                NWChem Input Module
                                -------------------




                                     CITATION
                                     --------
                Please cite the following reference when publishing
                           results obtained with NWChem:

                 M. Valiev, E.J. Bylaska, N. Govind, K. Kowalski,
              T.P. Straatsma, H.J.J. van Dam, D. Wang, J. Nieplocha,
                        E. Apra, T.L. Windus, W.A. de Jong
                 "NWChem: a comprehensive and scalable open-source
                  solution for large scale molecular simulations"
                      Comput. Phys. Commun. 181, 1477 (2010)
                           doi:10.1016/j.cpc.2010.04.018

                              AUTHORS & CONTRIBUTORS
                              ----------------------
      E. J. Bylaska, W. A. de Jong, N. Govind, K. Kowalski, T. P. Straatsma,
     M. Valiev, H. J. J. van Dam, D. Wang, E. Apra, T. L. Windus, J. Hammond,
    J. Autschbach, F. Aquino, J. Mullin, P. Nichols, S. Hirata, M. T. Hackler,
   Y. Zhao, P.-D. Fan, R. J. Harrison, M. Dupuis, D. M. A. Smith, K. Glaesemann,
    J. Nieplocha, V. Tipparaju, M. Krishnan, A. Vazquez-Mayagoitia, L. Jensen,
      M. Swart, Q. Wu, T. Van Voorhis, A. A. Auer, M. Nooijen, L. D. Crosby,
        E. Brown, G. Cisneros, G. I. Fann, H. Fruchtl, J. Garza, K. Hirao,
        R. Kendall, J. A. Nichols, K. Tsemekhman, K. Wolinski, J. Anchell,
       D. Bernholdt, P. Borowski, T. Clark, D. Clerc, H. Dachsel, M. Deegan,
        K. Dyall, D. Elwood, E. Glendening, M. Gutowski, A. Hess, J. Jaffe,
        B. Johnson, J. Ju, R. Kobayashi, R. Kutteh, Z. Lin, R. Littlefield,
    X. Long, B. Meng, T. Nakajima, S. Niu, L. Pollack, M. Rosing, G. Sandrone,
       M. Stave, H. Taylor, G. Thomas, J. H. van Lenthe, A. Wong, Z. Zhang.

 Total times  cpu:      317.1s     wall:      327.3s
