 argument  1 = /home/scicons/cascade/apps/nwchem-6.8/QA/tests/mp2_si2h6/mp2_si2h6.nw
  NWChem w/ OpenMP: maximum threads =  1
 


============================== echo of input deck ==============================
echo
#-
#- This test data exposed the now fixed MP2 gradients bug ...
#-
start disilane
title "disilane, Si2H6"

geometry autoz
  symmetry group d3d
  Si          0.0         0.0               1.181424
  H           0.990312   -0.990312          1.694694
end

basis spherical
  H  library aug-cc-pvtz
  Si library aug-cc-pvtz
end

mp2
  freeze atomic; print high
end

task mp2 gradient

set tng:delta 0.03
set tng:fivept t

mp2; print none; end

task mp2 gradient numerical



================================================================================


                                         
                                         
 
 
              Northwest Computational Chemistry Package (NWChem) 6.8
              ------------------------------------------------------
 
 
                    Environmental Molecular Sciences Laboratory
                       Pacific Northwest National Laboratory
                                Richland, WA 99352
 
                              Copyright (c) 1994-2017
                       Pacific Northwest National Laboratory
                            Battelle Memorial Institute
 
             NWChem is an open-source computational chemistry package
                        distributed under the terms of the
                      Educational Community License (ECL) 2.0
             A copy of the license is included with this distribution
                              in the LICENSE.TXT file
 
                                  ACKNOWLEDGMENT
                                  --------------

            This software and its documentation were developed at the
            EMSL at Pacific Northwest National Laboratory, a multiprogram
            national laboratory, operated for the U.S. Department of Energy
            by Battelle under Contract Number DE-AC05-76RL01830. Support
            for this work was provided by the Department of Energy Office
            of Biological and Environmental Research, Office of Basic
            Energy Sciences, and the Office of Advanced Scientific Computing.


           Job information
           ---------------

    hostname        = g1198
    program         = /home/scicons/cascade/apps/nwchem-6.8/bin/LINUX64/nwchem
    date            = Wed Oct  4 10:20:53 2017

    compiled        = Tue_Oct_03_10:04:36_2017
    source          = /home/scicons/cascade/apps/nwchem-6.8
    nwchem branch   = 6.8
    nwchem revision = 29529
    ga revision     = N/A
    input           = /home/scicons/cascade/apps/nwchem-6.8/QA/tests/mp2_si2h6/mp2_si2h6.nw
    prefix          = disilane.
    data base       = /scratch/disilane.db
    status          = startup
    nproc           =       64
    time left       = 112745s



           Memory information
           ------------------

    heap     =   13107200 doubles =    100.0 Mbytes
    stack    =   13107197 doubles =    100.0 Mbytes
    global   =   26214400 doubles =    200.0 Mbytes (distinct from heap & stack)
    total    =   52428797 doubles =    400.0 Mbytes
    verify   = yes
    hardfail = no 


           Directory information
           ---------------------
 
  0 permanent = /scratch
  0 scratch   = /scratch
 
 
                     0  ppn                     16
 
 
                                NWChem Input Module
                                -------------------
 
 
                                  disilane, Si2H6
                                  ---------------

 Scaling coordinates for geometry "geometry" by  1.889725989
 (inverse scale =  0.529177249)

 Turning off AUTOSYM since
 SYMMETRY directive was detected!
 

          ------
          auto-z
          ------
 
 
                             Geometry "geometry" -> ""
                             -------------------------
 
 Output coordinates in angstroms (scale by  1.889725989 to convert to a.u.)
 
  No.       Tag          Charge          X              Y              Z
 ---- ---------------- ---------- -------------- -------------- --------------
    1 Si                  14.0000     0.00000000     0.00000000     1.18142400
    2 Si                  14.0000     0.00000000     0.00000000    -1.18142400
    3 H                    1.0000     0.99031200    -0.99031200     1.69469400
    4 H                    1.0000     0.36247935     1.35279135     1.69469400
    5 H                    1.0000    -1.35279135    -0.36247935     1.69469400
    6 H                    1.0000    -0.99031200     0.99031200    -1.69469400
    7 H                    1.0000     1.35279135     0.36247935    -1.69469400
    8 H                    1.0000    -0.36247935    -1.35279135    -1.69469400
 
      Atomic Mass 
      ----------- 
 
      Si                27.976930
      H                  1.007825
 

 Effective nuclear repulsion energy (a.u.)      90.1274120146

            Nuclear Dipole moment (a.u.) 
            ----------------------------
        X                 Y               Z
 ---------------- ---------------- ----------------
     0.0000000000     0.0000000000     0.0000000000
 
      Symmetry information
      --------------------
 
 Group name             D3d       
 Group number             33
 Group order              12
 No. of unique centers     2
 
      Symmetry unique atoms
 
     1    3
 


                                Z-matrix (autoz)
                                -------- 

 Units are Angstrom for bonds and degrees for angles
 
      Type          Name      I     J     K     L     M      Value
      ----------- --------  ----- ----- ----- ----- ----- ----------
    1 Stretch                  1     2                       2.36285
    2 Stretch                  1     3                       1.49160
    3 Stretch                  1     4                       1.49160
    4 Stretch                  1     5                       1.49160
    5 Stretch                  2     6                       1.49160
    6 Stretch                  2     7                       1.49160
    7 Stretch                  2     8                       1.49160
    8 Bend                     1     2     6               110.12724
    9 Bend                     1     2     7               110.12724
   10 Bend                     1     2     8               110.12724
   11 Bend                     2     1     3               110.12724
   12 Bend                     2     1     4               110.12724
   13 Bend                     2     1     5               110.12724
   14 Bend                     3     1     4               108.80731
   15 Bend                     3     1     5               108.80731
   16 Bend                     4     1     5               108.80731
   17 Bend                     6     2     7               108.80731
   18 Bend                     6     2     8               108.80731
   19 Bend                     7     2     8               108.80731
   20 Torsion                  3     1     2     6         180.00000
   21 Torsion                  3     1     2     7         -60.00000
   22 Torsion                  3     1     2     8          60.00000
   23 Torsion                  4     1     2     6         -60.00000
   24 Torsion                  4     1     2     7          60.00000
   25 Torsion                  4     1     2     8         180.00000
   26 Torsion                  5     1     2     6          60.00000
   27 Torsion                  5     1     2     7         180.00000
   28 Torsion                  5     1     2     8         -60.00000
 
 
            XYZ format geometry
            -------------------
     8
 geometry
 Si                    0.00000000     0.00000000     1.18142400
 Si                    0.00000000     0.00000000    -1.18142400
 H                     0.99031200    -0.99031200     1.69469400
 H                     0.36247935     1.35279135     1.69469400
 H                    -1.35279135    -0.36247935     1.69469400
 H                    -0.99031200     0.99031200    -1.69469400
 H                     1.35279135     0.36247935    -1.69469400
 H                    -0.36247935    -1.35279135    -1.69469400
 
 ==============================================================================
                                internuclear distances
 ------------------------------------------------------------------------------
       center one      |      center two      | atomic units |  angstroms
 ------------------------------------------------------------------------------
    2 Si               |   1 Si               |     4.46514  |     2.36285
    3 H                |   1 Si               |     2.81872  |     1.49160
    4 H                |   1 Si               |     2.81872  |     1.49160
    5 H                |   1 Si               |     2.81872  |     1.49160
    6 H                |   2 Si               |     2.81872  |     1.49160
    7 H                |   2 Si               |     2.81872  |     1.49160
    8 H                |   2 Si               |     2.81872  |     1.49160
 ------------------------------------------------------------------------------
                         number of included internuclear distances:          7
 ==============================================================================



 ==============================================================================
                                 internuclear angles
 ------------------------------------------------------------------------------
        center 1       |       center 2       |       center 3       |  degrees
 ------------------------------------------------------------------------------
    2 Si               |   1 Si               |   3 H                |   110.13
    2 Si               |   1 Si               |   4 H                |   110.13
    2 Si               |   1 Si               |   5 H                |   110.13
    3 H                |   1 Si               |   4 H                |   108.81
    3 H                |   1 Si               |   5 H                |   108.81
    4 H                |   1 Si               |   5 H                |   108.81
    1 Si               |   2 Si               |   6 H                |   110.13
    1 Si               |   2 Si               |   7 H                |   110.13
    1 Si               |   2 Si               |   8 H                |   110.13
    6 H                |   2 Si               |   7 H                |   108.81
    6 H                |   2 Si               |   8 H                |   108.81
    7 H                |   2 Si               |   8 H                |   108.81
 ------------------------------------------------------------------------------
                            number of included internuclear angles:         12
 ==============================================================================



                      Basis "ao basis" -> "" (spherical)
                      -----
  H (Hydrogen)
  ------------
            Exponent  Coefficients 
       -------------- ---------------------------------------------------------
  1 S  3.38700000E+01  0.006068
  1 S  5.09500000E+00  0.045308
  1 S  1.15900000E+00  0.202822
 
  2 S  3.25800000E-01  1.000000
 
  3 S  1.02700000E-01  1.000000
 
  4 S  2.52600000E-02  1.000000
 
  5 P  1.40700000E+00  1.000000
 
  6 P  3.88000000E-01  1.000000
 
  7 P  1.02000000E-01  1.000000
 
  8 D  1.05700000E+00  1.000000
 
  9 D  2.47000000E-01  1.000000
 
  Si (Silicon)
  ------------
            Exponent  Coefficients 
       -------------- ---------------------------------------------------------
  1 S  2.54900000E+05  0.000063
  1 S  3.81900000E+04  0.000486
  1 S  8.69000000E+03  0.002545
  1 S  2.46200000E+03  0.010587
  1 S  8.04800000E+02  0.036879
  1 S  2.91300000E+02  0.107479
  1 S  1.13600000E+02  0.247936
  1 S  4.67500000E+01  0.390927
  1 S  1.98200000E+01  0.302026
  1 S  7.70800000E+00  0.055924
  1 S  3.34000000E+00 -0.004024
  1 S  1.40200000E+00  0.002580
  1 S  2.07000000E-01  0.000608
 
  2 S  2.54900000E+05 -0.000017
  2 S  3.81900000E+04 -0.000129
  2 S  8.69000000E+03 -0.000679
  2 S  2.46200000E+03 -0.002841
  2 S  8.04800000E+02 -0.010055
  2 S  2.91300000E+02 -0.030577
  2 S  1.13600000E+02 -0.077726
  2 S  4.67500000E+01 -0.154236
  2 S  1.98200000E+01 -0.180368
  2 S  7.70800000E+00  0.079822
  2 S  3.34000000E+00  0.547441
  2 S  1.40200000E+00  0.480119
  2 S  2.07000000E-01 -0.010700
 
  3 S  2.54900000E+05  0.000004
  3 S  3.81900000E+04  0.000033
  3 S  8.69000000E+03  0.000174
  3 S  2.46200000E+03  0.000728
  3 S  8.04800000E+02  0.002583
  3 S  2.91300000E+02  0.007864
  3 S  1.13600000E+02  0.020215
  3 S  4.67500000E+01  0.040732
  3 S  1.98200000E+01  0.049936
  3 S  7.70800000E+00 -0.024940
  3 S  3.34000000E+00 -0.190350
  3 S  1.40200000E+00 -0.318350
  3 S  2.07000000E-01  0.681180
 
  4 S  4.38700000E-01  1.000000
 
  5 S  7.94400000E-02  1.000000
 
  6 S  3.30000000E-02  1.000000
 
  7 P  4.81500000E+02  0.001920
  7 P  1.13900000E+02  0.015355
  7 P  3.62300000E+01  0.071399
  7 P  1.33400000E+01  0.213052
  7 P  5.25200000E+00  0.390354
  7 P  2.12000000E+00  0.393721
  7 P  2.52800000E-01  0.003956
 
  8 P  4.81500000E+02 -0.000405
  8 P  1.13900000E+02 -0.003359
  8 P  3.62300000E+01 -0.015286
  8 P  1.33400000E+01 -0.048922
  8 P  5.25200000E+00 -0.085501
  8 P  2.12000000E+00 -0.112137
  8 P  2.52800000E-01  0.551919
 
  9 P  8.56100000E-01  1.000000
 
 10 P  7.88900000E-02  1.000000
 
 11 P  2.37000000E-02  1.000000
 
 12 D  1.59000000E-01  1.000000
 
 13 D  4.81000000E-01  1.000000
 
 14 D  5.56000000E-02  1.000000
 
 15 F  3.36000000E-01  1.000000
 
 16 F  1.25000000E-01  1.000000
 


 Summary of "ao basis" -> "" (spherical)
 ------------------------------------------------------------------------------
       Tag                 Description            Shells   Functions and Types
 ---------------- ------------------------------  ------  ---------------------
 H                        aug-cc-pvtz                9       23   4s3p2d
 Si                       aug-cc-pvtz               16       50   6s5p3d2f



 Setting fock-build task_bf   :      -1
                    maxquartet:   10000
                    maxeri    :  129600
                    maxscr    :       0
                    intacc    : 0.0D+00
                    denscreen : T
                    dentol    : 1.0D-06

                                 NWChem SCF Module
                                 -----------------
 
 
                                  disilane, Si2H6
 
 

  ao basis        = "ao basis"
  functions       =   238
  atoms           =     8
  closed shells   =    17
  open shells     =     0
  charge          =   0.00
  wavefunction    = RHF 
  input vectors   = atomic
  output vectors  = /scratch/disilane.movecs
  use symmetry    = T
  symmetry adapt  = T


 Summary of "ao basis" -> "ao basis" (spherical)
 ------------------------------------------------------------------------------
       Tag                 Description            Shells   Functions and Types
 ---------------- ------------------------------  ------  ---------------------
 H                        aug-cc-pvtz                9       23   4s3p2d
 Si                       aug-cc-pvtz               16       50   6s5p3d2f




                  Character table for group D3d     

                  1e      2c3     3c2     1i      2s6     3si.d  
        a1g        1.000   1.000   1.000   1.000   1.000   1.000
        a1u        1.000   1.000   1.000  -1.000  -1.000  -1.000
        a2g        1.000   1.000  -1.000   1.000   1.000  -1.000
        a2u        1.000   1.000  -1.000  -1.000  -1.000   1.000
        eg         2.000  -1.000   0.000   2.000  -1.000   0.000
        eu         2.000  -1.000   0.000  -2.000   1.000   0.000
 
      Symmetry analysis of basis
      --------------------------
 
        a1g        34
        a1u         9
        a2g         9
        a2u        34
        eg         76
        eu         76
 
 
 
                         Geometry "geometry" -> "geometry"
                         ---------------------------------
 
 Output coordinates in angstroms (scale by  1.889725989 to convert to a.u.)
 
  No.       Tag          Charge          X              Y              Z
 ---- ---------------- ---------- -------------- -------------- --------------
    1 Si                  14.0000     0.00000000     0.00000000     1.18142400
    2 Si                  14.0000     0.00000000     0.00000000    -1.18142400
    3 H                    1.0000     0.99031200    -0.99031200     1.69469400
    4 H                    1.0000     0.36247935     1.35279135     1.69469400
    5 H                    1.0000    -1.35279135    -0.36247935     1.69469400
    6 H                    1.0000    -0.99031200     0.99031200    -1.69469400
    7 H                    1.0000     1.35279135     0.36247935    -1.69469400
    8 H                    1.0000    -0.36247935    -1.35279135    -1.69469400
 
      Atomic Mass 
      ----------- 
 
      Si                27.976930
      H                  1.007825
 

 Effective nuclear repulsion energy (a.u.)      90.1274120146

            Nuclear Dipole moment (a.u.) 
            ----------------------------
        X                 Y               Z
 ---------------- ---------------- ----------------
     0.0000000000     0.0000000000     0.0000000000
 
      Symmetry information
      --------------------
 
 Group name             D3d       
 Group number             33
 Group order              12
 No. of unique centers     2
 
      Symmetry unique atoms
 
     1    3
 


                                Z-matrix (autoz)
                                -------- 

 Units are Angstrom for bonds and degrees for angles
 
      Type          Name      I     J     K     L     M      Value
      ----------- --------  ----- ----- ----- ----- ----- ----------
    1 Stretch                  1     2                       2.36285
    2 Stretch                  1     3                       1.49160
    3 Stretch                  1     4                       1.49160
    4 Stretch                  1     5                       1.49160
    5 Stretch                  2     6                       1.49160
    6 Stretch                  2     7                       1.49160
    7 Stretch                  2     8                       1.49160
    8 Bend                     1     2     6               110.12724
    9 Bend                     1     2     7               110.12724
   10 Bend                     1     2     8               110.12724
   11 Bend                     2     1     3               110.12724
   12 Bend                     2     1     4               110.12724
   13 Bend                     2     1     5               110.12724
   14 Bend                     3     1     4               108.80731
   15 Bend                     3     1     5               108.80731
   16 Bend                     4     1     5               108.80731
   17 Bend                     6     2     7               108.80731
   18 Bend                     6     2     8               108.80731
   19 Bend                     7     2     8               108.80731
   20 Torsion                  3     1     2     6         180.00000
   21 Torsion                  3     1     2     7         -60.00000
   22 Torsion                  3     1     2     8          60.00000
   23 Torsion                  4     1     2     6         -60.00000
   24 Torsion                  4     1     2     7          60.00000
   25 Torsion                  4     1     2     8         180.00000
   26 Torsion                  5     1     2     6          60.00000
   27 Torsion                  5     1     2     7         180.00000
   28 Torsion                  5     1     2     8         -60.00000
 
 
                      Basis "ao basis" -> "ao basis" (spherical)
                      -----
  H (Hydrogen)
  ------------
            Exponent  Coefficients 
       -------------- ---------------------------------------------------------
  1 S  3.38700000E+01  0.006068
  1 S  5.09500000E+00  0.045308
  1 S  1.15900000E+00  0.202822
 
  2 S  3.25800000E-01  1.000000
 
  3 S  1.02700000E-01  1.000000
 
  4 S  2.52600000E-02  1.000000
 
  5 P  1.40700000E+00  1.000000
 
  6 P  3.88000000E-01  1.000000
 
  7 P  1.02000000E-01  1.000000
 
  8 D  1.05700000E+00  1.000000
 
  9 D  2.47000000E-01  1.000000
 
  Si (Silicon)
  ------------
            Exponent  Coefficients 
       -------------- ---------------------------------------------------------
  1 S  2.54900000E+05  0.000063
  1 S  3.81900000E+04  0.000486
  1 S  8.69000000E+03  0.002545
  1 S  2.46200000E+03  0.010587
  1 S  8.04800000E+02  0.036879
  1 S  2.91300000E+02  0.107479
  1 S  1.13600000E+02  0.247936
  1 S  4.67500000E+01  0.390927
  1 S  1.98200000E+01  0.302026
  1 S  7.70800000E+00  0.055924
  1 S  3.34000000E+00 -0.004024
  1 S  1.40200000E+00  0.002580
  1 S  2.07000000E-01  0.000608
 
  2 S  2.54900000E+05 -0.000017
  2 S  3.81900000E+04 -0.000129
  2 S  8.69000000E+03 -0.000679
  2 S  2.46200000E+03 -0.002841
  2 S  8.04800000E+02 -0.010055
  2 S  2.91300000E+02 -0.030577
  2 S  1.13600000E+02 -0.077726
  2 S  4.67500000E+01 -0.154236
  2 S  1.98200000E+01 -0.180368
  2 S  7.70800000E+00  0.079822
  2 S  3.34000000E+00  0.547441
  2 S  1.40200000E+00  0.480119
  2 S  2.07000000E-01 -0.010700
 
  3 S  2.54900000E+05  0.000004
  3 S  3.81900000E+04  0.000033
  3 S  8.69000000E+03  0.000174
  3 S  2.46200000E+03  0.000728
  3 S  8.04800000E+02  0.002583
  3 S  2.91300000E+02  0.007864
  3 S  1.13600000E+02  0.020215
  3 S  4.67500000E+01  0.040732
  3 S  1.98200000E+01  0.049936
  3 S  7.70800000E+00 -0.024940
  3 S  3.34000000E+00 -0.190350
  3 S  1.40200000E+00 -0.318350
  3 S  2.07000000E-01  0.681180
 
  4 S  4.38700000E-01  1.000000
 
  5 S  7.94400000E-02  1.000000
 
  6 S  3.30000000E-02  1.000000
 
  7 P  4.81500000E+02  0.001920
  7 P  1.13900000E+02  0.015355
  7 P  3.62300000E+01  0.071399
  7 P  1.33400000E+01  0.213052
  7 P  5.25200000E+00  0.390354
  7 P  2.12000000E+00  0.393721
  7 P  2.52800000E-01  0.003956
 
  8 P  4.81500000E+02 -0.000405
  8 P  1.13900000E+02 -0.003359
  8 P  3.62300000E+01 -0.015286
  8 P  1.33400000E+01 -0.048922
  8 P  5.25200000E+00 -0.085501
  8 P  2.12000000E+00 -0.112137
  8 P  2.52800000E-01  0.551919
 
  9 P  8.56100000E-01  1.000000
 
 10 P  7.88900000E-02  1.000000
 
 11 P  2.37000000E-02  1.000000
 
 12 D  1.59000000E-01  1.000000
 
 13 D  4.81000000E-01  1.000000
 
 14 D  5.56000000E-02  1.000000
 
 15 F  3.36000000E-01  1.000000
 
 16 F  1.25000000E-01  1.000000
 
 
 
    Basis function labels
    ---------------------
       No.  Atm El Type
       ---  --- -- ----
        1    1 Si s          
        2    1 Si s          
        3    1 Si s          
        4    1 Si s          
        5    1 Si s          
        6    1 Si s          
        7    1 Si px         
        8    1 Si py         
        9    1 Si pz         
       10    1 Si px         
       11    1 Si py         
       12    1 Si pz         
       13    1 Si px         
       14    1 Si py         
       15    1 Si pz         
       16    1 Si px         
       17    1 Si py         
       18    1 Si pz         
       19    1 Si px         
       20    1 Si py         
       21    1 Si pz         
       22    1 Si d -2       
       23    1 Si d -1       
       24    1 Si d  0       
       25    1 Si d  1       
       26    1 Si d  2       
       27    1 Si d -2       
       28    1 Si d -1       
       29    1 Si d  0       
       30    1 Si d  1       
       31    1 Si d  2       
       32    1 Si d -2       
       33    1 Si d -1       
       34    1 Si d  0       
       35    1 Si d  1       
       36    1 Si d  2       
       37    1 Si f -3       
       38    1 Si f -2       
       39    1 Si f -1       
       40    1 Si f  0       
       41    1 Si f  1       
       42    1 Si f  2       
       43    1 Si f  3       
       44    1 Si f -3       
       45    1 Si f -2       
       46    1 Si f -1       
       47    1 Si f  0       
       48    1 Si f  1       
       49    1 Si f  2       
       50    1 Si f  3       
       51    2 Si s          
       52    2 Si s          
       53    2 Si s          
       54    2 Si s          
       55    2 Si s          
       56    2 Si s          
       57    2 Si px         
       58    2 Si py         
       59    2 Si pz         
       60    2 Si px         
       61    2 Si py         
       62    2 Si pz         
       63    2 Si px         
       64    2 Si py         
       65    2 Si pz         
       66    2 Si px         
       67    2 Si py         
       68    2 Si pz         
       69    2 Si px         
       70    2 Si py         
       71    2 Si pz         
       72    2 Si d -2       
       73    2 Si d -1       
       74    2 Si d  0       
       75    2 Si d  1       
       76    2 Si d  2       
       77    2 Si d -2       
       78    2 Si d -1       
       79    2 Si d  0       
       80    2 Si d  1       
       81    2 Si d  2       
       82    2 Si d -2       
       83    2 Si d -1       
       84    2 Si d  0       
       85    2 Si d  1       
       86    2 Si d  2       
       87    2 Si f -3       
       88    2 Si f -2       
       89    2 Si f -1       
       90    2 Si f  0       
       91    2 Si f  1       
       92    2 Si f  2       
       93    2 Si f  3       
       94    2 Si f -3       
       95    2 Si f -2       
       96    2 Si f -1       
       97    2 Si f  0       
       98    2 Si f  1       
       99    2 Si f  2       
      100    2 Si f  3       
      101    3 H  s          
      102    3 H  s          
      103    3 H  s          
      104    3 H  s          
      105    3 H  px         
      106    3 H  py         
      107    3 H  pz         
      108    3 H  px         
      109    3 H  py         
      110    3 H  pz         
      111    3 H  px         
      112    3 H  py         
      113    3 H  pz         
      114    3 H  d -2       
      115    3 H  d -1       
      116    3 H  d  0       
      117    3 H  d  1       
      118    3 H  d  2       
      119    3 H  d -2       
      120    3 H  d -1       
      121    3 H  d  0       
      122    3 H  d  1       
      123    3 H  d  2       
      124    4 H  s          
      125    4 H  s          
      126    4 H  s          
      127    4 H  s          
      128    4 H  px         
      129    4 H  py         
      130    4 H  pz         
      131    4 H  px         
      132    4 H  py         
      133    4 H  pz         
      134    4 H  px         
      135    4 H  py         
      136    4 H  pz         
      137    4 H  d -2       
      138    4 H  d -1       
      139    4 H  d  0       
      140    4 H  d  1       
      141    4 H  d  2       
      142    4 H  d -2       
      143    4 H  d -1       
      144    4 H  d  0       
      145    4 H  d  1       
      146    4 H  d  2       
      147    5 H  s          
      148    5 H  s          
      149    5 H  s          
      150    5 H  s          
      151    5 H  px         
      152    5 H  py         
      153    5 H  pz         
      154    5 H  px         
      155    5 H  py         
      156    5 H  pz         
      157    5 H  px         
      158    5 H  py         
      159    5 H  pz         
      160    5 H  d -2       
      161    5 H  d -1       
      162    5 H  d  0       
      163    5 H  d  1       
      164    5 H  d  2       
      165    5 H  d -2       
      166    5 H  d -1       
      167    5 H  d  0       
      168    5 H  d  1       
      169    5 H  d  2       
      170    6 H  s          
      171    6 H  s          
      172    6 H  s          
      173    6 H  s          
      174    6 H  px         
      175    6 H  py         
      176    6 H  pz         
      177    6 H  px         
      178    6 H  py         
      179    6 H  pz         
      180    6 H  px         
      181    6 H  py         
      182    6 H  pz         
      183    6 H  d -2       
      184    6 H  d -1       
      185    6 H  d  0       
      186    6 H  d  1       
      187    6 H  d  2       
      188    6 H  d -2       
      189    6 H  d -1       
      190    6 H  d  0       
      191    6 H  d  1       
      192    6 H  d  2       
      193    7 H  s          
      194    7 H  s          
      195    7 H  s          
      196    7 H  s          
      197    7 H  px         
      198    7 H  py         
      199    7 H  pz         
      200    7 H  px         
      201    7 H  py         
      202    7 H  pz         
      203    7 H  px         
      204    7 H  py         
      205    7 H  pz         
      206    7 H  d -2       
      207    7 H  d -1       
      208    7 H  d  0       
      209    7 H  d  1       
      210    7 H  d  2       
      211    7 H  d -2       
      212    7 H  d -1       
      213    7 H  d  0       
      214    7 H  d  1       
      215    7 H  d  2       
      216    8 H  s          
      217    8 H  s          
      218    8 H  s          
      219    8 H  s          
      220    8 H  px         
      221    8 H  py         
      222    8 H  pz         
      223    8 H  px         
      224    8 H  py         
      225    8 H  pz         
      226    8 H  px         
      227    8 H  py         
      228    8 H  pz         
      229    8 H  d -2       
      230    8 H  d -1       
      231    8 H  d  0       
      232    8 H  d  1       
      233    8 H  d  2       
      234    8 H  d -2       
      235    8 H  d -1       
      236    8 H  d  0       
      237    8 H  d  1       
      238    8 H  d  2       

 Schwarz integral screening summary 
 ---------------------------------- 

        No. of atom pairs =      36
       No. of shell pairs =    3741

 Atomic screening 

   value      no.     value      no.     value      no.     value      no.   
  -------- ------    -------- ------    -------- ------    -------- ------   
  0.00D+00      0    1.00D-13      0    1.00D-12      0    1.00D-11      0
  1.00D-10      0    1.00D-09      0    1.00D-08      0    1.00D-07      0
  1.00D-06      0    1.00D-05      0    1.00D-04      0    1.00D-03      0
  1.00D-02      0    1.00D-01      9    1.00D+00     27    1.00D+01      0


 Shell screening 

   value      no.     value      no.     value      no.     value      no.   
  -------- ------    -------- ------    -------- ------    -------- ------   
  0.00D+00     24    1.00D-13      9    1.00D-12     18    1.00D-11      0
  1.00D-10     24    1.00D-09      0    1.00D-08     30    1.00D-07     24
  1.00D-06     31    1.00D-05    147    1.00D-04    129    1.00D-03    236
  1.00D-02    492    1.00D-01   2032    1.00D+00    545    1.00D+01      0

 

 Forming initial guess at       0.4s

 
      Superposition of Atomic Density Guess
      -------------------------------------
 
 Sum of atomic energies:        -580.68143713
 
      Non-variational initial energy
      ------------------------------

 Total energy =    -581.230945
 1-e energy   =    -983.053788
 2-e energy   =     311.695431
 HOMO         =      -0.328142
 LUMO         =       0.023070
 

 Setting fock-build task_bf   :      -1
                    maxquartet:   10000
                    maxeri    :  129600
                    maxscr    :       0
                    intacc    : 0.0D+00
                    denscreen : T
                    dentol    : 1.0D-06

 
      Symmetry analysis of molecular orbitals - initial
      -------------------------------------------------
 
  Numbering of irreducible representations: 
 
     1 a1g         2 a1u         3 a2g         4 a2u         5 eg      
     6 eu      
 
  Orbital symmetries:
 
     1 a1g         2 a2u         3 a1g         4 a2u         5 eu      
     6 eu          7 eg          8 eg          9 a1g        10 a2u     
    11 a1g        12 a2u        13 eu         14 eu         15 eg      
    16 eg         17 a1g        18 a1g        19 a2u        20 eu      
    21 eu         22 eu         23 eu         24 eg         25 eg      
    26 a1g        27 eg         28 eg         29 a2u        30 a2u     
    31 eu         32 eu         33 a1g        34 eg         35 eg      
    36 a2u        37 eu         38 eu         39 a1g        40 a2u     
    41 eg         42 eg         43 a2u        44 eu         45 eu      
    46 a1g        47 eg         48 eg         49 eu         50 eu      
    51 a1u        52 a1g        53 eg         54 eg         55 eu      
    56 eu         57 a2g        58 eg         59 eg         60 a2u     
    61 a1g        62 a2u        63 eg         64 eg         65 eu      
    66 eu         67 a1g        68 a2u        69 eg         70 eg      
    71 a1g        72 eu         73 eu         74 a2u        75 eg      
    76 eg         77 eu         78 eu         79 a1u        80 a1g     
    81 eg         82 eg         83 eu         84 eu         85 eg      
    86 eg         87 eu         88 eu         89 a2g        90 a1g     
    91 a2u        92 eu         93 eu         94 a2u        95 eg      
    96 eg         97 a1u        98 a2u        99 eu        100 eu      
   101 eg        102 eg        103 a1g       104 eg        105 eg      
   106 a1g       107 a2g       108 a2u       109 eu        110 eu      
   111 eg        112 eg        113 eu        114 eu        115 eg      
   116 eg        117 a1g       118 eg        119 eg        120 a2u     
   121 eu        122 eu        123 a1g       124 eu        125 eu      
   126 a2u       127 a1u       128 eg        129 eg        130 a2g     
   131 eu        132 eu        133 a1u       134 a1g       135 eu      
   136 eu        137 eg        138 eg        139 eg        140 eg      
   141 eu        142 eu        143 a1g       144 a2g       145 a2u     
   146 eu        147 eu        148 a2u       149 eu        150 eu      
   151 a2u       152 eg        153 eg        154 a1g       155 a2u     
   156 a1g       157 eg        158 eg        159 a1u       160 a1g     
   161 eu        162 eu        163 eg        164 eg        165 a2u     
   166 a2g       167 eg        168 eg        169 eu        170 eu      
   171 a2u       172 eg        173 eg        174 eu        175 eu      
   176 a1g       177 eg        178 eg        179 eu        180 eu      
   181 a1g       182 a2u       183 a1g       184 eu        185 eu      
   186 eg        187 eg        188 a2u       189 eg        190 eg      
   191 a2g       192 a1u       193 a1g       194 eu        195 eu      
   196 a2u       197 eu        198 eu        199 eg        200 eg      
   201 eg        202 eg        203 eu        204 eu        205 a2u     
   206 a1g       207 a1u       208 eg        209 eg        210 eu      
   211 eu        212 a2g       213 a2u       214 a1g       215 a1u     
   216 eg        217 eg        218 eu        219 eu        220 a1g     
   221 a2g       222 eu        223 eu        224 eg        225 eg      
   226 a2u       227 eu        228 eu        229 eg        230 eg      
   231 a1g       232 a2u       233 eu        234 eu        235 eg      
   236 eg        237 a1g       238 a2u     
 

 Wrote molecular orbitals to /scratch/disilane.movecs


 Starting SCF solution at       1.4s

 ready to solve ...                     0
 ready to solve ...                    33
 ready to solve ...                     2
 ready to solve ...                    16
 ready to solve ...                    48
 ready to solve ...                    34
 ready to solve ...                     3
 ready to solve ...                    17
 ready to solve ...                    50
 ready to solve ...                    37
 ready to solve ...                     5
 ready to solve ...                    18
 ready to solve ...                    51
 ready to solve ...                    38
 ready to solve ...                     4
 ready to solve ...                    19
 ready to solve ...                    56
 ready to solve ...                    39
 ready to solve ...                     6
 ready to solve ...                    20
 ready to solve ...                    59
 ready to solve ...                     7
 ready to solve ...                     8
 ready to solve ...                     9
 ready to solve ...                    10
 ready to solve ...                    11
 ready to solve ...                    12
 ready to solve ...                    40
 ready to solve ...                    13
 ready to solve ...                    21
 ready to solve ...                    61
 ready to solve ...                    41
 ready to solve ...                    14
 ready to solve ...                    22
 ready to solve ...                    62
 ready to solve ...                    43
 ready to solve ...                    15
 ready to solve ...                    23
 ready to solve ...                    63
 ready to solve ...                    45
 ready to solve ...                     1
 ready to solve ...                    24
 ready to solve ...                    49
 ready to solve ...                    32
 ready to solve ...                    25
 ready to solve ...                    52
 ready to solve ...                    36
 ready to solve ...                    26
 ready to solve ...                    53
 ready to solve ...                    42
 ready to solve ...                    27
 ready to solve ...                    54
 ready to solve ...                    44
 ready to solve ...                    28
 ready to solve ...                    55
 ready to solve ...                    46
 ready to solve ...                    29
 ready to solve ...                    57
 ready to solve ...                    47
 ready to solve ...                    30
 ready to solve ...                    58
 ready to solve ...                    35
 ready to solve ...                    31
 ready to solve ...                    60


 ----------------------------------------------
         Quadratically convergent ROHF

 Convergence threshold     :          1.000E-06
 Maximum no. of iterations :           30
 Final Fock-matrix accuracy:          1.000E-08
 ----------------------------------------------


 Wrote rohf: cfock to /scratch/disilane.cfock


              iter       energy          gnorm     gmax       time
             ----- ------------------- --------- --------- --------
                 1     -581.3380933380  4.43D-01  1.10D-01      1.6

            ----- linear solve (tol: 1.0E-02 prod-acc: 7.2E-10) -----

               iter nbas    rnorm     rnorm-scal   ratio     time
               ---- ---- ----------- ----------- --------- -------
 rohf_wrap.F: in g_x =    1              0.44277785
 rohf_wrap.F: out g_x =    1              0.11592900
                  1    1  5.5491E-13  1.2532E-12    0.0000     1.7

                              ----- Line search ------

        step       energy         lsg     num-lsg   num-lsh   lsrat    time
      ------- ---------------- --------- --------- --------- ------- --------
       0.0000    -581.33809334 -4.69D-02  0.00D+00  0.00D+00 0.0D+00      1.7

 Wrote rohf: cfock to /scratch/disilane.cfock

       1.0000    -581.36784854 -1.26D-02 -1.26D-02  3.42D-02 2.7D-01      2.2

 Wrote rohf: cfock to /scratch/disilane.cfock

       1.3685    -581.37016905  2.08D-05  2.14D-05  3.43D-02 4.4D-04      2.7

              iter       energy          gnorm     gmax       time
             ----- ------------------- --------- --------- --------
                 2     -581.3701690497  1.01D-01  2.03D-02      2.7

            ----- linear solve (tol: 1.0E-01 prod-acc: 1.6E-09) -----

               iter nbas    rnorm     rnorm-scal   ratio     time
               ---- ---- ----------- ----------- --------- -------
 rohf_wrap.F: in g_x =    1              0.10071398
 rohf_wrap.F: out g_x =    1              0.02594739
                  1    1  2.4739E-02  2.4563E-01    0.0000     3.1
 rohf_wrap.F: in g_x =    1              0.02473859
 rohf_wrap.F: out g_x =    1              0.00696523
                  2    2  6.1271E-03  6.0837E-02    0.2477     3.5

                              ----- Line search ------

        step       energy         lsg     num-lsg   num-lsh   lsrat    time
      ------- ---------------- --------- --------- --------- ------- --------
       0.0000    -581.37016905 -2.33D-03  0.00D+00  0.00D+00 0.0D+00      3.6

 Wrote rohf: cfock to /scratch/disilane.cfock

       1.0000    -581.37135779 -4.65D-05 -4.58D-05  2.29D-03 2.0D-02      4.0

              iter       energy          gnorm     gmax       time
             ----- ------------------- --------- --------- --------
                 3     -581.3713577926  6.21D-03  1.26D-03      4.0

            ----- linear solve (tol: 6.2E-03 prod-acc: 6.3E-12) -----

               iter nbas    rnorm     rnorm-scal   ratio     time
               ---- ---- ----------- ----------- --------- -------
 rohf_wrap.F: in g_x =    1              0.00620689
 rohf_wrap.F: out g_x =    1              0.00163423
                  1    1  1.6335E-03  2.6317E-01    0.0000     4.5
 rohf_wrap.F: in g_x =    1              0.00163346
 rohf_wrap.F: out g_x =    1              0.00051733
                  2    2  1.8387E-04  2.9623E-02    0.1126     4.9
 rohf_wrap.F: in g_x =    1              0.00018387
 rohf_wrap.F: out g_x =    1              0.00004304
                  3    3  3.8879E-05  6.2638E-03    0.2114     5.4
 rohf_wrap.F: in g_x =    1              0.00003888
 rohf_wrap.F: out g_x =    1              0.00001017
                  4    4  8.4308E-06  1.3583E-03    0.2168     5.8

                              ----- Line search ------

        step       energy         lsg     num-lsg   num-lsh   lsrat    time
      ------- ---------------- --------- --------- --------- ------- --------
       0.0000    -581.37135779 -1.26D-05  0.00D+00  0.00D+00 0.0D+00      5.8

 Wrote rohf: cfock to /scratch/disilane.cfock

       1.0000    -581.37136408 -1.15D-09 -5.69D-10  1.26D-05 9.1D-05      6.2

              iter       energy          gnorm     gmax       time
             ----- ------------------- --------- --------- --------
                 4     -581.3713640792  1.05D-05  3.11D-06      6.2

            ----- linear solve (tol: 9.5E-03 prod-acc: 1.6E-14) -----

               iter nbas    rnorm     rnorm-scal   ratio     time
               ---- ---- ----------- ----------- --------- -------
 rohf_wrap.F: in g_x =    1              0.00001048
 rohf_wrap.F: out g_x =    1              0.00000294
                  1    1  3.2867E-06  3.1349E-01    0.0000     6.7
 rohf_wrap.F: in g_x =    1              0.00000329
 rohf_wrap.F: out g_x =    1              0.00000099
                  2    2  6.0937E-07  5.8122E-02    0.1854     7.1
 rohf_wrap.F: in g_x =    1              0.00000061
 rohf_wrap.F: out g_x =    1              0.00000014
                  3    3  7.9195E-08  7.5537E-03    0.1300     7.6

                              ----- Line search ------

        step       energy         lsg     num-lsg   num-lsh   lsrat    time
      ------- ---------------- --------- --------- --------- ------- --------
       0.0000    -581.37136408 -3.44D-11  0.00D+00  0.00D+00 0.0D+00      7.6

 Wrote rohf: cfock to /scratch/disilane.cfock

       1.0000    -581.37136408 -4.70D-14 -9.12D-13  3.43D-11 1.4D-03      8.1

              iter       energy          gnorm     gmax       time
             ----- ------------------- --------- --------- --------
                 5     -581.3713640792  7.90D-08  2.20D-08      8.1

 Wrote molecular orbitals to /scratch/disilane.movecs



       Final RHF  results 
       ------------------ 

         Total SCF energy =   -581.371364079198
      One-electron energy =   -985.057599291006
      Two-electron energy =    313.558823197203
 Nuclear repulsion energy =     90.127412014605

        Time for solution =      7.0s


 
       Symmetry analysis of molecular orbitals - final
       -----------------------------------------------
 
  Numbering of irreducible representations: 
 
     1 a1g         2 a1u         3 a2g         4 a2u         5 eg      
     6 eu      
 
  Orbital symmetries:
 
     1 a1g         2 a2u         3 a1g         4 a2u         5 a1g     
     6 eu          7 eu          8 eg          9 eg         10 a2u     
    11 a1g        12 a2u        13 eu         14 eu         15 eg      
    16 eg         17 a1g        18 a1g        19 a2u        20 eu      
    21 eu         22 eg         23 eg         24 a1g        25 eg      
    26 eg         27 eu         28 eu         29 a2u        30 a2u     
    31 a1g        32 eu         33 eu         34 eg         35 eg      
    36 eu         37 eu         38 a2u        39 a1g        40 eg      
    41 eg         42 a2u        43 eu         44 eu         45 a2u     
    46 a1g        47 a1u        48 eg         49 eg         50 eu      
    51 eu         52 a1g        53 eg         54 eg         55 a2g     
    56 eu         57 eu         58 eg         59 eg         60 a2u     
    61 a2u        62 eg         63 eg         64 a1g        65 eu      
    66 eu         67 a1g        68 a2u        69 eg         70 eg      
    71 eu         72 eu         73 a1g        74 a2u        75 eg      
    76 eg         77 a1u        78 eu         79 eu         80 a1g     
    81 eg         82 eg         83 eu         84 eu         85 eg      
    86 eg         87 eu         88 eu         89 a2g        90 a1g     
    91 a2u        92 eu         93 eu         94 a2u        95 eg      
    96 eg         97 a1u        98 a2u        99 eu        100 eu      
   101 eg        102 eg        103 a1g       104 eg        105 eg      
   106 a1g       107 a2g       108 a2u       109 eu        110 eu      
   111 eg        112 eg        113 eu        114 eu        115 eg      
   116 eg        117 a1g       118 a2u       119 eg        120 eg      
   121 eu        122 eu        123 eu        124 eu        125 a2u     
   126 a1g       127 a1u       128 eg        129 eg        130 a2g     
   131 a1g       132 eu        133 eu        134 a1u       135 eu      
   136 eu        137 eg        138 eg        139 eg        140 eg      
   141 eu        142 eu        143 a1g       144 a2g       145 a2u     
   146 eu        147 eu        148 a2u       149 a2u       150 eu      
   151 eu        152 a1g       153 eg        154 eg        155 a2u     
   156 a1g       157 eg        158 eg        159 a1u       160 a1g     
   161 eu        162 eu        163 eg        164 eg        165 a2u     
   166 a2g       167 eg        168 eg        169 eu        170 eu      
   171 a2u       172 eg        173 eg        174 eu        175 eu      
   176 a1g       177 eg        178 eg        179 eu        180 eu      
   181 a1g       182 a2u       183 a1g       184 eu        185 eu      
   186 eg        187 eg        188 a2u       189 eg        190 eg      
   191 a2g       192 a1u       193 eu        194 eu        195 a1g     
   196 a2u       197 eu        198 eu        199 eg        200 eg      
   201 eg        202 eg        203 eu        204 eu        205 a2u     
   206 a1g       207 a1u       208 eg        209 eg        210 eu      
   211 eu        212 a2g       213 a2u       214 a1g       215 a1u     
   216 eg        217 eg        218 eu        219 eu        220 a1g     
   221 a2g       222 eu        223 eu        224 eg        225 eg      
   226 a2u       227 eu        228 eu        229 eg        230 eg      
   231 a1g       232 a2u       233 eu        234 eu        235 eg      
   236 eg        237 a1g       238 a2u     
 
             Final eigenvalues
             -----------------

              1      
    1  -68.7767
    2  -68.7767
    3   -6.1256
    4   -6.1255
    5   -4.2318
    6   -4.2315
    7   -4.2315
    8   -4.2315
    9   -4.2315
   10   -4.2311
   11   -0.7547
   12   -0.6776
   13   -0.4985
   14   -0.4985
   15   -0.4724
   16   -0.4724
   17   -0.4022
   18    0.0325
   19    0.0380
   20    0.0546
   21    0.0546
   22    0.0628
   23    0.0628
   24    0.0655
   25    0.0698
   26    0.0698
   27    0.0862
   28    0.0862
   29    0.0880
   30    0.1271
   31    0.1382
   32    0.1386
   33    0.1386
   34    0.1524
   35    0.1524
   36    0.1737
   37    0.1737
   38    0.1863
   39    0.1871
   40    0.2200
   41    0.2200
   42    0.2294
   43    0.2497
   44    0.2497
   45    0.2604
   46    0.2756
   47    0.2911
   48    0.2928
   49    0.2928
   50    0.2934
   51    0.2934
   52    0.3009
   53    0.3088
   54    0.3088
   55    0.3258
   56    0.3410
   57    0.3410
   58    0.3461
   59    0.3461
   60    0.4130
   61    0.4259
   62    0.4315
   63    0.4315
   64    0.4348
   65    0.4407
   66    0.4407
   67    0.4984
   68    0.5129
   69    0.5317
   70    0.5317
   71    0.5462
   72    0.5462
   73    0.5566
   74    0.5599
   75    0.5958
   76    0.5958
   77    0.6018
   78    0.6109
   79    0.6109
   80    0.6184
   81    0.6578
   82    0.6578
   83    0.6636
   84    0.6636
   85    0.6691
   86    0.6691
   87    0.6821
   88    0.6821
   89    0.6882
   90    0.6965
   91    0.7170
   92    0.7693
   93    0.7693
   94    0.7833
   95    0.8080
   96    0.8080
   97    0.9096
   98    0.9195
   99    0.9689
  100    0.9689
  101    0.9773
  102    0.9773
  103    0.9934
  104    1.0040
  105    1.0040
  106    1.0212
  107    1.0332
  108    1.0415
  109    1.0740
  110    1.0740
  111    1.0870
  112    1.0870
  113    1.1344
  114    1.1344
  115    1.1473
  116    1.1473
  117    1.1750
  118    1.1942
  119    1.1962
  120    1.1962
  121    1.2249
  122    1.2249
  123    1.2803
  124    1.2803
  125    1.2808
  126    1.2854
  127    1.2934
  128    1.3139
  129    1.3139
  130    1.3299
  131    1.3321
  132    1.3409
  133    1.3409
  134    1.3473
  135    1.3632
  136    1.3632
  137    1.4097
  138    1.4097
  139    1.4507
  140    1.4507
  141    1.4512
  142    1.4512
  143    1.4561
  144    1.4568
  145    1.4695
  146    1.5089
  147    1.5089
  148    1.5231
  149    1.5690
  150    1.5698
  151    1.5698
  152    1.5943
  153    1.6010
  154    1.6010
  155    1.7523
  156    1.8050
  157    1.8320
  158    1.8320
  159    1.8960
  160    1.9292
  161    1.9627
  162    1.9627
  163    1.9636
  164    1.9636
  165    1.9766
  166    2.0649
  167    2.0781
  168    2.0781
  169    2.0882
  170    2.0882
  171    2.1210
  172    2.2224
  173    2.2224
  174    2.2281
  175    2.2281
  176    2.2294
  177    3.0452
  178    3.0452
  179    3.0870
  180    3.0870
  181    3.1009
  182    3.3522
  183    3.4273
  184    3.6256
  185    3.6256
  186    3.6418
  187    3.6418
  188    3.6560
  189    3.9567
  190    3.9567
  191    3.9744
  192    3.9955
  193    4.0578
  194    4.0578
  195    4.0593
  196    4.0924
  197    4.1075
  198    4.1075
  199    4.1245
  200    4.1245
  201    4.1381
  202    4.1381
  203    4.1469
  204    4.1469
  205    4.1882
  206    4.2001
  207    4.2047
  208    4.2478
  209    4.2478
  210    4.2776
  211    4.2776
  212    4.2991
  213    4.3591
  214    4.3713
  215    4.4247
  216    4.5326
  217    4.5326
  218    4.5457
  219    4.5457
  220    4.5614
  221    4.5855
  222    4.6715
  223    4.6715
  224    4.6817
  225    4.6817
  226    4.7277
  227    4.7757
  228    4.7757
  229    4.7850
  230    4.7850
  231    4.9218
  232    4.9870
  233    5.0934
  234    5.0934
  235    5.1720
  236    5.1720
  237    7.8197
  238    8.4176
 
                       ROHF Final Molecular Orbital Analysis
                       -------------------------------------
 
 Vector    1  Occ=2.000000D+00  E=-6.877670D+01  Symmetry=a1g
              MO Center=  2.1D-23,  2.8D-23, -9.8D-17, r^2= 1.4D+00
   Bfn.  Coefficient  Atom+Function         Bfn.  Coefficient  Atom+Function  
  ----- ------------  ---------------      ----- ------------  ---------------
     1      0.707221  1 Si s                 51      0.707221  2 Si s          
 
 Vector    2  Occ=2.000000D+00  E=-6.877670D+01  Symmetry=a2u
              MO Center=  3.2D-23, -9.1D-23,  9.3D-17, r^2= 1.4D+00
   Bfn.  Coefficient  Atom+Function         Bfn.  Coefficient  Atom+Function  
  ----- ------------  ---------------      ----- ------------  ---------------
     1      0.707221  1 Si s                 51     -0.707221  2 Si s          
 
 Vector    3  Occ=2.000000D+00  E=-6.125650D+00  Symmetry=a1g
              MO Center=  1.4D-16,  2.1D-16, -2.4D-17, r^2= 1.5D+00
   Bfn.  Coefficient  Atom+Function         Bfn.  Coefficient  Atom+Function  
  ----- ------------  ---------------      ----- ------------  ---------------
     2      0.680713  1 Si s                 52      0.680713  2 Si s          
 
 Vector    4  Occ=2.000000D+00  E=-6.125513D+00  Symmetry=a2u
              MO Center=  6.5D-21,  9.7D-21, -2.8D-16, r^2= 1.5D+00
   Bfn.  Coefficient  Atom+Function         Bfn.  Coefficient  Atom+Function  
  ----- ------------  ---------------      ----- ------------  ---------------
     2      0.680624  1 Si s                 52     -0.680624  2 Si s          
 
 Vector    5  Occ=2.000000D+00  E=-4.231796D+00  Symmetry=a1g
              MO Center= -2.2D-16, -1.7D-16,  5.9D-13, r^2= 1.5D+00
   Bfn.  Coefficient  Atom+Function         Bfn.  Coefficient  Atom+Function  
  ----- ------------  ---------------      ----- ------------  ---------------
     9      0.650728  1 Si pz                59     -0.650728  2 Si pz         
 
 Vector    6  Occ=2.000000D+00  E=-4.231545D+00  Symmetry=eu
              MO Center= -1.1D-16,  1.5D-16,  3.2D-17, r^2= 1.5D+00
   Bfn.  Coefficient  Atom+Function         Bfn.  Coefficient  Atom+Function  
  ----- ------------  ---------------      ----- ------------  ---------------
     7      0.488855  1 Si px                57      0.488855  2 Si px         
     8     -0.429184  1 Si py                58     -0.429184  2 Si py         
 
 Vector    7  Occ=2.000000D+00  E=-4.231545D+00  Symmetry=eu
              MO Center= -3.6D-17, -4.1D-17, -1.5D-16, r^2= 1.5D+00
   Bfn.  Coefficient  Atom+Function         Bfn.  Coefficient  Atom+Function  
  ----- ------------  ---------------      ----- ------------  ---------------
     8      0.488855  1 Si py                58      0.488855  2 Si py         
     7      0.429184  1 Si px                57      0.429184  2 Si px         
 
 Vector    8  Occ=2.000000D+00  E=-4.231468D+00  Symmetry=eg
              MO Center=  1.4D-20,  1.1D-19,  6.9D-17, r^2= 1.5D+00
   Bfn.  Coefficient  Atom+Function         Bfn.  Coefficient  Atom+Function  
  ----- ------------  ---------------      ----- ------------  ---------------
     8      0.648248  1 Si py                58     -0.648248  2 Si py         
 
 Vector    9  Occ=2.000000D+00  E=-4.231468D+00  Symmetry=eg
              MO Center= -7.5D-20, -1.1D-20,  4.7D-16, r^2= 1.5D+00
   Bfn.  Coefficient  Atom+Function         Bfn.  Coefficient  Atom+Function  
  ----- ------------  ---------------      ----- ------------  ---------------
     7      0.648248  1 Si px                57     -0.648248  2 Si px         
 
 Vector   10  Occ=2.000000D+00  E=-4.231145D+00  Symmetry=a2u
              MO Center= -6.7D-21,  2.2D-21, -5.9D-13, r^2= 1.5D+00
   Bfn.  Coefficient  Atom+Function         Bfn.  Coefficient  Atom+Function  
  ----- ------------  ---------------      ----- ------------  ---------------
     9      0.650746  1 Si pz                59      0.650746  2 Si pz         
 
 Vector   11  Occ=2.000000D+00  E=-7.547192D-01  Symmetry=a1g
              MO Center= -5.4D-18, -3.9D-17, -7.1D-17, r^2= 3.2D+00
   Bfn.  Coefficient  Atom+Function         Bfn.  Coefficient  Atom+Function  
  ----- ------------  ---------------      ----- ------------  ---------------
     3      0.344179  1 Si s                 53      0.344179  2 Si s          
 
 Vector   12  Occ=2.000000D+00  E=-6.776002D-01  Symmetry=a2u
              MO Center=  7.4D-17, -6.2D-17,  9.7D-17, r^2= 4.3D+00
   Bfn.  Coefficient  Atom+Function         Bfn.  Coefficient  Atom+Function  
  ----- ------------  ---------------      ----- ------------  ---------------
     3      0.321354  1 Si s                 53     -0.321354  2 Si s          
     5     -0.308100  1 Si s                 55      0.308100  2 Si s          
   103      0.159395  3 H  s                126      0.159395  4 H  s          
   149      0.159395  5 H  s                172     -0.159395  6 H  s          
   195     -0.159395  7 H  s                218     -0.159395  8 H  s          
 
 Vector   13  Occ=2.000000D+00  E=-4.985240D-01  Symmetry=eu
              MO Center=  7.0D-14,  3.0D-14, -2.3D-14, r^2= 4.6D+00
   Bfn.  Coefficient  Atom+Function         Bfn.  Coefficient  Atom+Function  
  ----- ------------  ---------------      ----- ------------  ---------------
    10      0.234449  1 Si px                60      0.234449  2 Si px         
   148     -0.167624  5 H  s                194      0.167624  7 H  s          
 
 Vector   14  Occ=2.000000D+00  E=-4.985240D-01  Symmetry=eu
              MO Center=  5.9D-14,  8.6D-15, -1.6D-14, r^2= 4.6D+00
   Bfn.  Coefficient  Atom+Function         Bfn.  Coefficient  Atom+Function  
  ----- ------------  ---------------      ----- ------------  ---------------
    11      0.234449  1 Si py                61      0.234449  2 Si py         
   102     -0.155254  3 H  s                171      0.155254  6 H  s          
 
 Vector   15  Occ=2.000000D+00  E=-4.724466D-01  Symmetry=eg
              MO Center=  3.0D-14, -4.2D-14, -6.6D-14, r^2= 4.9D+00
   Bfn.  Coefficient  Atom+Function         Bfn.  Coefficient  Atom+Function  
  ----- ------------  ---------------      ----- ------------  ---------------
    11      0.250466  1 Si py                61     -0.250466  2 Si py         
   125      0.159546  4 H  s                217      0.159546  8 H  s          
 
 Vector   16  Occ=2.000000D+00  E=-4.724466D-01  Symmetry=eg
              MO Center= -4.6D-14,  1.6D-14,  7.4D-14, r^2= 4.9D+00
   Bfn.  Coefficient  Atom+Function         Bfn.  Coefficient  Atom+Function  
  ----- ------------  ---------------      ----- ------------  ---------------
    10      0.250466  1 Si px                60     -0.250466  2 Si px         
   148     -0.167498  5 H  s                194     -0.167498  7 H  s          
 
 Vector   17  Occ=2.000000D+00  E=-4.021930D-01  Symmetry=a1g
              MO Center= -7.7D-14, -4.6D-14, -1.2D-14, r^2= 3.0D+00
   Bfn.  Coefficient  Atom+Function         Bfn.  Coefficient  Atom+Function  
  ----- ------------  ---------------      ----- ------------  ---------------
    12      0.347070  1 Si pz                62     -0.347070  2 Si pz         
    18      0.183885  1 Si pz                68     -0.183885  2 Si pz         
 
 Vector   18  Occ=0.000000D+00  E= 3.247958D-02  Symmetry=a1g
              MO Center=  7.0D-15, -7.0D-15,  5.6D-15, r^2= 2.5D+01
   Bfn.  Coefficient  Atom+Function         Bfn.  Coefficient  Atom+Function  
  ----- ------------  ---------------      ----- ------------  ---------------
     6      2.510541  1 Si s                 56      2.510541  2 Si s          
     5      1.006596  1 Si s                 55      1.006596  2 Si s          
   104     -0.918544  3 H  s                127     -0.918544  4 H  s          
   150     -0.918544  5 H  s                173     -0.918544  6 H  s          
   196     -0.918544  7 H  s                219     -0.918544  8 H  s          
 
 Vector   19  Occ=0.000000D+00  E= 3.800766D-02  Symmetry=a2u
              MO Center=  3.1D-16,  1.2D-15,  1.4D-15, r^2= 3.2D+01
   Bfn.  Coefficient  Atom+Function         Bfn.  Coefficient  Atom+Function  
  ----- ------------  ---------------      ----- ------------  ---------------
     6      5.639012  1 Si s                 56     -5.639012  2 Si s          
    21     -2.167040  1 Si pz                71     -2.167040  2 Si pz         
    18     -1.719844  1 Si pz                68     -1.719844  2 Si pz         
    34      0.454894  1 Si d  0              84     -0.454894  2 Si d  0       
   103      0.308876  3 H  s                126      0.308876  4 H  s          
 
 Vector   20  Occ=0.000000D+00  E= 5.456394D-02  Symmetry=eu
              MO Center=  2.8D-15, -2.2D-16,  7.8D-16, r^2= 2.5D+01
   Bfn.  Coefficient  Atom+Function         Bfn.  Coefficient  Atom+Function  
  ----- ------------  ---------------      ----- ------------  ---------------
   127      2.868266  4 H  s                219     -2.868266  8 H  s          
   150     -1.831253  5 H  s                196      1.831253  7 H  s          
   126      1.367859  4 H  s                218     -1.367859  8 H  s          
    17     -1.199109  1 Si py                67     -1.199109  2 Si py         
   104     -1.037012  3 H  s                173      1.037012  6 H  s          
 
 Vector   21  Occ=0.000000D+00  E= 5.456394D-02  Symmetry=eu
              MO Center= -6.8D-12,  1.1D-11, -4.8D-13, r^2= 2.5D+01
   Bfn.  Coefficient  Atom+Function         Bfn.  Coefficient  Atom+Function  
  ----- ------------  ---------------      ----- ------------  ---------------
   104      2.713269  3 H  s                173     -2.713269  6 H  s          
   150     -2.254713  5 H  s                196      2.254713  7 H  s          
   103      1.293942  3 H  s                172     -1.293942  6 H  s          
    16     -1.199109  1 Si px                66     -1.199109  2 Si px         
   149     -1.075260  5 H  s                195      1.075260  7 H  s          
 
 Vector   22  Occ=0.000000D+00  E= 6.284075D-02  Symmetry=eg
              MO Center=  4.8D-12, -1.2D-11,  3.6D-13, r^2= 2.7D+01
   Bfn.  Coefficient  Atom+Function         Bfn.  Coefficient  Atom+Function  
  ----- ------------  ---------------      ----- ------------  ---------------
   104      6.292116  3 H  s                173      6.292116  6 H  s          
    19     -4.140130  1 Si px                69      4.140130  2 Si px         
    20      3.774358  1 Si py                70     -3.774358  2 Si py         
   150     -3.397893  5 H  s                196     -3.397893  7 H  s          
   127     -2.894223  4 H  s                219     -2.894223  8 H  s          
 
 Vector   23  Occ=0.000000D+00  E= 6.284075D-02  Symmetry=eg
              MO Center=  1.7D-12,  7.4D-13, -5.7D-14, r^2= 2.7D+01
   Bfn.  Coefficient  Atom+Function         Bfn.  Coefficient  Atom+Function  
  ----- ------------  ---------------      ----- ------------  ---------------
   127      5.594529  4 H  s                219      5.594529  8 H  s          
   150     -5.303735  5 H  s                196     -5.303735  7 H  s          
    20     -4.140130  1 Si py                70      4.140130  2 Si py         
    19     -3.774358  1 Si px                69      3.774358  2 Si px         
   126      1.024137  4 H  s                218      1.024137  8 H  s          
 
 Vector   24  Occ=0.000000D+00  E= 6.548016D-02  Symmetry=a1g
              MO Center=  3.1D-13, -1.4D-13,  1.6D-14, r^2= 2.7D+01
   Bfn.  Coefficient  Atom+Function         Bfn.  Coefficient  Atom+Function  
  ----- ------------  ---------------      ----- ------------  ---------------
    21      1.948663  1 Si pz                71     -1.948663  2 Si pz         
     5      1.106720  1 Si s                 55      1.106720  2 Si s          
     6      1.004097  1 Si s                 56      1.004097  2 Si s          
    34     -0.575368  1 Si d  0              84     -0.575368  2 Si d  0       
    18      0.315523  1 Si pz                68     -0.315523  2 Si pz         
 
 Vector   25  Occ=0.000000D+00  E= 6.977390D-02  Symmetry=eg
              MO Center=  1.3D-14, -3.1D-14,  9.7D-14, r^2= 3.0D+01
   Bfn.  Coefficient  Atom+Function         Bfn.  Coefficient  Atom+Function  
  ----- ------------  ---------------      ----- ------------  ---------------
    19      1.383466  1 Si px                69     -1.383466  2 Si px         
   104      1.209887  3 H  s                173      1.209887  6 H  s          
   103      1.089627  3 H  s                172      1.089627  6 H  s          
   150     -1.032226  5 H  s                196     -1.032226  7 H  s          
   149     -0.929625  5 H  s                195     -0.929625  7 H  s          
 
 Vector   26  Occ=0.000000D+00  E= 6.977390D-02  Symmetry=eg
              MO Center=  1.3D-13, -3.8D-15, -2.1D-15, r^2= 3.0D+01
   Bfn.  Coefficient  Atom+Function         Bfn.  Coefficient  Atom+Function  
  ----- ------------  ---------------      ----- ------------  ---------------
    20      1.383466  1 Si py                70     -1.383466  2 Si py         
   127      1.294484  4 H  s                219      1.294484  8 H  s          
   126      1.165816  4 H  s                218      1.165816  8 H  s          
   150     -0.801101  5 H  s                196     -0.801101  7 H  s          
    17     -0.730949  1 Si py                67      0.730949  2 Si py         
 
 Vector   27  Occ=0.000000D+00  E= 8.615734D-02  Symmetry=eu
              MO Center= -8.9D-14, -2.5D-14, -1.2D-14, r^2= 2.6D+01
   Bfn.  Coefficient  Atom+Function         Bfn.  Coefficient  Atom+Function  
  ----- ------------  ---------------      ----- ------------  ---------------
   127      8.604922  4 H  s                219     -8.604922  8 H  s          
   150     -6.417328  5 H  s                196      6.417328  7 H  s          
    20     -4.446550  1 Si py                70     -4.446550  2 Si py         
    19     -2.655275  1 Si px                69     -2.655275  2 Si px         
   104     -2.187594  3 H  s                173      2.187594  6 H  s          
 
 Vector   28  Occ=0.000000D+00  E= 8.615734D-02  Symmetry=eu
              MO Center=  6.7D-14, -2.0D-14,  1.0D-15, r^2= 2.6D+01
   Bfn.  Coefficient  Atom+Function         Bfn.  Coefficient  Atom+Function  
  ----- ------------  ---------------      ----- ------------  ---------------
   104      8.673100  3 H  s                173     -8.673100  6 H  s          
   150     -6.231062  5 H  s                196      6.231062  7 H  s          
    19     -4.446550  1 Si px                69     -4.446550  2 Si px         
    20      2.655275  1 Si py                70      2.655275  2 Si py         
   127     -2.442038  4 H  s                219      2.442038  8 H  s          
 
 Vector   29  Occ=0.000000D+00  E= 8.804169D-02  Symmetry=a2u
              MO Center=  3.1D-14, -2.8D-14,  7.8D-15, r^2= 3.2D+01
   Bfn.  Coefficient  Atom+Function         Bfn.  Coefficient  Atom+Function  
  ----- ------------  ---------------      ----- ------------  ---------------
    21      7.141612  1 Si pz                71      7.141612  2 Si pz         
   104     -5.024311  3 H  s                127     -5.024311  4 H  s          
   150     -5.024311  5 H  s                173      5.024311  6 H  s          
   196      5.024311  7 H  s                219      5.024311  8 H  s          
     5      3.606267  1 Si s                 55     -3.606267  2 Si s          
 
 Vector   30  Occ=0.000000D+00  E= 1.271165D-01  Symmetry=a2u
              MO Center=  8.5D-15, -9.5D-14, -9.2D-14, r^2= 2.2D+01
   Bfn.  Coefficient  Atom+Function         Bfn.  Coefficient  Atom+Function  
  ----- ------------  ---------------      ----- ------------  ---------------
     6     10.677588  1 Si s                 56    -10.677588  2 Si s          
    18     -3.712536  1 Si pz                68     -3.712536  2 Si pz         
    21     -2.980288  1 Si pz                71     -2.980288  2 Si pz         
     5     -1.295954  1 Si s                 55      1.295954  2 Si s          
    34      1.182513  1 Si d  0              84     -1.182513  2 Si d  0       
 
 Vector   31  Occ=0.000000D+00  E= 1.381631D-01  Symmetry=a1g
              MO Center=  1.8D-12,  1.2D-12, -1.5D-14, r^2= 1.8D+01
   Bfn.  Coefficient  Atom+Function         Bfn.  Coefficient  Atom+Function  
  ----- ------------  ---------------      ----- ------------  ---------------
     6      5.181305  1 Si s                 56      5.181305  2 Si s          
     5      3.001222  1 Si s                 55      3.001222  2 Si s          
   103     -1.693460  3 H  s                126     -1.693460  4 H  s          
   149     -1.693460  5 H  s                172     -1.693460  6 H  s          
   195     -1.693460  7 H  s                218     -1.693460  8 H  s          
 
 Vector   32  Occ=0.000000D+00  E= 1.386089D-01  Symmetry=eu
              MO Center= -1.7D-12, -2.3D-12,  5.5D-13, r^2= 1.3D+01
   Bfn.  Coefficient  Atom+Function         Bfn.  Coefficient  Atom+Function  
  ----- ------------  ---------------      ----- ------------  ---------------
   127      6.129599  4 H  s                219     -6.129599  8 H  s          
   150     -4.771678  5 H  s                196      4.771678  7 H  s          
    20     -3.132296  1 Si py                70     -3.132296  2 Si py         
    19     -2.020551  1 Si px                69     -2.020551  2 Si px         
   104     -1.357922  3 H  s                173      1.357922  6 H  s          
 
 Vector   33  Occ=0.000000D+00  E= 1.386089D-01  Symmetry=eu
              MO Center= -8.0D-13,  5.3D-13,  1.0D-14, r^2= 1.3D+01
   Bfn.  Coefficient  Atom+Function         Bfn.  Coefficient  Atom+Function  
  ----- ------------  ---------------      ----- ------------  ---------------
   104      6.293855  3 H  s                173     -6.293855  6 H  s          
   150     -4.322922  5 H  s                196      4.322922  7 H  s          
    19     -3.132296  1 Si px                69     -3.132296  2 Si px         
    20      2.020551  1 Si py                70      2.020551  2 Si py         
   127     -1.970933  4 H  s                219      1.970933  8 H  s          
 
 Vector   34  Occ=0.000000D+00  E= 1.523615D-01  Symmetry=eg
              MO Center= -3.0D-13,  6.9D-13, -1.3D-12, r^2= 1.6D+01
   Bfn.  Coefficient  Atom+Function         Bfn.  Coefficient  Atom+Function  
  ----- ------------  ---------------      ----- ------------  ---------------
   127      5.165843  4 H  s                219      5.165843  8 H  s          
    20     -4.621194  1 Si py                70      4.621194  2 Si py         
   150     -3.548770  5 H  s                196     -3.548770  7 H  s          
    19     -2.373211  1 Si px                69      2.373211  2 Si px         
    17     -2.268092  1 Si py                67      2.268092  2 Si py         
 
 Vector   35  Occ=0.000000D+00  E= 1.523615D-01  Symmetry=eg
              MO Center=  1.7D-12,  7.0D-13,  1.9D-13, r^2= 1.6D+01
   Bfn.  Coefficient  Atom+Function         Bfn.  Coefficient  Atom+Function  
  ----- ------------  ---------------      ----- ------------  ---------------
   104     -5.031384  3 H  s                173     -5.031384  6 H  s          
    19      4.621194  1 Si px                69     -4.621194  2 Si px         
   150      3.916119  5 H  s                196      3.916119  7 H  s          
    20     -2.373211  1 Si py                70      2.373211  2 Si py         
    16      2.268092  1 Si px                66     -2.268092  2 Si px         
 
 Vector   36  Occ=0.000000D+00  E= 1.736689D-01  Symmetry=eu
              MO Center=  4.1D-13, -1.3D-13, -9.5D-13, r^2= 1.5D+01
   Bfn.  Coefficient  Atom+Function         Bfn.  Coefficient  Atom+Function  
  ----- ------------  ---------------      ----- ------------  ---------------
   104      2.885746  3 H  s                173     -2.885746  6 H  s          
   150     -2.066192  5 H  s                196      2.066192  7 H  s          
    32      1.911749  1 Si d -2              82     -1.911749  2 Si d -2       
    19     -1.620823  1 Si px                69     -1.620823  2 Si px         
    16      1.272357  1 Si px                66      1.272357  2 Si px         
 
 Vector   37  Occ=0.000000D+00  E= 1.736689D-01  Symmetry=eu
              MO Center=  1.3D-13, -2.3D-13, -4.9D-13, r^2= 1.5D+01
   Bfn.  Coefficient  Atom+Function         Bfn.  Coefficient  Atom+Function  
  ----- ------------  ---------------      ----- ------------  ---------------
   127      2.859003  4 H  s                219     -2.859003  8 H  s          
   150     -2.139255  5 H  s                196      2.139255  7 H  s          
    36      1.911749  1 Si d  2              86     -1.911749  2 Si d  2       
    20     -1.620823  1 Si py                70     -1.620823  2 Si py         
    17      1.272357  1 Si py                67      1.272357  2 Si py         
 
 Vector   38  Occ=0.000000D+00  E= 1.862880D-01  Symmetry=a2u
              MO Center= -1.2D-13,  6.1D-14,  7.3D-14, r^2= 1.5D+01
   Bfn.  Coefficient  Atom+Function         Bfn.  Coefficient  Atom+Function  
  ----- ------------  ---------------      ----- ------------  ---------------
     6      6.445087  1 Si s                 56     -6.445087  2 Si s          
    21      3.325901  1 Si pz                71      3.325901  2 Si pz         
   104     -3.342215  3 H  s                127     -3.342215  4 H  s          
   150     -3.342215  5 H  s                173      3.342215  6 H  s          
   196      3.342215  7 H  s                219      3.342215  8 H  s          
 
 Vector   39  Occ=0.000000D+00  E= 1.871023D-01  Symmetry=a1g
              MO Center=  1.4D-13,  3.6D-13,  1.2D-13, r^2= 2.1D+01
   Bfn.  Coefficient  Atom+Function         Bfn.  Coefficient  Atom+Function  
  ----- ------------  ---------------      ----- ------------  ---------------
     5      6.408434  1 Si s                 55      6.408434  2 Si s          
     6     -3.246354  1 Si s                 56     -3.246354  2 Si s          
    34     -2.001223  1 Si d  0              84     -2.001223  2 Si d  0       
    21      1.668903  1 Si pz                71     -1.668903  2 Si pz         
    18      1.069143  1 Si pz                68     -1.069143  2 Si pz         
 
 Vector   40  Occ=0.000000D+00  E= 2.199532D-01  Symmetry=eg
              MO Center=  6.2D-13,  1.2D-12, -5.6D-12, r^2= 2.1D+01
   Bfn.  Coefficient  Atom+Function         Bfn.  Coefficient  Atom+Function  
  ----- ------------  ---------------      ----- ------------  ---------------
    35      3.077563  1 Si d  1              85      3.077563  2 Si d  1       
   103      1.691479  3 H  s                172      1.691479  6 H  s          
   149     -1.560355  5 H  s                195     -1.560355  7 H  s          
    19      1.411328  1 Si px                69     -1.411328  2 Si px         
    33      1.059398  1 Si d -1              83      1.059398  2 Si d -1       
 
 Vector   41  Occ=0.000000D+00  E= 2.199532D-01  Symmetry=eg
              MO Center= -1.2D-13,  2.5D-12,  1.4D-11, r^2= 2.1D+01
   Bfn.  Coefficient  Atom+Function         Bfn.  Coefficient  Atom+Function  
  ----- ------------  ---------------      ----- ------------  ---------------
    33      3.077563  1 Si d -1              83      3.077563  2 Si d -1       
   126     -1.877447  4 H  s                218     -1.877447  8 H  s          
    20     -1.411328  1 Si py                70      1.411328  2 Si py         
   127     -1.122473  4 H  s                219     -1.122473  8 H  s          
    35     -1.059398  1 Si d  1              85     -1.059398  2 Si d  1       
 
 Vector   42  Occ=0.000000D+00  E= 2.294359D-01  Symmetry=a2u
              MO Center=  2.7D-14,  6.3D-13,  6.4D-14, r^2= 1.3D+01
   Bfn.  Coefficient  Atom+Function         Bfn.  Coefficient  Atom+Function  
  ----- ------------  ---------------      ----- ------------  ---------------
     5     20.877381  1 Si s                 55    -20.877381  2 Si s          
     6     -7.085442  1 Si s                 56      7.085442  2 Si s          
   103     -5.039497  3 H  s                126     -5.039497  4 H  s          
   149     -5.039497  5 H  s                172      5.039497  6 H  s          
   195      5.039497  7 H  s                218      5.039497  8 H  s          
 
 Vector   43  Occ=0.000000D+00  E= 2.496524D-01  Symmetry=eu
              MO Center= -4.3D-12, -7.2D-12, -8.7D-12, r^2= 1.7D+01
   Bfn.  Coefficient  Atom+Function         Bfn.  Coefficient  Atom+Function  
  ----- ------------  ---------------      ----- ------------  ---------------
   126      5.286245  4 H  s                218     -5.286245  8 H  s          
   149     -4.728484  5 H  s                195      4.728484  7 H  s          
    17     -3.650358  1 Si py                67     -3.650358  2 Si py         
    16     -3.008054  1 Si px                66     -3.008054  2 Si px         
   127      2.116142  4 H  s                219     -2.116142  8 H  s          
 
 Vector   44  Occ=0.000000D+00  E= 2.496524D-01  Symmetry=eu
              MO Center= -4.1D-13, -1.5D-12,  2.2D-12, r^2= 1.7D+01
   Bfn.  Coefficient  Atom+Function         Bfn.  Coefficient  Atom+Function  
  ----- ------------  ---------------      ----- ------------  ---------------
   103      5.782006  3 H  s                172     -5.782006  6 H  s          
    16     -3.650358  1 Si px                66     -3.650358  2 Si px         
   149     -3.374038  5 H  s                195      3.374038  7 H  s          
    17      3.008054  1 Si py                67      3.008054  2 Si py         
   126     -2.407968  4 H  s                218      2.407968  8 H  s          
 
 Vector   45  Occ=0.000000D+00  E= 2.604477D-01  Symmetry=a2u
              MO Center=  6.9D-15,  1.4D-12, -7.3D-14, r^2= 1.7D+01
   Bfn.  Coefficient  Atom+Function         Bfn.  Coefficient  Atom+Function  
  ----- ------------  ---------------      ----- ------------  ---------------
     6      9.808857  1 Si s                 56     -9.808857  2 Si s          
    18     -7.143458  1 Si pz                68     -7.143458  2 Si pz         
    21     -4.505372  1 Si pz                71     -4.505372  2 Si pz         
    34      2.803395  1 Si d  0              84     -2.803395  2 Si d  0       
   103      2.106699  3 H  s                126      2.106699  4 H  s          
 
 Vector   46  Occ=0.000000D+00  E= 2.756387D-01  Symmetry=a1g
              MO Center= -3.4D-12, -4.3D-12, -1.6D-14, r^2= 1.4D+01
   Bfn.  Coefficient  Atom+Function         Bfn.  Coefficient  Atom+Function  
  ----- ------------  ---------------      ----- ------------  ---------------
     5     13.678519  1 Si s                 55     13.678519  2 Si s          
     6     -3.865224  1 Si s                 56     -3.865224  2 Si s          
   103     -3.666936  3 H  s                126     -3.666936  4 H  s          
   149     -3.666936  5 H  s                172     -3.666936  6 H  s          
   195     -3.666936  7 H  s                218     -3.666936  8 H  s          
 
 Vector   47  Occ=0.000000D+00  E= 2.911262D-01  Symmetry=a1u
              MO Center= -2.8D-14, -1.9D-13,  5.6D-17, r^2= 1.2D+01
   Bfn.  Coefficient  Atom+Function         Bfn.  Coefficient  Atom+Function  
  ----- ------------  ---------------      ----- ------------  ---------------
   134      1.236564  4 H  px               158      1.236564  5 H  py         
   204      1.236564  7 H  py               226      1.236564  8 H  px         
   111     -0.905228  3 H  px               112     -0.905228  3 H  py         
   180     -0.905228  6 H  px               181     -0.905228  6 H  py         
    44     -0.346516  1 Si f -3              50     -0.346516  1 Si f  3       
 
[...]
  234   -0.0000
  235   -0.0000
  236   -0.0000
  237   -0.0000
  238   -0.0000

 Wrote molecular orbitals to /scratch/disilane.mp2nos

 
  MP2 natural orbitals output to /scratch/disilane.mp2nos
 

 Setting fock-build task_bf   :      -1
                    maxquartet:   10000
                    maxeri    :  129600
                    maxscr    :       0
                    intacc    : 0.0D+00
                    denscreen : T
                    dentol    : 1.0D-06


 Schwarz integral screening summary 
 ---------------------------------- 

        No. of atom pairs =      36
       No. of shell pairs =    3741

 Atomic screening 

   value      no.     value      no.     value      no.     value      no.   
  -------- ------    -------- ------    -------- ------    -------- ------   
  0.00D+00      0    1.00D-13      0    1.00D-12      0    1.00D-11      0
  1.00D-10      0    1.00D-09      0    1.00D-08      0    1.00D-07      0
  1.00D-06      0    1.00D-05      0    1.00D-04      0    1.00D-03      0
  1.00D-02      0    1.00D-01      9    1.00D+00     27    1.00D+01      0


 Shell screening 

   value      no.     value      no.     value      no.     value      no.   
  -------- ------    -------- ------    -------- ------    -------- ------   
  0.00D+00     24    1.00D-13      9    1.00D-12     18    1.00D-11      0
  1.00D-10     24    1.00D-09      0    1.00D-08     30    1.00D-07     24
  1.00D-06     31    1.00D-05    147    1.00D-04    129    1.00D-03    236
  1.00D-02    492    1.00D-01   2032    1.00D+00    545    1.00D+01      0

 

 Wrote scratch to /scratch/disilane.w_a_ao.00


 Wrote scratch to /scratch/disilane.w_b_ao.00

 
  Non-separable gradient
 
        X              Y              Z
    0.10875203     0.14700958     0.20545166
   -0.01270348     0.36242943     0.20259976
    0.00616373     0.00204031     0.01026482
   -0.02117074     0.02795921     0.09067027
    0.18176541     0.13736686    -0.32426193
    0.01522651    -0.24557591    -0.06274393
   -0.17817501     0.03299181     0.66331070
   -0.09985845    -0.46422128    -0.78529133

  Using symmetry

 Read molecular orbitals from /scratch/disilane.movecs


 Read scratch from /scratch/disilane.w_a_ao.00


 Read scratch from /scratch/disilane.p_a_ao.00


 Schwarz integral screening summary 
 ---------------------------------- 

        No. of atom pairs =      36
       No. of shell pairs =    3741

 Atomic screening 

   value      no.     value      no.     value      no.     value      no.   
  -------- ------    -------- ------    -------- ------    -------- ------   
  0.00D+00      0    1.00D-13      0    1.00D-12      0    1.00D-11      0
  1.00D-10      0    1.00D-09      0    1.00D-08      0    1.00D-07      0
  1.00D-06      0    1.00D-05      0    1.00D-04      0    1.00D-03      0
  1.00D-02      0    1.00D-01      9    1.00D+00     27    1.00D+01      0


 Shell screening 

   value      no.     value      no.     value      no.     value      no.   
  -------- ------    -------- ------    -------- ------    -------- ------   
  0.00D+00     24    1.00D-13      9    1.00D-12     18    1.00D-11      0
  1.00D-10     24    1.00D-09      0    1.00D-08     30    1.00D-07     24
  1.00D-06     31    1.00D-05    147    1.00D-04    129    1.00D-03    236
  1.00D-02    492    1.00D-01   2032    1.00D+00    545    1.00D+01      0

 
nuclear repulsion gradient  
     0.000000    -0.000000    -9.045027
    -0.000000     0.000000     9.045027
    -1.358908     1.358908    -1.000420
    -0.497395    -1.856303    -1.000420
     1.856303     0.497395    -1.000420
     1.358908    -1.358908     1.000420
    -1.856303    -0.497395     1.000420
     0.497395     1.856303     1.000420

weighted density gradient  
    -0.068970    -0.257401    -0.303966
     0.046439     0.173311    -0.260022
     0.000000     0.000000     0.000000
     0.005173     0.019307     0.027836
    -0.020814     0.020814     0.081639
     0.000000     0.000000     0.000000
    -0.450337    -0.450337     0.000000
     0.488510     0.494306     0.454512

kinetic energy gradient  
     0.416448     1.927742    24.969650
     3.113891    15.454255   -13.005658
     0.290334    -0.215213     0.817015
     0.041255     0.165332     0.443660
    -0.291331    -0.080790     0.519631
    -2.137802     2.405062    -1.077573
     6.937612     4.020117    -1.728702
    -8.370408   -23.676506   -10.938023

2-electron gradient  
    -0.517888    -1.807311   -14.641815
    -2.734836   -13.323088     5.198094
    -0.084810     0.031749    -0.016193
    -0.062704    -0.021601     0.168533
     0.361832     0.120876    -0.034632
     0.122232    -0.083119     0.024041
    -3.842520    -2.884556     0.660885
     6.758695    17.967049     8.641087

mp2 non-separable gradient
    -0.108752    -0.147010    -0.205452
     0.012703    -0.362429    -0.202600
    -0.006164    -0.002040    -0.010265
     0.021171    -0.027959    -0.090670
    -0.181765    -0.137367     0.324262
    -0.015227     0.245576     0.062744
     0.178175    -0.032992    -0.663311
     0.099858     0.464221     0.785291

total mp2 gradient
     0.000000    -0.000000    -0.000725
    -0.000000     0.000000     0.000725
     0.002533    -0.002533     0.001224
     0.000927     0.003460     0.001224
    -0.003460    -0.000927     0.001224
    -0.002533     0.002533    -0.001224
     0.003460     0.000927    -0.001224
    -0.000927    -0.003460    -0.001224



                         mp2 ENERGY GRADIENTS

    atom               coordinates                        gradient
                 x          y          z           x          y          z
   1 Si      0.000000   0.000000   2.232568    0.000000  -0.000000  -0.000725
   2 Si      0.000000   0.000000  -2.232568   -0.000000   0.000000   0.000725
   3 H       1.871418  -1.871418   3.202507    0.002533  -0.002533   0.001224
   4 H       0.684987   2.556405   3.202507    0.000927   0.003460   0.001224
   5 H      -2.556405  -0.684987   3.202507   -0.003460  -0.000927   0.001224
   6 H      -1.871418   1.871418  -3.202507   -0.002533   0.002533  -0.001224
   7 H       2.556405   0.684987  -3.202507    0.003460   0.000927  -0.001224
   8 H      -0.684987  -2.556405  -3.202507   -0.000927  -0.003460  -0.001224
 
                 ----------------------------------------
                 |  Time  |  1-e(secs)   |  2-e(secs)   |
                 ----------------------------------------
                 |  CPU   |       0.01   |       0.80   |
                 ----------------------------------------
                 |  WALL  |       0.01   |       1.07   |
                 ----------------------------------------
 -----------------------
 Performance information
 -----------------------

 Timer overhead =  0.00D+00 seconds/call

               Nr. of calls         CPU time (s)                 Wall time (s)                GFlops
             ---------------    -------------------     ------------------------------   -------------------
Name         Min   Avg   Max    Min     Avg     Max     Min     Avg     Max   Mx/calls   Min     Max     Sum
mp2: moin     1     1     1    1.8     2.0     2.0      2.1     2.1     2.1     2.1      0.0     0.0     0.0   
mp2: make     1     1     1   0.10    0.15    0.15     0.15    0.15    0.15    0.15      0.0     0.0     0.0   
mp2: pija     1     1     1   5.00E-3 5.92E-3 6.00E-3  6.04E-3 6.05E-3 6.27E-3 6.27E-3   0.0     0.0     0.0   
mp2: wija     1     1     1   5.00E-3 6.45E-3 7.00E-3  6.46E-3 6.47E-3 6.48E-3 6.48E-3   0.0     0.0     0.0   
mp2: lai      1     1     1   0.17    0.17    0.17     0.17    0.17    0.17    0.17      0.0     0.0     0.0   
mp2: back     1     1     1   5.60E-2 6.44E-2 6.60E-2  6.54E-2 6.54E-2 6.54E-2 6.54E-2   0.0     0.0     0.0   
mp2: nons     1     1     1   0.64     1.1     1.9     0.64     1.1     1.9     1.9      0.0     0.0     0.0   
mp2: laif     1     1     1   0.80    0.82    0.82     0.82    0.82    0.82    0.82      0.0     0.0     0.0   
mp2: cphf     1     1     1    3.2     3.3     3.3      3.3     3.3     3.3     3.3      0.0     0.0     0.0   
mp2: wijf     1     1     1   0.80    0.81    0.81     0.81    0.81    0.81    0.81      0.0     0.0     0.0   
mp2: sep      1     1     1   0.90     1.2     1.2      1.2     1.2     1.2     1.2      0.0     0.0     0.0   
mp2: tota     1     1     1    10.     11.     11.      11.     11.     11.     11.      0.0     0.0     0.0   

 The average no. of pstat calls per process was 1.20D+01
 with a timing overhead of 0.00D+00s


 Task  times  cpu:       18.4s     wall:       19.4s
 
 
                                NWChem Input Module
                                -------------------
 
 
                         NWChem Numerical Gradients Module
                         ---------------------------------
 
 
 No. of totally-symmetric internal modes =   3

  mp2_memr nvloc                      4
  nvloc new                      4
  vrange nnbf                  27862
  mp2_eaftype                     10  avail_ma_in_mb                    198
 EAF : mp2_eaftype filesize          10     970295.
  mp2_eaf for mointskh                      10
  mp2_eaftype                     10  avail_ma_in_mb                    189
 EAF : mp2_eaftype filesize          10     970295.
  mp2_eaf for kh                     10
 Reference energy        -581.64080496


 Saving state for mp2 with suffix numg
        /scratch/disilane.movecs
 
 Finite difference step  3.00000D-02
 Use five point formula T

  mp2_memr nvloc                      4
  nvloc new                      4
  vrange nnbf                  27862
  mp2_eaftype                     10  avail_ma_in_mb                    198
 EAF : mp2_eaftype filesize          10     970295.
  mp2_eaf for mointskh                      10
  mp2_eaftype                     10  avail_ma_in_mb                    189
 EAF : mp2_eaftype filesize          10     970295.
  mp2_eaf for kh                     10
 step   1 +2        -581.64053715
  mp2_memr nvloc                      4
  nvloc new                      4
  vrange nnbf                  27862
  mp2_eaftype                     10  avail_ma_in_mb                    198
 EAF : mp2_eaftype filesize          10     970295.
  mp2_eaf for mointskh                      10
  mp2_eaftype                     10  avail_ma_in_mb                    189
 EAF : mp2_eaftype filesize          10     970295.
  mp2_eaf for kh                     10
 step   1 +1        -581.64069303
  mp2_memr nvloc                      4
  nvloc new                      4
  vrange nnbf                  27862
  mp2_eaftype                     10  avail_ma_in_mb                    198
 EAF : mp2_eaftype filesize          10     970295.
  mp2_eaf for mointskh                      10
  mp2_eaftype                     10  avail_ma_in_mb                    189
 EAF : mp2_eaftype filesize          10     970295.
  mp2_eaf for kh                     10
 step   1 -1        -581.64087323
  mp2_memr nvloc                      4
  nvloc new                      4
  vrange nnbf                  27862
  mp2_eaftype                     10  avail_ma_in_mb                    198
 EAF : mp2_eaftype filesize          10     970295.
  mp2_eaf for mointskh                      10
  mp2_eaftype                     10  avail_ma_in_mb                    189
 EAF : mp2_eaftype filesize          10     970295.
  mp2_eaf for kh                     10
 step   1 -2        -581.64089816
            gradient         0.003002 (3pt was  0.003003)
  mp2_memr nvloc                      4
  nvloc new                      4
  vrange nnbf                  27862
  mp2_eaftype                     10  avail_ma_in_mb                    198
 EAF : mp2_eaftype filesize          10     970295.
  mp2_eaf for mointskh                      10
  mp2_eaftype                     10  avail_ma_in_mb                    189
 EAF : mp2_eaftype filesize          10     970295.
  mp2_eaf for kh                     10
 step   2 +2        -581.63997925
  mp2_memr nvloc                      4
  nvloc new                      4
  vrange nnbf                  27862
  mp2_eaftype                     10  avail_ma_in_mb                    198
 EAF : mp2_eaftype filesize          10     970295.
  mp2_eaf for mointskh                      10
  mp2_eaftype                     10  avail_ma_in_mb                    189
 EAF : mp2_eaftype filesize          10     970295.
  mp2_eaf for kh                     10
 step   2 +1        -581.64046630
  mp2_memr nvloc                      4
  nvloc new                      4
  vrange nnbf                  27862
  mp2_eaftype                     10  avail_ma_in_mb                    198
 EAF : mp2_eaftype filesize          10     970295.
  mp2_eaf for mointskh                      10
  mp2_eaftype                     10  avail_ma_in_mb                    189
 EAF : mp2_eaftype filesize          10     970295.
  mp2_eaf for kh                     10
 step   2 -1        -581.64099143
  mp2_memr nvloc                      4
  nvloc new                      4
  vrange nnbf                  27862
  mp2_eaftype                     10  avail_ma_in_mb                    198
 EAF : mp2_eaftype filesize          10     970295.
  mp2_eaf for mointskh                      10
  mp2_eaftype                     10  avail_ma_in_mb                    189
 EAF : mp2_eaftype filesize          10     970295.
  mp2_eaf for kh                     10
 step   2 -2        -581.64102179
            gradient         0.008774 (3pt was  0.008752)
  mp2_memr nvloc                      4
  nvloc new                      4
  vrange nnbf                  27862
  mp2_eaftype                     10  avail_ma_in_mb                    198
 EAF : mp2_eaftype filesize          10     970295.
  mp2_eaf for mointskh                      10
  mp2_eaftype                     10  avail_ma_in_mb                    189
 EAF : mp2_eaftype filesize          10     970295.
  mp2_eaf for kh                     10
 step   3 +2        -581.64029191
  mp2_memr nvloc                      4
  nvloc new                      4
  vrange nnbf                  27862
  mp2_eaftype                     10  avail_ma_in_mb                    198
 EAF : mp2_eaftype filesize          10     970295.
  mp2_eaf for mointskh                      10
  mp2_eaftype                     10  avail_ma_in_mb                    189
 EAF : mp2_eaftype filesize          10     970295.
  mp2_eaf for kh                     10
 step   3 +1        -581.64068923
  mp2_memr nvloc                      4
  nvloc new                      4
  vrange nnbf                  27862
  mp2_eaftype                     10  avail_ma_in_mb                    198
 EAF : mp2_eaftype filesize          10     970295.
  mp2_eaf for mointskh                      10
  mp2_eaftype                     10  avail_ma_in_mb                    189
 EAF : mp2_eaftype filesize          10     970295.
  mp2_eaf for kh                     10
 step   3 -1        -581.64062195
  mp2_memr nvloc                      4
  nvloc new                      4
  vrange nnbf                  27862
  mp2_eaftype                     10  avail_ma_in_mb                    198
 EAF : mp2_eaftype filesize          10     970295.
  mp2_eaf for mointskh                      10
  mp2_eaftype                     10  avail_ma_in_mb                    189
 EAF : mp2_eaftype filesize          10     970295.
  mp2_eaf for kh                     10
 step   3 -2        -581.64012218
            gradient        -0.001024 (3pt was -0.001121)


                         MP2 ENERGY GRADIENTS

    atom               coordinates                        gradient
                 x          y          z           x          y          z
   1 Si      0.000000   0.000000   2.232568    0.000000   0.000000  -0.000724
   2 Si      0.000000   0.000000  -2.232568    0.000000   0.000000   0.000724
   3 H       1.871418  -1.871418   3.202507    0.002533  -0.002533   0.001225
   4 H       0.684987   2.556405   3.202507    0.000927   0.003460   0.001225
   5 H      -2.556405  -0.684987   3.202507   -0.003460  -0.000927   0.001225
   6 H      -1.871418   1.871418  -3.202507   -0.002533   0.002533  -0.001225
   7 H       2.556405   0.684987  -3.202507    0.003460   0.000927  -0.001225
   8 H      -0.684987  -2.556405  -3.202507   -0.000927  -0.003460  -0.001225
 
 

 Deleting state for mp2 with suffix numg
        /scratch/disilane.movecs
 

 Task  times  cpu:       86.0s     wall:       89.3s
 
 
                                NWChem Input Module
                                -------------------
 
 
 Summary of allocated global arrays
-----------------------------------
  No active global arrays



                         GA Statistics for process    0
                         ------------------------------

       create   destroy   get      put      acc     scatter   gather  read&inc
calls: 4055     4055     2.15e+05 2.38e+04 1.06e+05    0        0     3337     
number of processes/call 2.02e+00 2.98e+00 1.48e+00 0.00e+00 0.00e+00
bytes total:             8.31e+08 3.35e+08 4.03e+08 0.00e+00 0.00e+00 2.67e+04
bytes remote:            7.78e+08 3.03e+08 3.48e+08 0.00e+00 0.00e+00 0.00e+00
Max memory consumed for GA by this process: 23689064 bytes
 
MA_summarize_allocated_blocks: starting scan ...
MA_summarize_allocated_blocks: scan completed: 0 heap blocks, 0 stack blocks
MA usage statistics:

	allocation statistics:
					      heap	     stack
					      ----	     -----
	current number of blocks	         0	         0
	maximum number of blocks	        24	        36
	current total bytes		         0	         0
	maximum total bytes		  32020016	  43566344
	maximum total K-bytes		     32021	     43567
	maximum total M-bytes		        33	        44
 
 
                                     CITATION
                                     --------
                Please cite the following reference when publishing
                           results obtained with NWChem:
 
                 M. Valiev, E.J. Bylaska, N. Govind, K. Kowalski,
              T.P. Straatsma, H.J.J. van Dam, D. Wang, J. Nieplocha,
                        E. Apra, T.L. Windus, W.A. de Jong
                 "NWChem: a comprehensive and scalable open-source
                  solution for large scale molecular simulations"
                      Comput. Phys. Commun. 181, 1477 (2010)
                           doi:10.1016/j.cpc.2010.04.018
 
                                      AUTHORS
                                      -------
          E. Apra, E. J. Bylaska, W. A. de Jong, N. Govind, K. Kowalski,
       T. P. Straatsma, M. Valiev, H. J. J. van Dam, D. Wang, T. L. Windus,
        J. Hammond, J. Autschbach, K. Bhaskaran-Nair, J. Brabec, K. Lopata,
       S. A. Fischer, S. Krishnamoorthy, W. Ma, M. Klemm, O. Villa, Y. Chen,
    V. Anisimov, F. Aquino, S. Hirata, M. T. Hackler, V. Konjkov, T. Risthaus,
       M. Malagoli, A. Marenich, A. Otero-de-la-Roza, J. Mullin, P. Nichols,
      R. Peverati, J. Pittner, Y. Zhao, P.-D. Fan, A. Fonari, M. Williamson,
      R. J. Harrison, J. R. Rehr, M. Dupuis, D. Silverstein, D. M. A. Smith,
            J. Nieplocha, V. Tipparaju, M. Krishnan, B. E. Van Kuiken,
        A. Vazquez-Mayagoitia, L. Jensen, M. Swart, Q. Wu, T. Van Voorhis,
     A. A. Auer, M. Nooijen, L. D. Crosby, E. Brown, G. Cisneros, G. I. Fann,
   H. Fruchtl, J. Garza, K. Hirao, R. A. Kendall, J. A. Nichols, K. Tsemekhman,
    K. Wolinski, J. Anchell, D. E. Bernholdt, P. Borowski, T. Clark, D. Clerc,
   H. Dachsel, M. J. O. Deegan, K. Dyall, D. Elwood, E. Glendening, M. Gutowski,
   A. C. Hess, J. Jaffe, B. G. Johnson, J. Ju, R. Kobayashi, R. Kutteh, Z. Lin,
   R. Littlefield, X. Long, B. Meng, T. Nakajima, S. Niu, L. Pollack, M. Rosing,
   K. Glaesemann, G. Sandrone, M. Stave, H. Taylor, G. Thomas, J. H. van Lenthe,
                               A. T. Wong, Z. Zhang.

 Total times  cpu:      104.5s     wall:      109.0s
