ARMCI configured for 4 cluster nodes
 argument  1 = n2_ccsd.nw
 


============================== echo of input deck ==============================
echo


start n2

# Optimize the structure of N2 at MP2, CCSD and CCSD(T)
# Note that there are not (yet) analytic derivatives for
# CCSD or CCSD(T) so this proceeds by finite difference
# of the energy.

geometry
  symmetry d2h
  n 0 0 -0.5
  n 0 0  0.5
end

#print low

basis spherical
  n library cc-pvdz
end

scf
  lock
end

mp2
  freeze core atomic
  tight
end

ccsd
  freeze core atomic
  thresh 1e-8
end

driver
clear
end
set tolguess 1e-8
task mp2 optimize

task ccsd optimize

task ccsd(t) optimize



================================================================================


                                         
                                         
 
 
              Northwest Computational Chemistry Package (NWChem) 4.5
              ------------------------------------------------------
 
 
                    Environmental Molecular Sciences Laboratory
                       Pacific Northwest National Laboratory
                                Richland, WA 99352
 
                                         
                                         
 
 
                     COPYRIGHT (C) 1994, 1995, 1996, 1997, 1998,
                            1999, 2000, 2001, 2002, 2003
                        Pacific Northwest National Laboratory,
                             Battelle Memorial Institute.
 
                            >>> All Rights Reserved <<<
 
 
                                    DISCLAIMER
                                    ----------

            This material was prepared as an account of work sponsored
            by an agency of the United States Government.  Neither the
            United States Government nor the United States Department
            of Energy, nor Battelle, nor any of their employees, MAKES
            ANY WARRANTY, EXPRESS OR IMPLIED, OR ASSUMES ANY LEGAL
            LIABILITY OR RESPONSIBILITY FOR THE ACCURACY, COMPLETENESS,
            OR USEFULNESS OF ANY INFORMATION, APPARATUS, PRODUCT,
            SOFTWARE, OR PROCESS DISCLOSED, OR REPRESENTS THAT ITS USE
            WOULD NOT INFRINGE PRIVATELY OWNED RIGHTS.


                                    LIMITED USE
                                    -----------

            This software (including any documentation) is being made
            available to you for your internal use only, solely for use
            in performance of work directly for the U.S. Federal
            Government or work under contracts with the U.S. Department
            of Energy or other U.S. Federal Government agencies.  This
            software is a version which has not yet been evaluated and
            cleared for commercialization.  Adherence to this notice
            may be necessary for the author, Battelle Memorial
            Institute, to successfully assert copyright in and
            commercialize this software. This software is not intended
            for duplication or distribution to third parties without
            the permission of the Manager of Software Products at
            Pacific Northwest National Laboratory, Richland,
            Washington, 99352.


                                  ACKNOWLEDGMENT
                                  --------------

            This software and its documentation were produced with
            Government support under Contract Number DE-AC06-76RLO-1830
            awarded by the United States Department of Energy.  The
            Government retains a paid-up non-exclusive, irrevocable
            worldwide license to reproduce, prepare derivative works,
            perform publicly and display publicly by or for the
            Government, including the right to distribute to other
            Government contractors.


           Job information
           ---------------

    hostname      = ng60
    program       = /home/edo/nwchem-4.5/bin/LINUX64/nwchem
    date          = Mon Apr  7 11:11:30 2003

    compiled      = Fri Apr  4 09:20:15 PST 2003
    source        = /home/edo/nwchem-4.5
    nwchem branch = Development
    input         = n2_ccsd.nw
    prefix        = n2.
    data base     = ./n2.db
    status        = startup
    nproc         =    8
    time left     =     -1s



           Memory information
           ------------------

    heap      =   91750396 doubles =    700.0 Mbytes
    stack     =   91750393 doubles =    700.0 Mbytes
    global    =   52428800 doubles =    400.0 Mbytes (distinct from heap & stack)
    total     =  235929589 doubles =   1800.0 Mbytes
    verify    = yes
    hardfail  = no 


           Directory information
           ---------------------
 
  0 permanent = .
  0 scratch   = /scratch
 
 
 
 
                                NWChem Input Module
                                -------------------
 
 

 Scaling coordinates for geometry "geometry" by  1.889725989
 (inverse scale =  0.529177249)

 Turning off AUTOSYM since
 SYMMETRY directive was detected!
 

          ------
          auto-z
          ------
 
 
                             Geometry "geometry" -> ""
                             -------------------------
 
 Output coordinates in angstroms (scale by  1.889725989 to convert to a.u.)
 
  No.       Tag          Charge          X              Y              Z
 ---- ---------------- ---------- -------------- -------------- --------------
    1 n                    7.0000     0.00000000     0.00000000    -0.50000000
    2 n                    7.0000     0.00000000     0.00000000     0.50000000
 
      Atomic Mass 
      ----------- 
 
      n                 14.003070
 

 Effective nuclear repulsion energy (a.u.)      25.9296852010

            Nuclear Dipole moment (a.u.) 
            ----------------------------
        X                 Y               Z
 ---------------- ---------------- ----------------
     0.0000000000     0.0000000000     0.0000000000
 
      Symmetry information
      --------------------
 
 Group name             D2h       
 Group number             26
 Group order               8
 No. of unique centers     1
 
      Symmetry unique atoms
 
     1
 


                                Z-matrix (autoz)
                                -------- 

 Units are Angstrom for bonds and degrees for angles
 
      Type          Name      I     J     K     L     M      Value
      ----------- --------  ----- ----- ----- ----- ----- ----------
    1 Stretch                  1     2                       1.00000
 
 ==============================================================================
                                internuclear distances
 ------------------------------------------------------------------------------
       center one      |      center two      | atomic units |  angstroms
 ------------------------------------------------------------------------------
    2 n                |   1 n                |     1.88973  |     1.00000
 ------------------------------------------------------------------------------
                         number of included internuclear distances:          1
 ==============================================================================



                      Basis "ao basis" -> "" (spherical)
                      -----
  n (Nitrogen)
  ------------
            Exponent  Coefficients 
       -------------- ---------------------------------------------------------
  1 S  9.04600000E+03  0.000700
  1 S  1.35700000E+03  0.005389
  1 S  3.09300000E+02  0.027406
  1 S  8.77300000E+01  0.103207
  1 S  2.85600000E+01  0.278723
  1 S  1.02100000E+01  0.448540
  1 S  3.83800000E+00  0.278238
  1 S  7.46600000E-01  0.015440
 
  2 S  9.04600000E+03 -0.000153
  2 S  1.35700000E+03 -0.001208
  2 S  3.09300000E+02 -0.005992
  2 S  8.77300000E+01 -0.024544
  2 S  2.85600000E+01 -0.067459
  2 S  1.02100000E+01 -0.158078
  2 S  3.83800000E+00 -0.121831
  2 S  7.46600000E-01  0.549003
 
  3 S  2.24800000E-01  1.000000
 
  4 P  1.35500000E+01  0.039919
  4 P  2.91700000E+00  0.217169
  4 P  7.97300000E-01  0.510319
 
  5 P  2.18500000E-01  1.000000
 
  6 D  8.17000000E-01  1.000000
 


 Summary of "ao basis" -> "" (spherical)
 ------------------------------------------------------------------------------
       Tag                 Description            Shells   Functions and Types
 ---------------- ------------------------------  ------  ---------------------
 n                          cc-pvdz                  6       14   3s2p1d


 
  Deleted DRIVER restart files 
 
 
 
                           NWChem Geometry Optimization
                           ----------------------------
 
 
 maximum gradient threshold         (gmax) =   0.000450
 rms gradient threshold             (grms) =   0.000300
 maximum cartesian step threshold   (xmax) =   0.001800
 rms cartesian step threshold       (xrms) =   0.001200
 fixed trust radius                (trust) =   0.300000
 maximum step size to saddle      (sadstp) =   0.100000
 energy precision                  (eprec) =   1.0D-07
 maximum number of steps          (nptopt) =   20
 initial hessian option           (inhess) =    0
 line search option               (linopt) =    1
 hessian update option            (modupd) =    1
 saddle point option              (modsad) =    0
 initial eigen-mode to follow     (moddir) =    0
 initial variable to follow       (vardir) =    0
 follow first negative mode     (firstneg) =    T
 apply conjugacy                    (opcg) =    F
 source of zmatrix                         =   autoz   


          -------------------
          Energy Minimization
          -------------------

 
 Names of Z-matrix variables 
    1         
 
 Variables with the same non-blank name are constrained to be equal
 
 
 Using diagonal initial Hessian 
 Scaling for Hessian diagonals: bonds = 1.00  angles = 0.25  torsions = 0.10

          --------
          Step   0
          --------
 
 
                         Geometry "geometry" -> "geometry"
                         ---------------------------------
 
 Output coordinates in angstroms (scale by  1.889725989 to convert to a.u.)
 
  No.       Tag          Charge          X              Y              Z
 ---- ---------------- ---------- -------------- -------------- --------------
    1 n                    7.0000     0.00000000     0.00000000    -0.50000000
    2 n                    7.0000     0.00000000     0.00000000     0.50000000
 
      Atomic Mass 
      ----------- 
 
      n                 14.003070
 

 Effective nuclear repulsion energy (a.u.)      25.9296852010

            Nuclear Dipole moment (a.u.) 
            ----------------------------
        X                 Y               Z
 ---------------- ---------------- ----------------
     0.0000000000     0.0000000000     0.0000000000
 
      Symmetry information
      --------------------
 
 Group name             D2h       
 Group number             26
 Group order               8
 No. of unique centers     1
 
      Symmetry unique atoms
 
     1
 
                                 NWChem SCF Module
                                 -----------------
 
 

  ao basis        = "ao basis"
  functions       =    28
  atoms           =     2
  closed shells   =     7
  open shells     =     0
  charge          =   0.00
  wavefunction    = RHF 
  input vectors   = atomic
  output vectors  = ./n2.movecs
  use symmetry    = T
  symmetry adapt  = T
  lock orbitals   = T


 Summary of "ao basis" -> "ao basis" (spherical)
 ------------------------------------------------------------------------------
       Tag                 Description            Shells   Functions and Types
 ---------------- ------------------------------  ------  ---------------------
 n                          cc-pvdz                  6       14   3s2p1d


      Symmetry analysis of basis
      --------------------------
 
        ag          7
        au          1
        b1g         1
        b1u         7
        b2g         3
        b2u         3
        b3g         3
        b3u         3
 

 Forming initial guess at       0.7s

 
      Superposition of Atomic Density Guess
      -------------------------------------
 
 Sum of atomic energies:        -108.60004629
 
      Non-variational initial energy
      ------------------------------

 Total energy =    -109.464454
 1-e energy   =    -198.056589
 2-e energy   =      62.662450
 HOMO         =      -0.442418
 LUMO         =       0.075286
 
 
      Symmetry analysis of molecular orbitals - initial
      -------------------------------------------------
 

 !! scf_movecs_sym_adapt:   14 vectors were symmetry contaminated

  Symmetry fudging

 !! scf_movecs_sym_adapt:   12 vectors were symmetry contaminated

  Numbering of irreducible representations: 
 
     1 ag          2 au          3 b1g         4 b1u         5 b2g     
     6 b2u         7 b3g         8 b3u     
 
  Orbital symmetries:
 
     1 ag          2 b1u         3 ag          4 b1u         5 b3u     
     6 b2u         7 ag          8 b3g         9 b2g        10 b1u     
    11 ag         12 b3u        13 b2u        14 ag         15 b3g     
    16 b2g        17 b1u     
 

 Starting SCF solution at       1.0s



 ----------------------------------------------
         Quadratically convergent ROHF

 Convergence threshold     :          1.000E-08
 Maximum no. of iterations :           20
 Final Fock-matrix accuracy:          1.000E-10
 ----------------------------------------------


 #quartets = 2.094D+03 #integrals = 1.510D+04 #direct =  0.0% #cached =100.0%


 Integral file          = /scratch/n2.aoints.0
 Record size in doubles =  65536        No. of integs per rec  =  43688
 Max. records in memory =      2        Max. records in file   = 251200
 No. of bits per label  =      8        No. of bits per value  =     64


File balance: exchanges=     0  moved=     0  time=   0.0


              iter       energy          gnorm     gmax       time
             ----- ------------------- --------- --------- --------
                 1     -108.9211771631  3.69D-01  1.95D-01      0.8
                 2     -108.9293941831  7.99D-02  4.42D-02      0.9
                 3     -108.9298381867  1.48D-03  9.41D-04      0.9
                 4     -108.9298383337  4.85D-07  2.34D-07      1.0
                 5     -108.9298383337  2.40D-10  9.66D-11      1.1
  movecs_lock                   20                   18
  movecs_lock                   18                   19
  movecs_lock                   19                   20
  movecs_lock                   22                   21
  movecs_lock                   21                   22
  movecs_lock                   27                   26
  movecs_lock                   26                   27


       Final RHF  results 
       ------------------ 

         Total SCF energy =   -108.929838333660
      One-electron energy =   -198.656113564286
      Two-electron energy =     63.796590029641
 Nuclear repulsion energy =     25.929685200985

        Time for solution =      0.4s


 
       Symmetry analysis of molecular orbitals - final
       -----------------------------------------------
 
  Numbering of irreducible representations: 
 
     1 ag          2 au          3 b1g         4 b1u         5 b2g     
     6 b2u         7 b3g         8 b3u     
 
  Orbital symmetries:
 
     1 ag          2 b1u         3 ag          4 b1u         5 b3u     
     6 b2u         7 ag          8 b3g         9 b2g        10 b1u     
    11 ag         12 b3u        13 b2u        14 ag         15 b3g     
    16 b2g        17 b1u     
 
             Final eigenvalues
             -----------------

              1      
    1  -15.6559
    2  -15.6494
    3   -1.5441
    4   -0.7411
    5   -0.6537
    6   -0.6537
    7   -0.6336
    8    0.2307
    9    0.2307
   10    0.6167
   11    0.7857
   12    0.8408
   13    0.8408
   14    1.0062
   15    1.0774
   16    1.0774
   17    1.2982
 
                       ROHF Final Molecular Orbital Analysis
                       -------------------------------------
 
 Vector    2  Occ=2.000000D+00  E=-1.564938D+01  Symmetry=b1u
              MO Center=  1.9D-21,  3.1D-21,  1.2D-15, r^2= 2.7D-01
   Bfn.  Coefficient  Atom+Function         Bfn.  Coefficient  Atom+Function  
  ----- ------------  ---------------      ----- ------------  ---------------
    15      0.709124  2 N  s                  1     -0.709124  1 N  s          
 
 Vector    3  Occ=2.000000D+00  E=-1.544114D+00  Symmetry=ag
              MO Center= -6.3D-18, -2.4D-17, -1.4D-16, r^2= 3.9D-01
   Bfn.  Coefficient  Atom+Function         Bfn.  Coefficient  Atom+Function  
  ----- ------------  ---------------      ----- ------------  ---------------
    16      0.330809  2 N  s                  2      0.330809  1 N  s          
     6      0.240637  1 N  pz                20     -0.240637  2 N  pz         
     3      0.170869  1 N  s                 17      0.170869  2 N  s          
 
 Vector    4  Occ=2.000000D+00  E=-7.410699D-01  Symmetry=b1u
              MO Center= -7.7D-17, -9.6D-17, -8.9D-16, r^2= 1.2D+00
   Bfn.  Coefficient  Atom+Function         Bfn.  Coefficient  Atom+Function  
  ----- ------------  ---------------      ----- ------------  ---------------
     3      0.418647  1 N  s                 17     -0.418647  2 N  s          
    16     -0.311639  2 N  s                  2      0.311639  1 N  s          
     6     -0.233621  1 N  pz                20     -0.233621  2 N  pz         
 
 Vector    5  Occ=2.000000D+00  E=-6.537220D-01  Symmetry=b3u
              MO Center=  7.7D-18, -4.3D-32,  2.4D-17, r^2= 8.2D-01
   Bfn.  Coefficient  Atom+Function         Bfn.  Coefficient  Atom+Function  
  ----- ------------  ---------------      ----- ------------  ---------------
     4      0.435052  1 N  px                18      0.435052  2 N  px         
     7      0.233372  1 N  px                21      0.233372  2 N  px         
 
 Vector    6  Occ=2.000000D+00  E=-6.537220D-01  Symmetry=b2u
              MO Center=  1.2D-32,  2.4D-17, -1.4D-18, r^2= 8.2D-01
   Bfn.  Coefficient  Atom+Function         Bfn.  Coefficient  Atom+Function  
  ----- ------------  ---------------      ----- ------------  ---------------
     5      0.435052  1 N  py                19      0.435052  2 N  py         
     8      0.233372  1 N  py                22      0.233372  2 N  py         
 
 Vector    7  Occ=2.000000D+00  E=-6.335783D-01  Symmetry=ag
              MO Center= -1.7D-17, -7.3D-18,  9.5D-16, r^2= 1.2D+00
   Bfn.  Coefficient  Atom+Function         Bfn.  Coefficient  Atom+Function  
  ----- ------------  ---------------      ----- ------------  ---------------
     6      0.452374  1 N  pz                20     -0.452374  2 N  pz         
     3     -0.348192  1 N  s                 17     -0.348192  2 N  s          
    23     -0.202258  2 N  pz                 9      0.202258  1 N  pz         
 
 Vector    8  Occ=0.000000D+00  E= 2.306659D-01  Symmetry=b3g
              MO Center=  1.0D-32,  1.2D-16, -1.1D-16, r^2= 1.4D+00
   Bfn.  Coefficient  Atom+Function         Bfn.  Coefficient  Atom+Function  
  ----- ------------  ---------------      ----- ------------  ---------------
     8     -0.776773  1 N  py                22      0.776773  2 N  py         
    19      0.412958  2 N  py                 5     -0.412958  1 N  py         
 
 Vector    9  Occ=0.000000D+00  E= 2.306659D-01  Symmetry=b2g
              MO Center=  1.1D-16,  8.9D-33, -8.6D-17, r^2= 1.4D+00
   Bfn.  Coefficient  Atom+Function         Bfn.  Coefficient  Atom+Function  
  ----- ------------  ---------------      ----- ------------  ---------------
     7     -0.776773  1 N  px                21      0.776773  2 N  px         
    18      0.412958  2 N  px                 4     -0.412958  1 N  px         
 
 Vector   10  Occ=0.000000D+00  E= 6.167017D-01  Symmetry=b1u
              MO Center=  5.4D-19,  4.4D-20, -1.3D-15, r^2= 3.3D+00
   Bfn.  Coefficient  Atom+Function         Bfn.  Coefficient  Atom+Function  
  ----- ------------  ---------------      ----- ------------  ---------------
    17     -5.301656  2 N  s                  3      5.301656  1 N  s          
     9      3.092055  1 N  pz                23      3.092055  2 N  pz         
    16     -0.160685  2 N  s                  2      0.160685  1 N  s          
 
 Vector   11  Occ=0.000000D+00  E= 7.857106D-01  Symmetry=ag
              MO Center=  5.3D-20, -5.7D-19, -1.0D-15, r^2= 2.2D+00
   Bfn.  Coefficient  Atom+Function         Bfn.  Coefficient  Atom+Function  
  ----- ------------  ---------------      ----- ------------  ---------------
     9      1.027816  1 N  pz                23     -1.027816  2 N  pz         
    20      0.419558  2 N  pz                 6     -0.419558  1 N  pz         
     2     -0.317411  1 N  s                 16     -0.317411  2 N  s          
     1     -0.166129  1 N  s                 15     -0.166129  2 N  s          
 
 Vector   12  Occ=0.000000D+00  E= 8.407834D-01  Symmetry=b3u
              MO Center=  1.5D-17, -6.1D-35,  9.6D-18, r^2= 1.7D+00
   Bfn.  Coefficient  Atom+Function         Bfn.  Coefficient  Atom+Function  
  ----- ------------  ---------------      ----- ------------  ---------------
     7      0.616912  1 N  px                21      0.616912  2 N  px         
    18     -0.609249  2 N  px                 4     -0.609249  1 N  px         
 
 Vector   13  Occ=0.000000D+00  E= 8.407834D-01  Symmetry=b2u
              MO Center=  1.5D-35,  1.3D-17, -5.9D-18, r^2= 1.7D+00
   Bfn.  Coefficient  Atom+Function         Bfn.  Coefficient  Atom+Function  
  ----- ------------  ---------------      ----- ------------  ---------------
     8      0.616912  1 N  py                22      0.616912  2 N  py         
    19     -0.609249  2 N  py                 5     -0.609249  1 N  py         
 
 Vector   14  Occ=0.000000D+00  E= 1.006155D+00  Symmetry=ag
              MO Center= -3.1D-18,  1.1D-18,  5.0D-16, r^2= 1.7D+00
   Bfn.  Coefficient  Atom+Function         Bfn.  Coefficient  Atom+Function  
  ----- ------------  ---------------      ----- ------------  ---------------
     2      1.033052  1 N  s                 16      1.033052  2 N  s          
     3     -0.920008  1 N  s                 17     -0.920008  2 N  s          
    15      0.425187  2 N  s                  1      0.425187  1 N  s          
     6     -0.296096  1 N  pz                20      0.296096  2 N  pz         
    23     -0.170592  2 N  pz                 9      0.170592  1 N  pz         
 
 Vector   15  Occ=0.000000D+00  E= 1.077426D+00  Symmetry=b3g
              MO Center= -6.9D-36, -7.4D-18,  7.1D-19, r^2= 1.9D+00
   Bfn.  Coefficient  Atom+Function         Bfn.  Coefficient  Atom+Function  
  ----- ------------  ---------------      ----- ------------  ---------------
     8     -1.224618  1 N  py                22      1.224618  2 N  py         
    19     -0.738307  2 N  py                 5      0.738307  1 N  py         
 
 Vector   16  Occ=0.000000D+00  E= 1.077426D+00  Symmetry=b2g
              MO Center=  7.6D-18,  8.4D-36,  2.4D-18, r^2= 1.9D+00
   Bfn.  Coefficient  Atom+Function         Bfn.  Coefficient  Atom+Function  
  ----- ------------  ---------------      ----- ------------  ---------------
     7     -1.224618  1 N  px                21      1.224618  2 N  px         
    18     -0.738307  2 N  px                 4      0.738307  1 N  px         
 
 Vector   17  Occ=0.000000D+00  E= 1.298243D+00  Symmetry=b1u
              MO Center=  8.0D-18, -9.9D-18,  1.4D-15, r^2= 1.2D+00
   Bfn.  Coefficient  Atom+Function         Bfn.  Coefficient  Atom+Function  
  ----- ------------  ---------------      ----- ------------  ---------------
     3      2.692041  1 N  s                 17     -2.692041  2 N  s          
     9      0.753423  1 N  pz                23      0.753423  2 N  pz         
    20      0.696379  2 N  pz                 6      0.696379  1 N  pz         
     2     -0.487314  1 N  s                 16      0.487314  2 N  s          
     1     -0.275685  1 N  s                 15      0.275685  2 N  s          
 

 center of mass
 --------------
 x =   0.00000000 y =   0.00000000 z =  -0.00000000

 moments of inertia (a.u.)
 ------------------
          25.002931767121           0.000000000000           0.000000000000
           0.000000000000          25.002931767121           0.000000000000
           0.000000000000           0.000000000000           0.000000000000
 
  Mulliken analysis of the total density
  --------------------------------------

    Atom       Charge   Shell Charges
 -----------   ------   -------------------------------------------------------
    1 N    7     7.00   2.00  0.83  0.87  2.24  0.97  0.07
    2 N    7     7.00   2.00  0.83  0.87  2.24  0.97  0.07
 
       Multipole analysis of the density wrt the origin
       ------------------------------------------------
 
     L   x y z        total         open         nuclear
     -   - - -        -----         ----         -------
     0   0 0 0      0.000000      0.000000     14.000000
 
     1   1 0 0      0.000000      0.000000      0.000000
     1   0 1 0      0.000000      0.000000      0.000000
     1   0 0 1     -0.000000      0.000000      0.000000
 
     2   2 0 0     -7.268248      0.000000      0.000000
     2   1 1 0     -0.000000      0.000000      0.000000
     2   1 0 1     -0.000000      0.000000      0.000000
     2   0 2 0     -7.268248      0.000000      0.000000
     2   0 1 1     -0.000000      0.000000      0.000000
     2   0 0 2     -8.569065      0.000000     12.498725
 

 Parallel integral file used       8 records with       0 large values

                   NWChem MP2 Semi-direct Energy/Gradient Module
                   ---------------------------------------------
 
 
  Basis functions       =     28
  Molecular orbitals    =     28
  Frozen core           =      2
  Frozen virtuals       =      0
  Active alpha occupied =      5
  Active beta occupied  =      5
  Active alpha virtual  =     21
  Active beta virtual   =     21
  Use MO symmetry       = T
  Use skeleton AO sym   = T

  AO/Fock/Back tols     =   1.0D-11  1.0D-11  1.0D-11

 GA uses MA = F    GA memory limited = T

 Available: local mem=   183498596 global mem=      419425440 local disk=   17329160192.
   1 passes of   5:        1790178                       3277                      9841.
 
 Semi-direct pass number   1 of   1  for RHF alpha+beta  at        1.9s
Node 0 wrote      0.0 Mb in      0.0 s     Agg I/O rate:   166.4 Mb/s
 Done moints_semi at        2.1s
 Done maket at        2.1s
 Done pijab at        2.1s
 Done wijab at        2.2s
 Done lai at        2.2s
 Done nonsep at        2.6s
 Done multipass loop at        2.6s


          -------------------------------------------
          SCF energy                -108.929838333660
          Correlation energy          -0.279001151887
          Singlet pairs               -0.168636466505
          Triplet pairs               -0.110364685383
          Total MP2 energy          -109.208839485547
          -------------------------------------------

                                NWChem CPHF Module
                                ------------------
 
 
    scftype = RHF 
    nclosed =    7
      nopen =    0
  variables =      147
  tolerance =   1.0D-06
  max. iter =  100


 #quartets = 2.094D+03 #integrals = 1.510D+04 #direct =  0.0% #cached =100.0%


 Integral file          = /scratch/n2.aoints.0
 Record size in doubles =  65536        No. of integs per rec  =  43688
 Max. records in memory =      2        Max. records in file   = 251200
 No. of bits per label  =      8        No. of bits per value  =     64


File balance: exchanges=     0  moved=     0  time=   0.0


            ----- linear solve (tol: 1.0E-06 prod-acc: 8.6E-12) -----

               iter nbas    rnorm     rnorm-scal   ratio     time
               ---- ---- ----------- ----------- --------- -------
                  1    1  1.7870E-02  1.7116E-01    0.0000     2.5
                  2    2  3.1538E-03  3.0208E-02    0.1765     2.5
                  3    3  5.4853E-04  5.2539E-03    0.1739     2.5
                  4    4  6.6079E-05  6.3291E-04    0.1205     2.5
                  5    5  5.8602E-06  5.6129E-05    0.0887     2.5
                  6    6  2.9480E-07  2.8236E-06    0.0503     2.6
                  7    7  2.1034E-08  2.0146E-07    0.0714     2.6

 CPHF converged to   2.0D-07 in    7 iters


 Parallel integral file used       8 records with       0 large values

                Dipole Moments (a.u.)
                --------------
         Nuclear       SCF       SCF+MP2
       ----------- ----------- -----------
 X       0.000000    0.000000    0.000000
 Y       0.000000    0.000000    0.000000
 Z       0.000000    0.000000   -0.000000
 

 MP2 RHF      natural orbital occupation numbers


              1      
    1    2.0000
    2    2.0000
    3    1.9884
    4    1.9731
    5    1.9722
    6    1.9466
    7    1.9466
    8    0.0475
    9    0.0475
   10    0.0162
   11    0.0105
   12    0.0074
   13    0.0068
   14    0.0068
   15    0.0063
   16    0.0050
   17    0.0050
   18    0.0026
   19    0.0026
   20    0.0016
   21    0.0016
   22    0.0013
   23    0.0013
   24    0.0012
   25    0.0006
   26    0.0004
   27    0.0004
   28    0.0001
 
  MP2 natural orbitals output to ./n2.mp2nos
 
  Using symmetry


                         mp2 ENERGY GRADIENTS

    atom               coordinates                        gradient
                 x          y          z           x          y          z
   1 n       0.000000   0.000000  -0.944863    0.000000   0.000000   0.521765
   2 n       0.000000   0.000000   0.944863    0.000000   0.000000  -0.521765
 
                 ----------------------------------------
                 |  Time  |  1-e(secs)   |  2-e(secs)   |
                 ----------------------------------------
                 |  CPU   |       0.00   |       0.15   |
                 ----------------------------------------
                 |  WALL  |       0.00   |       0.15   |
                 ----------------------------------------
 -----------------------
 Performance information
 -----------------------

 Timer overhead =  1.56D-06 seconds/call

                                   Nr. of calls                 CPU time (s)              Wall time (s)  
                             -------------------------      ---------------------      ---------------------
 Name                        Min        Avg        Max      Min      Avg      Max      Min      Avg      Max
 mp2: moints                   1          1          1 0.20     0.21     0.21       0.21     0.21     0.21    
 mp2: maket                    1          1          1 3.42E-02 3.67E-02 3.90E-02   3.87E-02 3.90E-02 4.00E-02
 mp2: pijab                    1          1          1 6.83E-03 7.44E-03 7.81E-03   7.20E-03 7.28E-03 7.80E-03
 mp2: wijab                    1          1          1 9.76E-04 2.07E-03 7.81E-03   1.66E-03 2.48E-03 8.20E-03
 mp2: lai                      1          1          1 4.88E-03 1.02E-02 1.17E-02   4.86E-03 1.07E-02 1.16E-02
 mp2: backt                    1          1          1 1.66E-02 1.74E-02 1.76E-02   1.75E-02 1.75E-02 1.75E-02
 mp2: nonsep                   1          1          1 0.19     0.26     0.35       0.19     0.26     0.35    
 mp2: laifock                  1          1          1 0.11     0.11     0.12       0.12     0.12     0.12    
 mp2: cphf                     1          1          1 0.39     0.39     0.40       0.42     0.42     0.42    
 mp2: wijfock                  1          1          1 0.10     0.11     0.11       0.11     0.11     0.11    
 mp2: sep                      1          1          1 0.20     0.21     0.21       0.23     0.23     0.23    
 mp2: total                    1          1          1  1.8      1.8      1.8        1.9      1.9      1.9    

 The average no. of pstat calls per process was 1.20D+01 with a timing overhead of 1.87D-05s


@ Step       Energy      Delta E   Gmax     Grms     Xrms     Xmax   Walltime
@ ---- ---------------- -------- -------- -------- -------- -------- --------
@    0    -109.20883949  0.0D+00  0.52176  0.52176  0.00000  0.00000      3.6
                                                       ok       ok  



                                Z-matrix (autoz)
                                -------- 

 Units are Angstrom for bonds and degrees for angles
 
      Type          Name      I     J     K     L     M      Value     Gradient
      ----------- --------  ----- ----- ----- ----- ----- ---------- ----------
    1 Stretch                  1     2                       1.00000   -0.52176
 
 Restricting large step in mode    1 eval= 7.8D-01 step= 6.7D-01 new= 3.0D-01
                                 NWChem SCF Module
                                 -----------------
 
 

  ao basis        = "ao basis"
  functions       =    28
  atoms           =     2
  closed shells   =     7
  open shells     =     0
  charge          =   0.00
  wavefunction    = RHF 
  input vectors   = ./n2.movecs
  output vectors  = ./n2.movecs
  use symmetry    = T
  symmetry adapt  = T
  lock orbitals   = T


 Summary of "ao basis" -> "ao basis" (spherical)
 ------------------------------------------------------------------------------
       Tag                 Description            Shells   Functions and Types
 ---------------- ------------------------------  ------  ---------------------
 n                          cc-pvdz                  6       14   3s2p1d


      Symmetry analysis of basis
      --------------------------
 
        ag          7
        au          1
        b1g         1
        b1u         7
        b2g         3
        b2u         3
        b3g         3
        b3u         3
 

 Forming initial guess at       5.8s


 Loading old vectors from job with title :



 
      Symmetry analysis of molecular orbitals - initial
      -------------------------------------------------
 
  Numbering of irreducible representations: 
 
     1 ag          2 au          3 b1g         4 b1u         5 b2g     
     6 b2u         7 b3g         8 b3u     
 
  Orbital symmetries:
 
     1 ag          2 b1u         3 ag          4 b1u         5 b3u     
     6 b2u         7 ag          8 b3g         9 b2g        10 b1u     
    11 ag         12 b3u        13 b2u        14 ag         15 b3g     
    16 b2g        17 b1u     
 

 Starting SCF solution at       5.9s



 ----------------------------------------------
         Quadratically convergent ROHF

 Convergence threshold     :          1.000E-08
 Maximum no. of iterations :           20
 Final Fock-matrix accuracy:          1.000E-10
 ----------------------------------------------


 #quartets = 2.094D+03 #integrals = 1.510D+04 #direct =  0.0% #cached =100.0%


 Integral file          = /scratch/n2.aoints.0
 Record size in doubles =  65536        No. of integs per rec  =  43688
 Max. records in memory =      2        Max. records in file   = 251200
 No. of bits per label  =      8        No. of bits per value  =     64


File balance: exchanges=     0  moved=     0  time=   0.0


              iter       energy          gnorm     gmax       time
             ----- ------------------- --------- --------- --------
                 1     -108.9142770539  5.30D-01  2.64D-01      3.3
                 2     -108.9342697557  1.33D-01  8.35D-02      3.3
                 3     -108.9355981310  2.84D-03  1.27D-03      3.3
                 4     -108.9355986547  3.08D-06  1.39D-06      3.4
                 5     -108.9355986547  1.37D-10  7.96D-11      3.5
  movecs_lock                    7                    5
  movecs_lock                    5                    7
  movecs_lock                   16                   15
  movecs_lock                   15                   16
  movecs_lock                   22                   21
  movecs_lock                   21                   22


       Final RHF  results 
       ------------------ 

         Total SCF energy =   -108.935598654672
      One-electron energy =   -191.792687464863
      Two-electron energy =     60.479859761649
 Nuclear repulsion energy =     22.377229048542

        Time for solution =      0.4s


 
       Symmetry analysis of molecular orbitals - final
       -----------------------------------------------
 
  Numbering of irreducible representations: 
 
     1 ag          2 au          3 b1g         4 b1u         5 b2g     
     6 b2u         7 b3g         8 b3u     
 
  Orbital symmetries:
 
     1 ag          2 b1u         3 ag          4 b1u         5 b3u     
     6 b2u         7 ag          8 b3g         9 b2g        10 b1u     
    11 ag         12 b3u        13 b2u        14 ag         15 b3g     
    16 b2g        17 b1u     
 
             Final eigenvalues
             -----------------

              1      
    1  -15.7054
    2  -15.7030
    3   -1.4270
    4   -0.7935
    5   -0.5836
    6   -0.5836
    7   -0.6205
    8    0.1445
    9    0.1445
   10    0.5707
   11    0.8433
   12    0.8881
   13    0.8881
   14    0.9859
   15    1.0383
   16    1.0383
   17    1.0564
 
                       ROHF Final Molecular Orbital Analysis
                       -------------------------------------
 
 Vector    2  Occ=2.000000D+00  E=-1.570298D+01  Symmetry=b1u
              MO Center=  9.2D-21,  7.7D-21,  1.1D-15, r^2= 3.6D-01
   Bfn.  Coefficient  Atom+Function         Bfn.  Coefficient  Atom+Function  
  ----- ------------  ---------------      ----- ------------  ---------------
    15      0.708087  2 N  s                  1     -0.708087  1 N  s          
 
 Vector    3  Occ=2.000000D+00  E=-1.426979D+00  Symmetry=ag
              MO Center= -4.3D-20, -1.9D-19,  4.3D-17, r^2= 4.8D-01
   Bfn.  Coefficient  Atom+Function         Bfn.  Coefficient  Atom+Function  
  ----- ------------  ---------------      ----- ------------  ---------------
     2      0.334952  1 N  s                 16      0.334952  2 N  s          
    17      0.210034  2 N  s                  3      0.210034  1 N  s          
     6      0.203114  1 N  pz                20     -0.203114  2 N  pz         
 
 Vector    4  Occ=2.000000D+00  E=-7.934916D-01  Symmetry=b1u
              MO Center= -9.1D-32, -4.9D-32, -3.4D-17, r^2= 1.3D+00
   Bfn.  Coefficient  Atom+Function         Bfn.  Coefficient  Atom+Function  
  ----- ------------  ---------------      ----- ------------  ---------------
     3      0.423805  1 N  s                 17     -0.423805  2 N  s          
    16     -0.336582  2 N  s                  2      0.336582  1 N  s          
     6     -0.203679  1 N  pz                20     -0.203679  2 N  pz         
 
 Vector    5  Occ=2.000000D+00  E=-5.835579D-01  Symmetry=b3u
              MO Center=  3.0D-19,  6.0D-30,  2.6D-18, r^2= 9.6D-01
   Bfn.  Coefficient  Atom+Function         Bfn.  Coefficient  Atom+Function  
  ----- ------------  ---------------      ----- ------------  ---------------
     4      0.422068  1 N  px                18      0.422068  2 N  px         
     7      0.269966  1 N  px                21      0.269966  2 N  px         
 
 Vector    6  Occ=2.000000D+00  E=-5.835579D-01  Symmetry=b2u
              MO Center=  3.1D-32,  1.8D-18, -3.1D-17, r^2= 9.6D-01
   Bfn.  Coefficient  Atom+Function         Bfn.  Coefficient  Atom+Function  
  ----- ------------  ---------------      ----- ------------  ---------------
     5      0.422068  1 N  py                19      0.422068  2 N  py         
     8      0.269966  1 N  py                22      0.269966  2 N  py         
 
 Vector    7  Occ=2.000000D+00  E=-6.204949D-01  Symmetry=ag
              MO Center= -2.3D-19, -9.2D-19,  9.8D-17, r^2= 1.3D+00
   Bfn.  Coefficient  Atom+Function         Bfn.  Coefficient  Atom+Function  
  ----- ------------  ---------------      ----- ------------  ---------------
    20      0.455673  2 N  pz                 6     -0.455673  1 N  pz         
     3      0.316739  1 N  s                 17      0.316739  2 N  s          
     9     -0.220618  1 N  pz                23      0.220618  2 N  pz         
 
 Vector    8  Occ=0.000000D+00  E= 1.444757D-01  Symmetry=b3g
              MO Center=  1.4D-32,  2.1D-20,  2.0D-18, r^2= 1.4D+00
   Bfn.  Coefficient  Atom+Function         Bfn.  Coefficient  Atom+Function  
  ----- ------------  ---------------      ----- ------------  ---------------
     8     -0.629214  1 N  py                22      0.629214  2 N  py         
    19      0.434364  2 N  py                 5     -0.434364  1 N  py         
 
 Vector    9  Occ=0.000000D+00  E= 1.444757D-01  Symmetry=b2g
              MO Center=  4.7D-19,  1.5D-32,  4.6D-17, r^2= 1.4D+00
   Bfn.  Coefficient  Atom+Function         Bfn.  Coefficient  Atom+Function  
  ----- ------------  ---------------      ----- ------------  ---------------
     7     -0.629214  1 N  px                21      0.629214  2 N  px         
    18      0.434364  2 N  px                 4     -0.434364  1 N  px         
 
 Vector   10  Occ=0.000000D+00  E= 5.706616D-01  Symmetry=b1u
              MO Center=  9.4D-20,  1.7D-19, -3.9D-16, r^2= 3.0D+00
   Bfn.  Coefficient  Atom+Function         Bfn.  Coefficient  Atom+Function  
  ----- ------------  ---------------      ----- ------------  ---------------
     3      3.229467  1 N  s                 17     -3.229467  2 N  s          
     9      2.337530  1 N  pz                23      2.337530  2 N  pz         
     2      0.177444  1 N  s                 16     -0.177444  2 N  s          
 
 Vector   11  Occ=0.000000D+00  E= 8.432995D-01  Symmetry=ag
              MO Center=  3.8D-20, -6.2D-19, -1.1D-15, r^2= 2.2D+00
   Bfn.  Coefficient  Atom+Function         Bfn.  Coefficient  Atom+Function  
  ----- ------------  ---------------      ----- ------------  ---------------
    23      0.906997  2 N  pz                 9     -0.906997  1 N  pz         
     6      0.489705  1 N  pz                20     -0.489705  2 N  pz         
     2      0.272734  1 N  s                 16      0.272734  2 N  s          
 
 Vector   12  Occ=0.000000D+00  E= 8.880623D-01  Symmetry=b3u
              MO Center=  2.5D-18,  2.4D-31, -1.6D-17, r^2= 1.8D+00
   Bfn.  Coefficient  Atom+Function         Bfn.  Coefficient  Atom+Function  
  ----- ------------  ---------------      ----- ------------  ---------------
     4      0.660775  1 N  px                18      0.660775  2 N  px         
     7     -0.621953  1 N  px                21     -0.621953  2 N  px         
 
 Vector   13  Occ=0.000000D+00  E= 8.880623D-01  Symmetry=b2u
              MO Center= -4.4D-30, -8.1D-19,  1.2D-17, r^2= 1.8D+00
   Bfn.  Coefficient  Atom+Function         Bfn.  Coefficient  Atom+Function  
  ----- ------------  ---------------      ----- ------------  ---------------
     5      0.660775  1 N  py                19      0.660775  2 N  py         
    22     -0.621953  2 N  py                 8     -0.621953  1 N  py         
 
 Vector   14  Occ=0.000000D+00  E= 9.859315D-01  Symmetry=ag
              MO Center= -3.1D-18,  1.0D-18, -1.3D-16, r^2= 1.8D+00
   Bfn.  Coefficient  Atom+Function         Bfn.  Coefficient  Atom+Function  
  ----- ------------  ---------------      ----- ------------  ---------------
    16      1.047056  2 N  s                  2      1.047056  1 N  s          
    17     -0.941451  2 N  s                  3     -0.941451  1 N  s          
    15      0.430693  2 N  s                  1      0.430693  1 N  s          
    20      0.243478  2 N  pz                 6     -0.243478  1 N  pz         
     9      0.169532  1 N  pz                23     -0.169532  2 N  pz         
 
 Vector   15  Occ=0.000000D+00  E= 1.038303D+00  Symmetry=b3g
              MO Center= -1.1D-34,  9.3D-23,  2.0D-16, r^2= 2.0D+00
   Bfn.  Coefficient  Atom+Function         Bfn.  Coefficient  Atom+Function  
  ----- ------------  ---------------      ----- ------------  ---------------
    22      1.120126  2 N  py                 8     -1.120126  1 N  py         
    19     -0.727715  2 N  py                 5      0.727715  1 N  py         
 
 Vector   16  Occ=0.000000D+00  E= 1.038303D+00  Symmetry=b2g
              MO Center= -2.8D-22,  2.7D-41,  2.1D-17, r^2= 2.0D+00
   Bfn.  Coefficient  Atom+Function         Bfn.  Coefficient  Atom+Function  
  ----- ------------  ---------------      ----- ------------  ---------------
     7     -1.120126  1 N  px                21      1.120126  2 N  px         
    18     -0.727715  2 N  px                 4      0.727715  1 N  px         
 
 Vector   17  Occ=0.000000D+00  E= 1.056449D+00  Symmetry=b1u
              MO Center=  1.3D-18, -1.5D-17, -6.4D-16, r^2= 1.3D+00
   Bfn.  Coefficient  Atom+Function         Bfn.  Coefficient  Atom+Function  
  ----- ------------  ---------------      ----- ------------  ---------------
     6      0.770345  1 N  pz                20      0.770345  2 N  pz         
     9     -0.624628  1 N  pz                23     -0.624628  2 N  pz         
    12     -0.211639  1 N  d  0              26      0.211639  2 N  d  0       
 

 center of mass
 --------------
 x =   0.00000000 y =   0.00000000 z =   0.00000000

 moments of inertia (a.u.)
 ------------------
          33.571659506793           0.000000000000           0.000000000000
           0.000000000000          33.571659506793           0.000000000000
           0.000000000000           0.000000000000           0.000000000000
 
  Mulliken analysis of the total density
  --------------------------------------

    Atom       Charge   Shell Charges
 -----------   ------   -------------------------------------------------------
    1 N    7     7.00   2.00  0.87  0.90  2.06  1.11  0.06
    2 N    7     7.00   2.00  0.87  0.90  2.06  1.11  0.06
 
       Multipole analysis of the density wrt the origin
       ------------------------------------------------
 
     L   x y z        total         open         nuclear
     -   - - -        -----         ----         -------
     0   0 0 0      0.000000      0.000000     14.000000
 
     1   1 0 0     -0.000000      0.000000      0.000000
     1   0 1 0     -0.000000      0.000000      0.000000
     1   0 0 1     -0.000000      0.000000      0.000000
 
     2   2 0 0     -7.692324      0.000000      0.000000
     2   1 1 0     -0.000000      0.000000      0.000000
     2   1 0 1      0.000000      0.000000      0.000000
     2   0 2 0     -7.692324      0.000000      0.000000
     2   0 1 1     -0.000000      0.000000      0.000000
     2   0 0 2     -8.703630      0.000000     16.782150
 

 Parallel integral file used       8 records with       0 large values

                   NWChem MP2 Semi-direct Energy/Gradient Module
                   ---------------------------------------------
 
 
  Basis functions       =     28
  Molecular orbitals    =     28
  Frozen core           =      2
  Frozen virtuals       =      0
  Active alpha occupied =      5
  Active beta occupied  =      5
  Active alpha virtual  =     21
  Active beta virtual   =     21
  Use MO symmetry       = T
  Use skeleton AO sym   = T

  AO/Fock/Back tols     =   1.0D-11  1.0D-11  1.0D-11

 GA uses MA = F    GA memory limited = T

 Available: local mem=   183498724 global mem=      419428608 local disk=   17329160192.
   1 passes of   5:         289659                       2877                      6628.
 
 Semi-direct pass number   1 of   1  for RHF alpha+beta  at        6.8s
Node 0 wrote      0.0 Mb in      0.0 s     Agg I/O rate:   183.0 Mb/s
 Done moints_semi at        7.0s
 Done maket at        7.0s
 Done multipass loop at        7.0s


          -------------------------------------------
          SCF energy                -108.935598654672
          Correlation energy          -0.325632304229
          Singlet pairs               -0.194062152000
          Triplet pairs               -0.131570152229
          Total MP2 energy          -109.261230958901
          -------------------------------------------

 -----------------------
 Performance information
 -----------------------

 Timer overhead =  1.66D-06 seconds/call

                                   Nr. of calls                 CPU time (s)              Wall time (s)  
                             -------------------------      ---------------------      ---------------------
 Name                        Min        Avg        Max      Min      Avg      Max      Min      Avg      Max
 mp2: moints                   1          1          1 0.20     0.20     0.20       0.20     0.20     0.20    
 mp2: maket                    1          1          1 7.81E-03 9.15E-03 1.07E-02   1.04E-02 1.04E-02 1.04E-02
 mp2: total                    1          1          1 0.44     0.59     0.61       0.63     0.63     0.63    

 The average no. of pstat calls per process was 3.00D+00 with a timing overhead of 4.98D-06s

 Line search: 
     step= 1.00 grad=-1.6D-01 hess= 1.0D-01 energy=   -109.261231 mode=downhill
 new step= 0.75                   predicted energy=   -109.267659

          --------
          Step   1
          --------
 
 
                         Geometry "geometry" -> "geometry"
                         ---------------------------------
 
 Output coordinates in angstroms (scale by  1.889725989 to convert to a.u.)
 
  No.       Tag          Charge          X              Y              Z
 ---- ---------------- ---------- -------------- -------------- --------------
    1 n                    7.0000     0.00000000     0.00000000    -0.55965535
    2 n                    7.0000     0.00000000     0.00000000     0.55965535
 
      Atomic Mass 
      ----------- 
 
      n                 14.003070
 

 Effective nuclear repulsion energy (a.u.)      23.1657618326

            Nuclear Dipole moment (a.u.) 
            ----------------------------
        X                 Y               Z
 ---------------- ---------------- ----------------
     0.0000000000     0.0000000000     0.0000000000
 
      Symmetry information
      --------------------
 
 Group name             D2h       
 Group number             26
 Group order               8
 No. of unique centers     1
 
      Symmetry unique atoms
 
     1
 
                                 NWChem SCF Module
                                 -----------------
 
 

  ao basis        = "ao basis"
  functions       =    28
  atoms           =     2
  closed shells   =     7
  open shells     =     0
  charge          =   0.00
  wavefunction    = RHF 
  input vectors   = ./n2.movecs
  output vectors  = ./n2.movecs
  use symmetry    = T
  symmetry adapt  = T
  lock orbitals   = T


 Summary of "ao basis" -> "ao basis" (spherical)
 ------------------------------------------------------------------------------
       Tag                 Description            Shells   Functions and Types
 ---------------- ------------------------------  ------  ---------------------
 n                          cc-pvdz                  6       14   3s2p1d


      Symmetry analysis of basis
      --------------------------
 
        ag          7
        au          1
        b1g         1
        b1u         7
        b2g         3
        b2u         3
        b3g         3
        b3u         3
 

 Forming initial guess at      11.3s


 Loading old vectors from job with title :



 
      Symmetry analysis of molecular orbitals - initial
      -------------------------------------------------
 
  Numbering of irreducible representations: 
 
     1 ag          2 au          3 b1g         4 b1u         5 b2g     
     6 b2u         7 b3g         8 b3u     
 
  Orbital symmetries:
 
     1 ag          2 b1u         3 ag          4 b1u         5 b3u     
     6 b2u         7 ag          8 b3g         9 b2g        10 b1u     
    11 ag         12 b3u        13 b2u        14 ag         15 b3g     
    16 b2g        17 b1u     
 

 Starting SCF solution at      11.4s



 ----------------------------------------------
         Quadratically convergent ROHF

 Convergence threshold     :          1.000E-08
 Maximum no. of iterations :           20
 Final Fock-matrix accuracy:          1.000E-10
 ----------------------------------------------


 #quartets = 2.094D+03 #integrals = 1.510D+04 #direct =  0.0% #cached =100.0%


 Integral file          = /scratch/n2.aoints.0
 Record size in doubles =  65536        No. of integs per rec  =  43688
 Max. records in memory =      2        Max. records in file   = 251200
 No. of bits per label  =      8        No. of bits per value  =     64


File balance: exchanges=     0  moved=     0  time=   0.0


              iter       energy          gnorm     gmax       time
             ----- ------------------- --------- --------- --------
                 1     -108.9486050575  1.25D-01  5.89D-02      4.3
                 2     -108.9497738545  2.63D-03  9.71D-04      4.3
                 3     -108.9497743102  1.42D-06  7.06D-07      4.4
                 4     -108.9497743102  5.52D-10  2.57D-10      4.4
  movecs_lock                    7                    5
  movecs_lock                    5                    7
  movecs_lock                    9                    8
  movecs_lock                    8                    9
  movecs_lock                   13                   12
  movecs_lock                   12                   13
  movecs_lock                   16                   15
  movecs_lock                   15                   16
  movecs_lock                   22                   21
  movecs_lock                   21                   22


       Final RHF  results 
       ------------------ 

         Total SCF energy =   -108.949774310215
      One-electron energy =   -193.346120019658
      Two-electron energy =     61.230583876824
 Nuclear repulsion energy =     23.165761832620

        Time for solution =      0.4s


 
       Symmetry analysis of molecular orbitals - final
       -----------------------------------------------
 
  Numbering of irreducible representations: 
 
     1 ag          2 au          3 b1g         4 b1u         5 b2g     
     6 b2u         7 b3g         8 b3u     
 
  Orbital symmetries:
 
     1 ag          2 b1u         3 ag          4 b1u         5 b3u     
     6 b2u         7 ag          8 b3g         9 b2g        10 b1u     
    11 ag         12 b3u        13 b2u        14 ag         15 b3g     
    16 b2g        17 b1u     
 
             Final eigenvalues
             -----------------

              1      
    1  -15.6932
    2  -15.6902
    3   -1.4553
    4   -0.7811
    5   -0.5991
    6   -0.5991
    7   -0.6243
    8    0.1643
    9    0.1643
   10    0.5872
   11    0.8282
   12    0.8782
   13    0.8782
   14    0.9898
   15    1.0462
   16    1.0462
   17    1.1118
 
                       ROHF Final Molecular Orbital Analysis
                       -------------------------------------
 
 Vector    2  Occ=2.000000D+00  E=-1.569024D+01  Symmetry=b1u
              MO Center=  8.7D-21,  7.3D-21,  1.1D-15, r^2= 3.3D-01
   Bfn.  Coefficient  Atom+Function         Bfn.  Coefficient  Atom+Function  
  ----- ------------  ---------------      ----- ------------  ---------------
    15      0.708272  2 N  s                  1     -0.708272  1 N  s          
 
 Vector    3  Occ=2.000000D+00  E=-1.455332D+00  Symmetry=ag
              MO Center= -3.2D-20, -1.4D-19,  4.1D-17, r^2= 4.5D-01
   Bfn.  Coefficient  Atom+Function         Bfn.  Coefficient  Atom+Function  
  ----- ------------  ---------------      ----- ------------  ---------------
     2      0.334456  1 N  s                 16      0.334456  2 N  s          
     6      0.212667  1 N  pz                20     -0.212667  2 N  pz         
    17      0.199633  2 N  s                  3      0.199633  1 N  s          
 
 Vector    4  Occ=2.000000D+00  E=-7.810706D-01  Symmetry=b1u
              MO Center= -1.5D-35,  2.6D-35, -3.6D-17, r^2= 1.3D+00
   Bfn.  Coefficient  Atom+Function         Bfn.  Coefficient  Atom+Function  
  ----- ------------  ---------------      ----- ------------  ---------------
     3      0.422637  1 N  s                 17     -0.422637  2 N  s          
     2      0.330757  1 N  s                 16     -0.330757  2 N  s          
    20     -0.211673  2 N  pz                 6     -0.211673  1 N  pz         
 
 Vector    5  Occ=2.000000D+00  E=-5.991417D-01  Symmetry=b3u
              MO Center=  2.7D-19,  6.1D-30, -3.7D-17, r^2= 9.2D-01
   Bfn.  Coefficient  Atom+Function         Bfn.  Coefficient  Atom+Function  
  ----- ------------  ---------------      ----- ------------  ---------------
     4      0.424803  1 N  px                18      0.424803  2 N  px         
     7      0.261678  1 N  px                21      0.261678  2 N  px         
 
 Vector    6  Occ=2.000000D+00  E=-5.991417D-01  Symmetry=b2u
              MO Center= -8.6D-31,  1.8D-18,  6.0D-18, r^2= 9.2D-01
   Bfn.  Coefficient  Atom+Function         Bfn.  Coefficient  Atom+Function  
  ----- ------------  ---------------      ----- ------------  ---------------
     5      0.424803  1 N  py                19      0.424803  2 N  py         
     8      0.261678  1 N  py                22      0.261678  2 N  py         
 
 Vector    7  Occ=2.000000D+00  E=-6.243031D-01  Symmetry=ag
              MO Center= -2.4D-19, -9.8D-19, -2.3D-17, r^2= 1.3D+00
   Bfn.  Coefficient  Atom+Function         Bfn.  Coefficient  Atom+Function  
  ----- ------------  ---------------      ----- ------------  ---------------
    20      0.454776  2 N  pz                 6     -0.454776  1 N  pz         
     3      0.325938  1 N  s                 17      0.325938  2 N  s          
     9     -0.215854  1 N  pz                23      0.215854  2 N  pz         
 
 Vector    8  Occ=0.000000D+00  E= 1.643258D-01  Symmetry=b3g
              MO Center=  1.4D-32,  2.5D-19,  1.7D-18, r^2= 1.4D+00
   Bfn.  Coefficient  Atom+Function         Bfn.  Coefficient  Atom+Function  
  ----- ------------  ---------------      ----- ------------  ---------------
     8     -0.659298  1 N  py                22      0.659298  2 N  py         
    19      0.430296  2 N  py                 5     -0.430296  1 N  py         
 
 Vector    9  Occ=0.000000D+00  E= 1.643258D-01  Symmetry=b2g
              MO Center=  5.2D-19,  1.5D-32,  2.9D-18, r^2= 1.4D+00
   Bfn.  Coefficient  Atom+Function         Bfn.  Coefficient  Atom+Function  
  ----- ------------  ---------------      ----- ------------  ---------------
     7     -0.659298  1 N  px                21      0.659298  2 N  px         
    18      0.430296  2 N  px                 4     -0.430296  1 N  px         
 
 Vector   10  Occ=0.000000D+00  E= 5.872305D-01  Symmetry=b1u
              MO Center= -1.8D-20, -3.3D-20,  5.9D-16, r^2= 3.2D+00
   Bfn.  Coefficient  Atom+Function         Bfn.  Coefficient  Atom+Function  
  ----- ------------  ---------------      ----- ------------  ---------------
     3      3.681290  1 N  s                 17     -3.681290  2 N  s          
     9      2.530697  1 N  pz                23      2.530697  2 N  pz         
    16     -0.171492  2 N  s                  2      0.171492  1 N  s          
 
 Vector   11  Occ=0.000000D+00  E= 8.281903D-01  Symmetry=ag
              MO Center=  3.2D-20, -6.2D-19, -1.0D-15, r^2= 2.2D+00
   Bfn.  Coefficient  Atom+Function         Bfn.  Coefficient  Atom+Function  
  ----- ------------  ---------------      ----- ------------  ---------------
     9     -0.931169  1 N  pz                23      0.931169  2 N  pz         
     6      0.470205  1 N  pz                20     -0.470205  2 N  pz         
     2      0.293593  1 N  s                 16      0.293593  2 N  s          
     1      0.153879  1 N  s                 15      0.153879  2 N  s          
 
 Vector   12  Occ=0.000000D+00  E= 8.781767D-01  Symmetry=b3u
              MO Center=  2.5D-18,  2.3D-32, -6.6D-18, r^2= 1.8D+00
   Bfn.  Coefficient  Atom+Function         Bfn.  Coefficient  Atom+Function  
  ----- ------------  ---------------      ----- ------------  ---------------
     4      0.649040  1 N  px                18      0.649040  2 N  px         
     7     -0.620625  1 N  px                21     -0.620625  2 N  px         
 
 Vector   13  Occ=0.000000D+00  E= 8.781767D-01  Symmetry=b2u
              MO Center= -2.7D-30, -8.0D-19, -2.0D-17, r^2= 1.8D+00
   Bfn.  Coefficient  Atom+Function         Bfn.  Coefficient  Atom+Function  
  ----- ------------  ---------------      ----- ------------  ---------------
     5      0.649040  1 N  py                19      0.649040  2 N  py         
     8     -0.620625  1 N  py                22     -0.620625  2 N  py         
 
 Vector   14  Occ=0.000000D+00  E= 9.897850D-01  Symmetry=ag
              MO Center= -3.1D-18,  1.0D-18,  3.3D-16, r^2= 1.8D+00
   Bfn.  Coefficient  Atom+Function         Bfn.  Coefficient  Atom+Function  
  ----- ------------  ---------------      ----- ------------  ---------------
    16      1.041012  2 N  s                  2      1.041012  1 N  s          
    17     -0.936400  2 N  s                  3     -0.936400  1 N  s          
    15      0.428116  2 N  s                  1      0.428116  1 N  s          
    20      0.261075  2 N  pz                 6     -0.261075  1 N  pz         
     9      0.179120  1 N  pz                23     -0.179120  2 N  pz         
 
 Vector   15  Occ=0.000000D+00  E= 1.046234D+00  Symmetry=b3g
              MO Center=  1.2D-38,  2.9D-22,  3.4D-18, r^2= 2.0D+00
   Bfn.  Coefficient  Atom+Function         Bfn.  Coefficient  Atom+Function  
  ----- ------------  ---------------      ----- ------------  ---------------
     8     -1.143743  1 N  py                22      1.143743  2 N  py         
    19     -0.730958  2 N  py                 5      0.730958  1 N  py         
 
 Vector   16  Occ=0.000000D+00  E= 1.046234D+00  Symmetry=b2g
              MO Center=  4.8D-23,  7.2D-39, -1.9D-17, r^2= 2.0D+00
   Bfn.  Coefficient  Atom+Function         Bfn.  Coefficient  Atom+Function  
  ----- ------------  ---------------      ----- ------------  ---------------
     7     -1.143743  1 N  px                21      1.143743  2 N  px         
    18     -0.730958  2 N  px                 4      0.730958  1 N  px         
 
 Vector   17  Occ=0.000000D+00  E= 1.111767D+00  Symmetry=b1u
              MO Center=  1.1D-18, -1.5D-17, -2.4D-16, r^2= 1.2D+00
   Bfn.  Coefficient  Atom+Function         Bfn.  Coefficient  Atom+Function  
  ----- ------------  ---------------      ----- ------------  ---------------
     6      0.762980  1 N  pz                20      0.762980  2 N  pz         
     9     -0.354223  1 N  pz                23     -0.354223  2 N  pz         
    17     -0.336506  2 N  s                  3      0.336506  1 N  s          
    12     -0.224417  1 N  d  0              26      0.224417  2 N  d  0       
    16      0.186958  2 N  s                  2     -0.186958  1 N  s          
 

 center of mass
 --------------
 x =   0.00000000 y =   0.00000000 z =  -0.00000000

 moments of inertia (a.u.)
 ------------------
          31.325084422833           0.000000000000           0.000000000000
           0.000000000000          31.325084422833           0.000000000000
           0.000000000000           0.000000000000           0.000000000000
 
  Mulliken analysis of the total density
  --------------------------------------

    Atom       Charge   Shell Charges
 -----------   ------   -------------------------------------------------------
    1 N    7     7.00   2.00  0.86  0.89  2.10  1.08  0.06
    2 N    7     7.00   2.00  0.86  0.89  2.10  1.08  0.06
 
       Multipole analysis of the density wrt the origin
       ------------------------------------------------
 
     L   x y z        total         open         nuclear
     -   - - -        -----         ----         -------
     0   0 0 0      0.000000      0.000000     14.000000
 
     1   1 0 0     -0.000000      0.000000      0.000000
     1   0 1 0     -0.000000      0.000000      0.000000
     1   0 0 1     -0.000000      0.000000      0.000000
 
     2   2 0 0     -7.594995      0.000000      0.000000
     2   1 1 0     -0.000000      0.000000      0.000000
     2   1 0 1      0.000000      0.000000      0.000000
     2   0 2 0     -7.594995      0.000000      0.000000
     2   0 1 1     -0.000000      0.000000      0.000000
     2   0 0 2     -8.682060      0.000000     15.659108
 

 Parallel integral file used       8 records with       0 large values

                   NWChem MP2 Semi-direct Energy/Gradient Module
                   ---------------------------------------------
 
 
  Basis functions       =     28
  Molecular orbitals    =     28
  Frozen core           =      2
  Frozen virtuals       =      0
  Active alpha occupied =      5
  Active beta occupied  =      5
  Active alpha virtual  =     21
  Active beta virtual   =     21
  Use MO symmetry       = T
  Use skeleton AO sym   = T

  AO/Fock/Back tols     =   1.0D-11  1.0D-11  1.0D-11

 GA uses MA = F    GA memory limited = T

 Available: local mem=   183498596 global mem=      419425440 local disk=   17329160192.
   1 passes of   5:        1790178                       3277                      9841.
 
 Semi-direct pass number   1 of   1  for RHF alpha+beta  at       12.2s
Node 0 wrote      0.0 Mb in      0.0 s     Agg I/O rate:   133.1 Mb/s
 Done moints_semi at       12.4s
 Done maket at       12.5s
 Done pijab at       12.5s
 Done wijab at       12.5s
 Done lai at       12.5s
 Done nonsep at       12.9s
 Done multipass loop at       12.9s


          -------------------------------------------
          SCF energy                -108.949774310215
          Correlation energy          -0.312920750050
          Singlet pairs               -0.187212555808
          Triplet pairs               -0.125708194242
          Total MP2 energy          -109.262695060265
          -------------------------------------------

                                NWChem CPHF Module
                                ------------------
 
 
    scftype = RHF 
    nclosed =    7
      nopen =    0
  variables =      147
  tolerance =   1.0D-06
  max. iter =  100


 #quartets = 2.094D+03 #integrals = 1.510D+04 #direct =  0.0% #cached =100.0%


 Integral file          = /scratch/n2.aoints.0
 Record size in doubles =  65536        No. of integs per rec  =  43688
 Max. records in memory =      2        Max. records in file   = 251200
 No. of bits per label  =      8        No. of bits per value  =     64


File balance: exchanges=     0  moved=     0  time=   0.0


            ----- linear solve (tol: 1.0E-06 prod-acc: 1.1E-11) -----

               iter nbas    rnorm     rnorm-scal   ratio     time
               ---- ---- ----------- ----------- --------- -------
                  1    1  2.7921E-02  2.0930E-01    0.0000     5.7
                  2    2  4.6131E-03  3.4581E-02    0.1652     5.8
                  3    3  7.3473E-04  5.5078E-03    0.1593     5.8
                  4    4  8.0096E-05  6.0042E-04    0.1090     5.8
                  5    5  6.9700E-06  5.2249E-05    0.0870     5.8
                  6    6  4.1678E-07  3.1243E-06    0.0598     5.8
                  7    7  3.0716E-08  2.3026E-07    0.0737     5.8

 CPHF converged to   2.3D-07 in    7 iters


 Parallel integral file used       8 records with       0 large values

                Dipole Moments (a.u.)
                --------------
         Nuclear       SCF       SCF+MP2
       ----------- ----------- -----------
 X       0.000000   -0.000000   -0.000000
 Y       0.000000   -0.000000   -0.000000
 Z       0.000000    0.000000   -0.000000
 

 MP2 RHF      natural orbital occupation numbers


              1      
    1    2.0000
    2    2.0000
    3    1.9865
    4    1.9722
    5    1.9636
    6    1.9283
    7    1.9283
    8    0.0668
    9    0.0668
   10    0.0250
   11    0.0109
   12    0.0075
   13    0.0065
   14    0.0065
   15    0.0064
   16    0.0047
   17    0.0047
   18    0.0026
   19    0.0026
   20    0.0017
   21    0.0017
   22    0.0015
   23    0.0015
   24    0.0014
   25    0.0009
   26    0.0005
   27    0.0005
   28    0.0001
 
  MP2 natural orbitals output to ./n2.mp2nos
 
  Using symmetry


                         mp2 ENERGY GRADIENTS

    atom               coordinates                        gradient
                 x          y          z           x          y          z
   1 n       0.000000   0.000000  -1.057595    0.000000   0.000000   0.026069
   2 n       0.000000   0.000000   1.057595    0.000000   0.000000  -0.026069
 
                 ----------------------------------------
                 |  Time  |  1-e(secs)   |  2-e(secs)   |
                 ----------------------------------------
                 |  CPU   |       0.01   |       0.15   |
                 ----------------------------------------
                 |  WALL  |       0.01   |       0.15   |
                 ----------------------------------------
 -----------------------
 Performance information
 -----------------------

 Timer overhead =  1.66D-06 seconds/call

                                   Nr. of calls                 CPU time (s)              Wall time (s)  
                             -------------------------      ---------------------      ---------------------
 Name                        Min        Avg        Max      Min      Avg      Max      Min      Avg      Max
 mp2: moints                   1          1          1 0.20     0.20     0.20       0.20     0.20     0.20    
 mp2: maket                    1          1          1 7.81E-03 1.05E-02 1.17E-02   1.19E-02 1.20E-02 1.21E-02
 mp2: pijab                    1          1          1 9.76E-04 1.10E-03 1.95E-03   1.03E-03 1.10E-03 1.55E-03
 mp2: wijab                    1          1          1 9.76E-04 1.71E-03 1.95E-03   1.53E-03 1.53E-03 1.53E-03
 mp2: lai                      1          1          1 3.90E-03 4.51E-03 4.88E-03   4.49E-03 4.57E-03 4.59E-03
 mp2: backt                    1          1          1 1.76E-02 1.76E-02 1.76E-02   1.74E-02 1.74E-02 1.74E-02
 mp2: nonsep                   1          1          1 0.18     0.26     0.34       0.18     0.26     0.34    
 mp2: laifock                  1          1          1 0.11     0.11     0.11       0.11     0.11     0.11    
 mp2: cphf                     1          1          1 0.35     0.66     0.71       0.72     0.72     0.72    
 mp2: wijfock                  1          1          1 0.10     0.11     0.11       0.11     0.11     0.11    
 mp2: sep                      1          1          1 0.20     0.22     0.22       0.22     0.22     0.22    
 mp2: total                    1          1          1  1.7      2.2      2.3        2.3      2.3      2.3    

 The average no. of pstat calls per process was 1.20D+01 with a timing overhead of 1.99D-05s


  Step       Energy      Delta E   Gmax     Grms     Xrms     Xmax   Walltime
  ---- ---------------- -------- -------- -------- -------- -------- --------
@    1    -109.26269506 -5.4D-02  0.02607  0.02607  0.06509  0.11273     14.4
                                                                    



                                Z-matrix (autoz)
                                -------- 

 Units are Angstrom for bonds and degrees for angles
 
      Type          Name      I     J     K     L     M      Value     Gradient
      ----------- --------  ----- ----- ----- ----- ----- ---------- ----------
    1 Stretch                  1     2                       1.11931   -0.02607
 
                                 NWChem SCF Module
                                 -----------------
 
 

  ao basis        = "ao basis"
  functions       =    28
  atoms           =     2
  closed shells   =     7
  open shells     =     0
  charge          =   0.00
  wavefunction    = RHF 
  input vectors   = ./n2.movecs
  output vectors  = ./n2.movecs
  use symmetry    = T
  symmetry adapt  = T
  lock orbitals   = T


 Summary of "ao basis" -> "ao basis" (spherical)
 ------------------------------------------------------------------------------
       Tag                 Description            Shells   Functions and Types
 ---------------- ------------------------------  ------  ---------------------
 n                          cc-pvdz                  6       14   3s2p1d


      Symmetry analysis of basis
      --------------------------
 
        ag          7
        au          1
        b1g         1
        b1u         7
        b2g         3
        b2u         3
        b3g         3
        b3u         3
 

 Forming initial guess at      16.5s


 Loading old vectors from job with title :



 
      Symmetry analysis of molecular orbitals - initial
      -------------------------------------------------
 
  Numbering of irreducible representations: 
 
     1 ag          2 au          3 b1g         4 b1u         5 b2g     
     6 b2u         7 b3g         8 b3u     
 
  Orbital symmetries:
 
     1 ag          2 b1u         3 ag          4 b1u         5 b3u     
     6 b2u         7 ag          8 b3g         9 b2g        10 b1u     
    11 ag         12 b3u        13 b2u        14 ag         15 b3g     
    16 b2g        17 b1u     
 

 Starting SCF solution at      16.5s



 ----------------------------------------------
         Quadratically convergent ROHF

 Convergence threshold     :          1.000E-08
 Maximum no. of iterations :           20
 Final Fock-matrix accuracy:          1.000E-10
 ----------------------------------------------


 #quartets = 2.094D+03 #integrals = 1.510D+04 #direct =  0.0% #cached =100.0%


 Integral file          = /scratch/n2.aoints.0
 Record size in doubles =  65536        No. of integs per rec  =  43688
 Max. records in memory =      2        Max. records in file   = 251200
 No. of bits per label  =      8        No. of bits per value  =     64


File balance: exchanges=     0  moved=     0  time=   0.0


              iter       energy          gnorm     gmax       time
             ----- ------------------- --------- --------- --------
                 1     -108.9479913046  2.02D-02  9.66D-03      6.5
                 2     -108.9480218536  4.00D-04  1.73D-04      6.5
                 3     -108.9480218623  2.56D-08  1.21D-08      6.6
                 4     -108.9480218623  7.51D-10  4.86D-10      6.6
  movecs_lock                    6                    5
  movecs_lock                    7                    6
  movecs_lock                    5                    7
  movecs_lock                   27                   26
  movecs_lock                   26                   27


       Final RHF  results 
       ------------------ 

         Total SCF energy =   -108.948021862257
      One-electron energy =   -193.092785050858
      Two-electron energy =     61.108138197262
 Nuclear repulsion energy =     23.036624991339

        Time for solution =      0.4s


 
       Symmetry analysis of molecular orbitals - final
       -----------------------------------------------
 
  Numbering of irreducible representations: 
 
     1 ag          2 au          3 b1g         4 b1u         5 b2g     
     6 b2u         7 b3g         8 b3u     
 
  Orbital symmetries:
 
     1 ag          2 b1u         3 ag          4 b1u         5 b3u     
     6 b2u         7 ag          8 b3g         9 b2g        10 b1u     
    11 ag         12 b3u        13 b2u        14 ag         15 b3g     
    16 b2g        17 b1u     
 
             Final eigenvalues
             -----------------

              1      
    1  -15.6952
    2  -15.6923
    3   -1.4508
    4   -0.7831
    5   -0.5966
    6   -0.5966
    7   -0.6237
    8    0.1611
    9    0.1611
   10    0.5849
   11    0.8306
   12    0.8798
   13    0.8798
   14    0.9891
   15    1.0449
   16    1.0449
   17    1.1026
 
                       ROHF Final Molecular Orbital Analysis
                       -------------------------------------
 
 Vector    2  Occ=2.000000D+00  E=-1.569230D+01  Symmetry=b1u
              MO Center=  8.8D-21,  7.4D-21,  8.2D-17, r^2= 3.4D-01
   Bfn.  Coefficient  Atom+Function         Bfn.  Coefficient  Atom+Function  
  ----- ------------  ---------------      ----- ------------  ---------------
    15      0.708240  2 N  s                  1     -0.708240  1 N  s          
 
 Vector    3  Occ=2.000000D+00  E=-1.450766D+00  Symmetry=ag
              MO Center=  7.7D-36,  3.4D-36, -5.6D-18, r^2= 4.6D-01
   Bfn.  Coefficient  Atom+Function         Bfn.  Coefficient  Atom+Function  
  ----- ------------  ---------------      ----- ------------  ---------------
     2      0.334549  1 N  s                 16      0.334549  2 N  s          
     6      0.211160  1 N  pz                20     -0.211160  2 N  pz         
    17      0.201270  2 N  s                  3      0.201270  1 N  s          
 
 Vector    4  Occ=2.000000D+00  E=-7.830717D-01  Symmetry=b1u
              MO Center=  4.3D-21,  1.0D-20, -1.4D-17, r^2= 1.3D+00
   Bfn.  Coefficient  Atom+Function         Bfn.  Coefficient  Atom+Function  
  ----- ------------  ---------------      ----- ------------  ---------------
     3      0.422838  1 N  s                 17     -0.422838  2 N  s          
    16     -0.331704  2 N  s                  2      0.331704  1 N  s          
     6     -0.210417  1 N  pz                20     -0.210417  2 N  pz         
 
 Vector    5  Occ=2.000000D+00  E=-5.965902D-01  Symmetry=b3u
              MO Center=  2.4D-19,  6.1D-30,  8.6D-18, r^2= 9.3D-01
   Bfn.  Coefficient  Atom+Function         Bfn.  Coefficient  Atom+Function  
  ----- ------------  ---------------      ----- ------------  ---------------
     4      0.424347  1 N  px                18      0.424347  2 N  px         
     7      0.263030  1 N  px                21      0.263030  2 N  px         
 
 Vector    6  Occ=2.000000D+00  E=-5.965902D-01  Symmetry=b2u
              MO Center= -7.3D-31,  1.6D-18, -1.6D-17, r^2= 9.3D-01
   Bfn.  Coefficient  Atom+Function         Bfn.  Coefficient  Atom+Function  
  ----- ------------  ---------------      ----- ------------  ---------------
     5      0.424347  1 N  py                19      0.424347  2 N  py         
     8      0.263030  1 N  py                22      0.263030  2 N  py         
 
 Vector    7  Occ=2.000000D+00  E=-6.237234D-01  Symmetry=ag
              MO Center= -2.4D-19, -9.7D-19,  1.3D-16, r^2= 1.3D+00
   Bfn.  Coefficient  Atom+Function         Bfn.  Coefficient  Atom+Function  
  ----- ------------  ---------------      ----- ------------  ---------------
    20      0.454925  2 N  pz                 6     -0.454925  1 N  pz         
     3      0.324526  1 N  s                 17      0.324526  2 N  s          
     9     -0.216606  1 N  pz                23      0.216606  2 N  pz         
 
 Vector    8  Occ=0.000000D+00  E= 1.610976D-01  Symmetry=b3g
              MO Center=  1.4D-32,  2.1D-19,  1.3D-18, r^2= 1.4D+00
   Bfn.  Coefficient  Atom+Function         Bfn.  Coefficient  Atom+Function  
  ----- ------------  ---------------      ----- ------------  ---------------
     8     -0.654262  1 N  py                22      0.654262  2 N  py         
    19      0.430992  2 N  py                 5     -0.430992  1 N  py         
 
 Vector    9  Occ=0.000000D+00  E= 1.610976D-01  Symmetry=b2g
              MO Center=  5.1D-19,  1.5D-32,  2.5D-18, r^2= 1.4D+00
   Bfn.  Coefficient  Atom+Function         Bfn.  Coefficient  Atom+Function  
  ----- ------------  ---------------      ----- ------------  ---------------
     7     -0.654262  1 N  px                21      0.654262  2 N  px         
[...]
     3     -0.324324  1 N  s                 17     -0.324324  2 N  s          
    23     -0.216713  2 N  pz                 9      0.216713  1 N  pz         
 
 Vector    8  Occ=0.000000D+00  E= 1.606421D-01  Symmetry=b3g
              MO Center=  1.4D-32,  2.1D-19,  5.3D-17, r^2= 1.4D+00
   Bfn.  Coefficient  Atom+Function         Bfn.  Coefficient  Atom+Function  
  ----- ------------  ---------------      ----- ------------  ---------------
     8     -0.653556  1 N  py                22      0.653556  2 N  py         
    19      0.431089  2 N  py                 5     -0.431089  1 N  py         
 
 Vector    9  Occ=0.000000D+00  E= 1.606421D-01  Symmetry=b2g
              MO Center=  5.1D-19,  1.5D-32,  2.1D-18, r^2= 1.4D+00
   Bfn.  Coefficient  Atom+Function         Bfn.  Coefficient  Atom+Function  
  ----- ------------  ---------------      ----- ------------  ---------------
     7     -0.653556  1 N  px                21      0.653556  2 N  px         
    18      0.431089  2 N  px                 4     -0.431089  1 N  px         
 
 Vector   10  Occ=0.000000D+00  E= 5.845271D-01  Symmetry=b1u
              MO Center= -3.4D-21, -1.1D-20, -2.7D-16, r^2= 3.1D+00
   Bfn.  Coefficient  Atom+Function         Bfn.  Coefficient  Atom+Function  
  ----- ------------  ---------------      ----- ------------  ---------------
     3      3.596883  1 N  s                 17     -3.596883  2 N  s          
     9      2.496171  1 N  pz                23      2.496171  2 N  pz         
    16     -0.172500  2 N  s                  2      0.172500  1 N  s          
 
 Vector   11  Occ=0.000000D+00  E= 8.309057D-01  Symmetry=ag
              MO Center= -2.0D-22, -6.4D-19,  3.1D-16, r^2= 2.2D+00
   Bfn.  Coefficient  Atom+Function         Bfn.  Coefficient  Atom+Function  
  ----- ------------  ---------------      ----- ------------  ---------------
    23      0.926495  2 N  pz                 9     -0.926495  1 N  pz         
     6      0.473635  1 N  pz                20     -0.473635  2 N  pz         
    16      0.290422  2 N  s                  2      0.290422  1 N  s          
    15      0.152386  2 N  s                  1      0.152386  1 N  s          
 
 Vector   12  Occ=0.000000D+00  E= 8.800680D-01  Symmetry=b3u
              MO Center=  2.5D-18,  5.8D-32,  1.8D-17, r^2= 1.8D+00
   Bfn.  Coefficient  Atom+Function         Bfn.  Coefficient  Atom+Function  
  ----- ------------  ---------------      ----- ------------  ---------------
     4      0.651230  1 N  px                18      0.651230  2 N  px         
     7     -0.620866  1 N  px                21     -0.620866  2 N  px         
 
 Vector   13  Occ=0.000000D+00  E= 8.800680D-01  Symmetry=b2u
              MO Center= -5.7D-31, -2.8D-21,  2.0D-17, r^2= 1.8D+00
   Bfn.  Coefficient  Atom+Function         Bfn.  Coefficient  Atom+Function  
  ----- ------------  ---------------      ----- ------------  ---------------
     5      0.651230  1 N  py                19      0.651230  2 N  py         
     8     -0.620866  1 N  py                22     -0.620866  2 N  py         
 
 Vector   14  Occ=0.000000D+00  E= 9.890236D-01  Symmetry=ag
              MO Center= -3.0D-18,  7.3D-20, -9.6D-16, r^2= 1.8D+00
   Bfn.  Coefficient  Atom+Function         Bfn.  Coefficient  Atom+Function  
  ----- ------------  ---------------      ----- ------------  ---------------
     2      1.041965  1 N  s                 16      1.041965  2 N  s          
    17     -0.937340  2 N  s                  3     -0.937340  1 N  s          
    15      0.428513  2 N  s                  1      0.428513  1 N  s          
    20      0.258185  2 N  pz                 6     -0.258185  1 N  pz         
     9      0.177917  1 N  pz                23     -0.177917  2 N  pz         
 
 Vector   15  Occ=0.000000D+00  E= 1.044715D+00  Symmetry=b3g
              MO Center=  1.7D-40,  9.7D-21, -8.3D-17, r^2= 2.0D+00
   Bfn.  Coefficient  Atom+Function         Bfn.  Coefficient  Atom+Function  
  ----- ------------  ---------------      ----- ------------  ---------------
     8     -1.139344  1 N  py                22      1.139344  2 N  py         
    19     -0.730376  2 N  py                 5      0.730376  1 N  py         
 
 Vector   16  Occ=0.000000D+00  E= 1.044715D+00  Symmetry=b2g
              MO Center=  9.2D-21,  1.2D-36,  3.0D-20, r^2= 2.0D+00
   Bfn.  Coefficient  Atom+Function         Bfn.  Coefficient  Atom+Function  
  ----- ------------  ---------------      ----- ------------  ---------------
     7     -1.139344  1 N  px                21      1.139344  2 N  px         
    18     -0.730376  2 N  px                 4      0.730376  1 N  px         
 
 Vector   17  Occ=0.000000D+00  E= 1.101271D+00  Symmetry=b1u
              MO Center=  1.1D-18, -1.5D-17, -2.9D-16, r^2= 1.2D+00
   Bfn.  Coefficient  Atom+Function         Bfn.  Coefficient  Atom+Function  
  ----- ------------  ---------------      ----- ------------  ---------------
     6      0.764895  1 N  pz                20      0.764895  2 N  pz         
     9     -0.406615  1 N  pz                23     -0.406615  2 N  pz         
     3      0.242801  1 N  s                 17     -0.242801  2 N  s          
    12     -0.222234  1 N  d  0              26      0.222234  2 N  d  0       
    16      0.175487  2 N  s                  2     -0.175487  1 N  s          
 

 center of mass
 --------------
 x =   0.00000000 y =   0.00000000 z =   0.00000000

 moments of inertia (a.u.)
 ------------------
          31.727354509544           0.000000000000           0.000000000000
           0.000000000000          31.727354509544           0.000000000000
           0.000000000000           0.000000000000           0.000000000000
 
  Mulliken analysis of the total density
  --------------------------------------

    Atom       Charge   Shell Charges
 -----------   ------   -------------------------------------------------------
    1 N    7     7.00   2.00  0.86  0.89  2.10  1.08  0.06
    2 N    7     7.00   2.00  0.86  0.89  2.10  1.08  0.06
 
       Multipole analysis of the density wrt the origin
       ------------------------------------------------
 
     L   x y z        total         open         nuclear
     -   - - -        -----         ----         -------
     0   0 0 0      0.000000      0.000000     14.000000
 
     1   1 0 0     -0.000000      0.000000      0.000000
     1   0 1 0     -0.000000      0.000000      0.000000
     1   0 0 1     -0.000000      0.000000     -0.000000
 
     2   2 0 0     -7.613054      0.000000      0.000000
     2   1 1 0      0.000000      0.000000      0.000000
     2   1 0 1     -0.000000      0.000000      0.000000
     2   0 2 0     -7.613054      0.000000      0.000000
     2   0 1 1     -0.000000      0.000000      0.000000
     2   0 0 2     -8.686585      0.000000     15.860199
 

 Parallel integral file used       8 records with       0 large values

 
 
                   Four-Index Transformation
                   -------------------------
          Number of basis functions:             28
          Number of shells:                      12
          Number of occupied orbitals:            7
          Number of occ. correlated orbitals:     5
          Block length:                          16
          Superscript MO index range:        3 -  7
          Subscript MO index range:          3 - 28
          MO coefficients read from:  ./n2.movecs              
          Number of operator matrices in core:   30
          Half-transformed integrals produced
 
     Pass:    1     Index range:    3  -    7     Time:      0.19
 ------------------------------------------
 MP2 Energy (coupled cluster initial guess)
 ------------------------------------------
 Reference energy:           -108.947756822830864
 MP2 Corr. energy:             -0.315168580394010
 Total MP2 energy:           -109.262925403224887


 ****************************************************************************
              the segmented parallel ccsd program:  8 nodes
 ****************************************************************************




 level of theory    ccsd(t)
 number of core         2
 number of occupied     5
 number of virtual     21
 number of deleted      0
 total functions       28
 number of shells      12
 basis label          566



   ***** ccsd parameters *****
   iprt   =     0
   convi  = 0.100E-07
   maxit  =    20
   mxvec  =     5
 memory            183497988
  Restarting from old vector in ./n2.t2


-------------------------------------------------------------------------
 iter     correlation     delta       rms       T2     Non-T2      Main
             energy      energy      error      ampl     ampl      Block
                                                time     time      time
-------------------------------------------------------------------------
   1     -0.3164367169 -3.164D-01  4.578D-02     0.30     0.00     0.26
   2     -0.3142089625  2.228D-03  1.077D-02     0.30     0.00     0.26
   3     -0.3158200586 -1.611D-03  2.287D-03     0.31     0.00     0.26
   4     -0.3156607151  1.593D-04  1.411D-03     0.31     0.00     0.27
   5     -0.3157785776 -1.179D-04  1.455D-04     0.31     0.00     0.26
   6     -0.3157841547 -5.577D-06  4.460D-05     0.30     0.00     0.26
   7     -0.3157881660 -4.011D-06  1.589D-05     0.31     0.00     0.27
   8     -0.3157896432 -1.477D-06  4.895D-06     0.31     0.00     0.27
   9     -0.3157899167 -2.735D-07  1.822D-06     0.30     0.00     0.26
  10     -0.3157899456 -2.887D-08  3.154D-07     0.30     0.00     0.26
  11     -0.3157899480 -2.405D-09  4.787D-08     0.30     0.00     0.26
  12     -0.3157899504 -2.434D-09  8.189D-09     0.31     0.00     0.27
                  *************converged*************
-------------------------------------------------------------------------

 -----------
 CCSD Energy
 -----------
 Reference energy:            -108.947756822830864
 CCSD corr. energy:             -0.315789950434289
 Total CCSD energy:           -109.263546773265151
 memory            183497988


*********triples calculation*********

nkpass= 1; nvpass=  1; memdrv=   14217; memtrn=  337672; memavail=********
 memory available/node                ********
 total number of virtual orbitals        21
 number of virtuals per integral pass    21
 number of integral evaluations           1
 number of occupied per triples pass      5
 number of triples passes                 1

 commencing integral evaluation        1
 Time for integral evaluation pass     1     0.21
 Time for triples evaluation pass      1     0.06

 pseudo-e(mp4)  -0.13588994985646E-01
 pseudo-e(mp5)   0.79838360226933E-03
        e(t)    -0.12790611383377E-01

 --------------
 CCSD(T) Energy
 --------------
 Reference energy:                    -108.947756822830864

 CCSD corr. energy:                     -0.315789950434289
 T(CCSD) corr. energy:                  -0.013588994985646
 Total CCSD+T(CCSD) energy:           -109.277135768250822

 CCSD corr. energy:                     -0.315789950434289
 (T) corr. energy:                      -0.012790611383377
 Total CCSD(T) energy:                -109.276337384648547
 
 routine      calls  cpu(0)   cpu-min  cpu-ave  cpu-max   i/o 
 aoccsd          1     0.01     0.01     0.01     0.01    0.00
 iterdrv         1     0.15     0.15     0.15     0.15    0.00
 pampt          12     0.06     0.06     0.06     0.06    0.00
 t2pm           12     0.04     0.04     0.04     0.04    0.00
 sxy            12     2.90     2.88     2.90     2.92    0.00
 t2eri        8424     0.06     0.05     0.06     0.07    0.00
 idx1         8424     0.04     0.04     0.04     0.04    0.00
 idx2          108     0.11     0.10     0.11     0.13    0.00
 idx34          12     0.00     0.00     0.00     0.00    0.00
 ht2pm          12     0.04     0.04     0.04     0.04    0.00
 itm            12     0.35     0.35     0.35     0.35    0.00
 pdiis          12     0.00     0.00     0.00     0.00    0.00
 triples         1     0.29     0.29     0.29     0.29    0.00
 trpdrv          1     0.02     0.02     0.03     0.03    0.00
 dovvv         420     0.02     0.02     0.02     0.02    0.00
 doooo         420     0.01     0.01     0.01     0.01    0.00
 tengy         350     0.01     0.01     0.01     0.01    0.00
 Total                 4.11     4.11     4.11     4.12    0.00
 step    -1 energy        -109.27633738
            gradient         0.000020


                         CCSD ENERGY GRADIENTS

    atom               coordinates                        gradient
                 x          y          z           x          y          z
   1 n       0.000000   0.000000  -1.057293    0.000000   0.000000   0.000014
   2 n       0.000000   0.000000   1.057293    0.000000   0.000000  -0.000014
 
 

 Deleting state for ccsd(t) with suffix numg
        ./n2.movecs
 

  Step       Energy      Delta E   Gmax     Grms     Xrms     Xmax   Walltime
  ---- ---------------- -------- -------- -------- -------- -------- --------
@    2    -109.27648209 -5.5D-08  0.00001  0.00001  0.00012  0.00021    215.3
                                     ok       ok       ok       ok  



                                Z-matrix (autoz)
                                -------- 

 Units are Angstrom for bonds and degrees for angles
 
      Type          Name      I     J     K     L     M      Value     Gradient
      ----------- --------  ----- ----- ----- ----- ----- ---------- ----------
    1 Stretch                  1     2                       1.11899   -0.00001
 

      ----------------------
      Optimization converged
      ----------------------


  Step       Energy      Delta E   Gmax     Grms     Xrms     Xmax   Walltime
  ---- ---------------- -------- -------- -------- -------- -------- --------
@    2    -109.27648209 -5.5D-08  0.00001  0.00001  0.00012  0.00021    215.3
                                     ok       ok       ok       ok  



                                Z-matrix (autoz)
                                -------- 

 Units are Angstrom for bonds and degrees for angles
 
      Type          Name      I     J     K     L     M      Value     Gradient
      ----------- --------  ----- ----- ----- ----- ----- ---------- ----------
    1 Stretch                  1     2                       1.11899   -0.00001
 
 
 
                         Geometry "geometry" -> "geometry"
                         ---------------------------------
 
 Output coordinates in angstroms (scale by  1.889725989 to convert to a.u.)
 
  No.       Tag          Charge          X              Y              Z
 ---- ---------------- ---------- -------------- -------------- --------------
    1 n                    7.0000     0.00000000     0.00000000    -0.55949553
    2 n                    7.0000     0.00000000     0.00000000     0.55949553
 
      Atomic Mass 
      ----------- 
 
      n                 14.003070
 

 Effective nuclear repulsion energy (a.u.)      23.1723792937

            Nuclear Dipole moment (a.u.) 
            ----------------------------
        X                 Y               Z
 ---------------- ---------------- ----------------
     0.0000000000     0.0000000000     0.0000000000
 
      Symmetry information
      --------------------
 
 Group name             D2h       
 Group number             26
 Group order               8
 No. of unique centers     1
 
      Symmetry unique atoms
 
     1
 
 
                Final and change from initial internal coordinates
                --------------------------------------------------
 


                                Z-matrix (autoz)
                                -------- 

 Units are Angstrom for bonds and degrees for angles
 
      Type          Name      I     J     K     L     M      Value       Change
      ----------- --------  ----- ----- ----- ----- ----- ---------- ----------
    1 Stretch                  1     2                       1.11899    0.00620
 
 ==============================================================================
                                internuclear distances
 ------------------------------------------------------------------------------
       center one      |      center two      | atomic units |  angstroms
 ------------------------------------------------------------------------------
    2 n                |   1 n                |     2.11459  |     1.11899
 ------------------------------------------------------------------------------
                         number of included internuclear distances:          1
 ==============================================================================




 Task  times  cpu:       45.9s     wall:       89.0s
 
 
                                NWChem Input Module
                                -------------------
 
 
 Summary of allocated global arrays
-----------------------------------
  No active global arrays



                         GA Statistics for process    0
                         ------------------------------

       create   destroy   get      put      acc     scatter   gather  read&inc
calls: 1.11e+04 1.11e+04 3.53e+05 1.14e+05 1.17e+05    4        0        0     
number of processes/call 1.22e+00 1.46e+00 1.45e+00 7.00e+00 0.00e+00
bytes total:             7.46e+08 1.38e+08 2.43e+08 2.24e+02 0.00e+00 0.00e+00
bytes remote:            4.51e+08 4.68e+07 1.50e+08 1.92e+02 0.00e+00 0.00e+00
Max memory consumed for GA by this process: 341344 bytes
 
MA_summarize_allocated_blocks: starting scan ...
MA_summarize_allocated_blocks: scan completed: 0 heap blocks, 0 stack blocks
MA usage statistics:

	allocation statistics:
					      heap	     stack
					      ----	     -----
	current number of blocks	         0	         0
	maximum number of blocks	        26	        36
	current total bytes		         0	         0
	maximum total bytes		   1063776	  29508520
	maximum total K-bytes		      1064	     29509
	maximum total M-bytes		         2	        30



                                  ACKNOWLEDGEMENT
                                  ---------------

            Please use the following acknowledgement where appropriate 
            for results obtained with NWChem:

            High Performance Computational Chemistry Group, "NWChem, A
            Computational Chemistry Package for Parallel Computers, 
            Version 4.5" (2003), Pacific Northwest National Laboratory,
            Richland, Washington 99352-0999, USA.


                                     CITATION
                                     --------

            Please use the following citation when publishing results
            obtained with NWChem:

            E. Apra, E. J. Bylaska,  W. de Jong, M. T. Hackler, S. Hirata,
            L. Pollack, D. Smith, T. P. Straatsma, T. L. Windus, R. J. Harrison,
            J. Nieplocha, V. Tipparaju, M. Kumar,
            E. Brown, G. Cisneros, M. Dupuis, G. I. Fann, H. Fruchtl,
            J. Garza, K. Hirao, R. Kendall, J. A. Nichols,  K. Tsemekhman,
            M. Valiev, K. Wolinski,
            J. Anchell, D. Bernholdt, P. Borowski, T. Clark, D. Clerc,
            H. Dachsel, M. Deegan, K. Dyall, D. Elwood,  E. Glendening,
            M. Gutowski, A. Hess, J. Jaffe, B. Johnson, J. Ju, R. Kobayashi,
            R. Kutteh, Z. Lin, R. Littlefield, X. Long, B. Meng, T. Nakajima,
             S. Niu, M. Rosing, G. Sandrone,  M. Stave, H. Taylor, G. Thomas,
            J. van Lenthe, A. Wong, and Z. Zhang,
            "NWChem, A Computational Chemistry Package for Parallel Computers, 
            Version 4.5" (2003),
                      Pacific Northwest National Laboratory,
                      Richland, Washington 99352-0999, USA.



 Total times  cpu:      109.5s     wall:      215.4s
prun: initialise resource 48759
prun: resource 48759 starting 8 processes on 8 cpus default memlimit no timelimit
