 argument  1 = h3tr1.nw
                                         
                                         


              Northwest Computational Chemistry Package (NWChem) 4.0
              ------------------------------------------------------


                    Environmental Molecular Sciences Laboratory
                       Pacific Northwest National Laboratory
                                Richland, WA 99352

                                         
                                         


            COPYRIGHT (C) 1994, 1995, 1996, 1997, 1998, 1999, 2000, 2001
                        Pacific Northwest National Laboratory,
                             Battelle Memorial Institute.

                            >>> All Rights Reserved <<<


                                    DISCLAIMER
                                    ----------

            This material was prepared as an account of work sponsored
            by an agency of the United States Government.  Neither the
            United States Government nor the United States Department
            of Energy, nor Battelle, nor any of their employees, MAKES
            ANY WARRANTY, EXPRESS OR IMPLIED, OR ASSUMES ANY LEGAL
            LIABILITY OR RESPONSIBILITY FOR THE ACCURACY, COMPLETENESS,
            OR USEFULNESS OF ANY INFORMATION, APPARATUS, PRODUCT,
            SOFTWARE, OR PROCESS DISCLOSED, OR REPRESENTS THAT ITS USE
            WOULD NOT INFRINGE PRIVATELY OWNED RIGHTS.


                                    LIMITED USE
                                    -----------

            This software (including any documentation) is being made
            available to you for your internal use only, solely for use
            in performance of work directly for the U.S. Federal
            Government or work under contracts with the U.S. Department
            of Energy or other U.S. Federal Government agencies.  This
            software is a version which has not yet been evaluated and
            cleared for commercialization.  Adherence to this notice
            may be necessary for the author, Battelle Memorial
            Institute, to successfully assert copyright in and
            commercialize this software. This software is not intended
            for duplication or distribution to third parties without
            the permission of the Manager of Software Products at
            Pacific Northwest National Laboratory, Richland,
            Washington, 99352.


                                  ACKNOWLEDGMENT
                                  --------------

            This software and its documentation were produced with
            Government support under Contract Number DE-AC06-76RLO-1830
            awarded by the United States Department of Energy.  The
            Government retains a paid-up non-exclusive, irrevocable
            worldwide license to reproduce, prepare derivative works,
            perform publicly and display publicly by or for the
            Government, including the right to distribute to other
            Government contractors.


           Job information
           ---------------

    hostname      = skor
    program       = /home/windus/nwchem/bin/LINUX/nwchem
    date          = Wed Feb 13 13:26:51 2002

    compiled      = Wed Feb 13 13:26:46 PST 2002
    source        = /home/windus/nwchem
    nwchem branch = Development
    input         = h3tr1.nw
    prefix        = h3.
    data base     = ./h3.db
    status        = startup
    nproc         =    1
    time left     =     -1s



           Memory information
           ------------------

    heap      =   19660794 doubles =    150.0 Mbytes
    stack     =    6553587 doubles =     50.0 Mbytes
    global    =   26214404 doubles =    200.0 Mbytes (within heap+stack)
    total     =   26214381 doubles =    200.0 Mbytes
    verify    = yes
    hardfail  = no 


           Directory information
           ---------------------

  0 permanent = .
  0 scratch   = .




                                NWChem Input Module
                                -------------------


  library name resolved from: .nwchemrc
  library file name is: </msrc/proj/nwchem/share/library>
  
                      Basis "ao basis" -> "" (cartesian)
                      -----
  h (Hydrogen)
  ------------
            Exponent  Coefficients 
       -------------- ---------------------------------------------------------
  1 S  5.44717800E+00  0.156285
  1 S  8.24547000E-01  0.904691

  2 S  1.83192000E-01  1.000000



 Summary of "ao basis" -> "" (cartesian)
 ------------------------------------------------------------------------------
       Tag                 Description            Shells   Functions and Types
 ---------------- ------------------------------  ------  ---------------------
 h                           3-21G                   2        2   2s




 DIRDYVTST - DiRect DYnamics for Variational Transition State Theory with the NWChem  electronic structure code

     This code prepares the file30 input for POLYRATE from electronic structure calculations of gradients
     hessians at the reactant, product, and saddle point geometries, and along the minimum energy path.
     Cartesian geometries for the reactants, products, and saddle points need to be input to this code;
     optimization for these geometries is not performed in the code.  Points along the minimum energy path
     are calculated here.

 Options, lgs=
   1 1 0 0 0 1 0 0 0 0 0 0 0 0 0 0 0 0 0 0 0 0 0 0 0 0 0 0 0 0 1 0 0 0 0 0 0 0 0

           Note that only lgs 1,2,6,8,27,31,38,39 are used.

     lgs( 1)= 1, saddle point; MEP started along unbound eigenvector
     lgs( 2)= 1, print frequencies and eigenvectors at save points along MEP
     lgs( 6)= 1,  2, reactants,  2, products
     lgs( 8)= 0, no restart
     lgs(27)= 0, use original direction of unbound eigenvector at saddle point
     lgs(31)= 1, MEP calculation uses euler integrator
     lgs(38)= 0, No electronic structure files saved
     lgs(39)= 0, No single point calculation  performed


 Title:
     Test run: H+H2 reaction, Euler integration, no restart                      


 Number of atoms =     3


 Masses
                                  amu             a.u.            kg
     Mass of atom  1           1.007825      1837.108749   1.673231E-27
     Mass of atom  2           1.007825      1837.108749   1.673231E-27
     Mass of atom  3           1.007825      1837.108749   1.673231E-27
     Forward reduced mass      0.671899      1224.768271   1.115514E-27


 Reactants

     Input geometry (cartesian coordinates in au)
      atom            x             y             z
        1          0.00000       0.00000       0.00000
        2          0.00000       0.00000       1.38861
        3          0.00000       0.00000     190.36121

     Species 1 consists of atom(s):    1  2
          icode=    3

     Species 2 consists of atom(s):    3
          icode=    1


 Products

     Input geometry (cartesian coordinates in au)
      atom            x             y             z
        1          0.00000       0.00000     190.36121
        2          0.00000       0.00000       1.38861
        3          0.00000       0.00000       0.00000

     Species 3 consists of atom(s):    2  3
          icode=    3

     Species 4 consists of atom(s):    1
          icode=    1


 Saddle point or starting geometry on MEP

     Input geometry (cartesian coordinates in au)
      atom            x             y             z
        1          0.00000       0.00000      -1.76532
        2          0.00000       0.00000       0.00000
        3          0.00000       0.00000       1.76532
          icode=    3

 Mass scaled coordinates, rotated so principle axes are aligned

     Reactants
      atom            x             y             z
        1          0.00000       0.00000     -78.28061
        2          0.00000       0.00000     -76.57993
        3          0.00000       0.00000     154.86054

     Products
      atom            x             y             z
        1          0.00000       0.00000    -154.86054
        2          0.00000       0.00000      76.57993
        3          0.00000       0.00000      78.28061

     Saddle point or starting geometry on MEP
      atom            x             y             z
        1          0.00000       0.00000      -2.16204
        2          0.00000       0.00000       0.00000
        3          0.00000       0.00000       2.16204


 Parameters for MEP calculation

     Step size, dels=  0.010000
     Interval for saving Hessian data, delsv =  0.050000
     Interval for computing Hessian data, delhss =  0.050000
     Path also stopped if s .gt.  0.500000 or s .lt. -0.500000


 ********** Reactants

 Geometry in mass-scaled cartesians (bohrs):

                 x               y               z
   1        0.000000E+00    0.000000E+00   -7.828061E+01
   2        0.000000E+00    0.000000E+00   -7.657993E+01
   3        0.000000E+00    0.000000E+00    1.548605E+02
 Symmetry group is C4V
  stpr_wrt_fd_from_sq: overwrite of existing file:./h3.hess
 stpr_wrt_fd_dipole: overwrite of existing file./h3.fd_ddipole
In transpose
ailo 1 aihi 6 adim1 6 ajlo 1 ajhi 6 adim2 6
In no transpose
bilo 1 bihi 6 bdim1 6 bjlo 1 bjhi 6 bdim2 6
cilo 1 cihi 6 cdim1 6 cjlo 1 cjhi 6 cdim2 6
In no transpose
ailo 1 aihi 6 adim1 6 ajlo 1 ajhi 6 adim2 6
In no transpose
bilo 1 bihi 6 bdim1 6 bjlo 1 bjhi 6 bdim2 6
cilo 1 cihi 6 cdim1 6 cjlo 1 cjhi 6 cdim2 6
In transpose
ailo 1 aihi 6 adim1 6 ajlo 1 ajhi 6 adim2 6
In no transpose
bilo 1 bihi 6 bdim1 6 bjlo 1 bjhi 6 bdim2 6
cilo 1 cihi 6 cdim1 6 cjlo 1 cjhi 6 cdim2 6
In no transpose
ailo 1 aihi 6 adim1 6 ajlo 1 ajhi 6 adim2 6
In no transpose
bilo 1 bihi 6 bdim1 6 bjlo 1 bjhi 6 bdim2 6
cilo 1 cihi 6 cdim1 6 cjlo 1 cjhi 6 cdim2 6
In transpose
ailo 1 aihi 6 adim1 6 ajlo 1 ajhi 6 adim2 6
In no transpose
bilo 1 bihi 6 bdim1 6 bjlo 1 bjhi 6 bdim2 6
cilo 1 cihi 6 cdim1 6 cjlo 1 cjhi 6 cdim2 6
In no transpose
ailo 1 aihi 6 adim1 6 ajlo 1 ajhi 6 adim2 6
In no transpose
bilo 1 bihi 6 bdim1 6 bjlo 1 bjhi 6 bdim2 6
cilo 1 cihi 6 cdim1 6 cjlo 1 cjhi 6 cdim2 6
In transpose
ailo 1 aihi 6 adim1 6 ajlo 1 ajhi 6 adim2 6
In no transpose
bilo 1 bihi 6 bdim1 6 bjlo 1 bjhi 6 bdim2 6
cilo 1 cihi 6 cdim1 6 cjlo 1 cjhi 6 cdim2 6
In no transpose
ailo 1 aihi 6 adim1 6 ajlo 1 ajhi 6 adim2 6
In no transpose
bilo 1 bihi 6 bdim1 6 bjlo 1 bjhi 6 bdim2 6
cilo 1 cihi 6 cdim1 6 cjlo 1 cjhi 6 cdim2 6
In transpose
ailo 1 aihi 6 adim1 6 ajlo 1 ajhi 6 adim2 6
In no transpose
bilo 1 bihi 6 bdim1 6 bjlo 1 bjhi 6 bdim2 6
cilo 1 cihi 6 cdim1 6 cjlo 1 cjhi 6 cdim2 6
In no transpose
ailo 1 aihi 6 adim1 6 ajlo 1 ajhi 6 adim2 6
In no transpose
bilo 1 bihi 6 bdim1 6 bjlo 1 bjhi 6 bdim2 6
cilo 1 cihi 6 cdim1 6 cjlo 1 cjhi 6 cdim2 6
In transpose
ailo 1 aihi 6 adim1 6 ajlo 1 ajhi 6 adim2 6
In no transpose
bilo 1 bihi 6 bdim1 6 bjlo 1 bjhi 6 bdim2 6
cilo 1 cihi 6 cdim1 6 cjlo 1 cjhi 6 cdim2 6
In no transpose
ailo 1 aihi 6 adim1 6 ajlo 1 ajhi 6 adim2 6
In no transpose
bilo 1 bihi 6 bdim1 6 bjlo 1 bjhi 6 bdim2 6
cilo 1 cihi 6 cdim1 6 cjlo 1 cjhi 6 cdim2 6
In transpose
ailo 1 aihi 6 adim1 6 ajlo 1 ajhi 6 adim2 6
In no transpose
bilo 1 bihi 6 bdim1 6 bjlo 1 bjhi 6 bdim2 6
cilo 1 cihi 6 cdim1 6 cjlo 1 cjhi 6 cdim2 6
In no transpose
ailo 1 aihi 6 adim1 6 ajlo 1 ajhi 6 adim2 6
In no transpose
bilo 1 bihi 6 bdim1 6 bjlo 1 bjhi 6 bdim2 6
cilo 1 cihi 6 cdim1 6 cjlo 1 cjhi 6 cdim2 6
In transpose
ailo 1 aihi 6 adim1 6 ajlo 1 ajhi 6 adim2 6
In no transpose
bilo 1 bihi 6 bdim1 6 bjlo 1 bjhi 6 bdim2 6
cilo 1 cihi 6 cdim1 6 cjlo 1 cjhi 6 cdim2 6
In no transpose
ailo 1 aihi 6 adim1 6 ajlo 1 ajhi 6 adim2 6
In no transpose
bilo 1 bihi 6 bdim1 6 bjlo 1 bjhi 6 bdim2 6
cilo 1 cihi 6 cdim1 6 cjlo 1 cjhi 6 cdim2 6
In transpose
ailo 1 aihi 6 adim1 6 ajlo 1 ajhi 6 adim2 6
In no transpose
bilo 1 bihi 6 bdim1 6 bjlo 1 bjhi 6 bdim2 6
cilo 1 cihi 6 cdim1 6 cjlo 1 cjhi 6 cdim2 6
In no transpose
ailo 1 aihi 6 adim1 6 ajlo 1 ajhi 6 adim2 6
In no transpose
bilo 1 bihi 6 bdim1 6 bjlo 1 bjhi 6 bdim2 6
cilo 1 cihi 6 cdim1 6 cjlo 1 cjhi 6 cdim2 6
In transpose
ailo 1 aihi 6 adim1 6 ajlo 1 ajhi 6 adim2 6
In no transpose
bilo 1 bihi 6 bdim1 6 bjlo 1 bjhi 6 bdim2 6
cilo 1 cihi 6 cdim1 6 cjlo 1 cjhi 6 cdim2 6
In no transpose
ailo 1 aihi 6 adim1 6 ajlo 1 ajhi 6 adim2 6
In no transpose
bilo 1 bihi 6 bdim1 6 bjlo 1 bjhi 6 bdim2 6
cilo 1 cihi 6 cdim1 6 cjlo 1 cjhi 6 cdim2 6
In transpose
ailo 1 aihi 6 adim1 6 ajlo 1 ajhi 6 adim2 6
In no transpose
bilo 1 bihi 6 bdim1 6 bjlo 1 bjhi 6 bdim2 6
cilo 1 cihi 6 cdim1 6 cjlo 1 cjhi 6 cdim2 6
In no transpose
ailo 1 aihi 6 adim1 6 ajlo 1 ajhi 6 adim2 6
In no transpose
bilo 1 bihi 6 bdim1 6 bjlo 1 bjhi 6 bdim2 6
cilo 1 cihi 6 cdim1 6 cjlo 1 cjhi 6 cdim2 6
In transpose
ailo 1 aihi 6 adim1 6 ajlo 1 ajhi 6 adim2 6
In no transpose
bilo 1 bihi 6 bdim1 6 bjlo 1 bjhi 6 bdim2 6
cilo 1 cihi 6 cdim1 6 cjlo 1 cjhi 6 cdim2 6
In no transpose
ailo 1 aihi 6 adim1 6 ajlo 1 ajhi 6 adim2 6
In no transpose
bilo 1 bihi 6 bdim1 6 bjlo 1 bjhi 6 bdim2 6
cilo 1 cihi 6 cdim1 6 cjlo 1 cjhi 6 cdim2 6
In transpose
ailo 1 aihi 6 adim1 6 ajlo 1 ajhi 6 adim2 6
In no transpose
bilo 1 bihi 6 bdim1 6 bjlo 1 bjhi 6 bdim2 6
cilo 1 cihi 6 cdim1 6 cjlo 1 cjhi 6 cdim2 6
In no transpose
ailo 1 aihi 6 adim1 6 ajlo 1 ajhi 6 adim2 6
In no transpose
bilo 1 bihi 6 bdim1 6 bjlo 1 bjhi 6 bdim2 6
cilo 1 cihi 6 cdim1 6 cjlo 1 cjhi 6 cdim2 6
In transpose
ailo 1 aihi 6 adim1 6 ajlo 1 ajhi 6 adim2 6
In no transpose
bilo 1 bihi 6 bdim1 6 bjlo 1 bjhi 6 bdim2 6
cilo 1 cihi 6 cdim1 6 cjlo 1 cjhi 6 cdim2 6
In no transpose
ailo 1 aihi 6 adim1 6 ajlo 1 ajhi 6 adim2 6
In no transpose
bilo 1 bihi 6 bdim1 6 bjlo 1 bjhi 6 bdim2 6
cilo 1 cihi 6 cdim1 6 cjlo 1 cjhi 6 cdim2 6
In transpose
ailo 1 aihi 6 adim1 6 ajlo 1 ajhi 6 adim2 6
In no transpose
bilo 1 bihi 6 bdim1 6 bjlo 1 bjhi 6 bdim2 6
cilo 1 cihi 6 cdim1 6 cjlo 1 cjhi 6 cdim2 6
In no transpose
ailo 1 aihi 6 adim1 6 ajlo 1 ajhi 6 adim2 6
In no transpose
bilo 1 bihi 6 bdim1 6 bjlo 1 bjhi 6 bdim2 6
cilo 1 cihi 6 cdim1 6 cjlo 1 cjhi 6 cdim2 6
In transpose
ailo 1 aihi 6 adim1 6 ajlo 1 ajhi 6 adim2 6
In no transpose
bilo 1 bihi 6 bdim1 6 bjlo 1 bjhi 6 bdim2 6
cilo 1 cihi 6 cdim1 6 cjlo 1 cjhi 6 cdim2 6
In no transpose
ailo 1 aihi 6 adim1 6 ajlo 1 ajhi 6 adim2 6
In no transpose
bilo 1 bihi 6 bdim1 6 bjlo 1 bjhi 6 bdim2 6
cilo 1 cihi 6 cdim1 6 cjlo 1 cjhi 6 cdim2 6
In transpose
ailo 1 aihi 6 adim1 6 ajlo 1 ajhi 6 adim2 6
In no transpose
bilo 1 bihi 6 bdim1 6 bjlo 1 bjhi 6 bdim2 6
cilo 1 cihi 6 cdim1 6 cjlo 1 cjhi 6 cdim2 6
In no transpose
ailo 1 aihi 6 adim1 6 ajlo 1 ajhi 6 adim2 6
In no transpose
bilo 1 bihi 6 bdim1 6 bjlo 1 bjhi 6 bdim2 6
cilo 1 cihi 6 cdim1 6 cjlo 1 cjhi 6 cdim2 6
In transpose
ailo 1 aihi 6 adim1 6 ajlo 1 ajhi 6 adim2 6
In no transpose
bilo 1 bihi 6 bdim1 6 bjlo 1 bjhi 6 bdim2 6
cilo 1 cihi 6 cdim1 6 cjlo 1 cjhi 6 cdim2 6
In no transpose
ailo 1 aihi 6 adim1 6 ajlo 1 ajhi 6 adim2 6
In no transpose
bilo 1 bihi 6 bdim1 6 bjlo 1 bjhi 6 bdim2 6
cilo 1 cihi 6 cdim1 6 cjlo 1 cjhi 6 cdim2 6
In transpose
ailo 1 aihi 6 adim1 6 ajlo 1 ajhi 6 adim2 6
In no transpose
bilo 1 bihi 6 bdim1 6 bjlo 1 bjhi 6 bdim2 6
cilo 1 cihi 6 cdim1 6 cjlo 1 cjhi 6 cdim2 6
In no transpose
ailo 1 aihi 6 adim1 6 ajlo 1 ajhi 6 adim2 6
In no transpose
bilo 1 bihi 6 bdim1 6 bjlo 1 bjhi 6 bdim2 6
cilo 1 cihi 6 cdim1 6 cjlo 1 cjhi 6 cdim2 6
In transpose
ailo 1 aihi 6 adim1 6 ajlo 1 ajhi 6 adim2 6
In no transpose
bilo 1 bihi 6 bdim1 6 bjlo 1 bjhi 6 bdim2 6
cilo 1 cihi 6 cdim1 6 cjlo 1 cjhi 6 cdim2 6
In no transpose
ailo 1 aihi 6 adim1 6 ajlo 1 ajhi 6 adim2 6
In no transpose
bilo 1 bihi 6 bdim1 6 bjlo 1 bjhi 6 bdim2 6
cilo 1 cihi 6 cdim1 6 cjlo 1 cjhi 6 cdim2 6
In transpose
ailo 1 aihi 6 adim1 6 ajlo 1 ajhi 6 adim2 6
In no transpose
bilo 1 bihi 6 bdim1 6 bjlo 1 bjhi 6 bdim2 6
cilo 1 cihi 6 cdim1 6 cjlo 1 cjhi 6 cdim2 6
In no transpose
ailo 1 aihi 6 adim1 6 ajlo 1 ajhi 6 adim2 6
In no transpose
bilo 1 bihi 6 bdim1 6 bjlo 1 bjhi 6 bdim2 6
cilo 1 cihi 6 cdim1 6 cjlo 1 cjhi 6 cdim2 6
In transpose
ailo 1 aihi 6 adim1 6 ajlo 1 ajhi 6 adim2 6
In no transpose
bilo 1 bihi 6 bdim1 6 bjlo 1 bjhi 6 bdim2 6
cilo 1 cihi 6 cdim1 6 cjlo 1 cjhi 6 cdim2 6
In no transpose
ailo 1 aihi 6 adim1 6 ajlo 1 ajhi 6 adim2 6
In no transpose
bilo 1 bihi 6 bdim1 6 bjlo 1 bjhi 6 bdim2 6
cilo 1 cihi 6 cdim1 6 cjlo 1 cjhi 6 cdim2 6
In transpose
ailo 1 aihi 6 adim1 6 ajlo 1 ajhi 6 adim2 6
In no transpose
bilo 1 bihi 6 bdim1 6 bjlo 1 bjhi 6 bdim2 6
cilo 1 cihi 6 cdim1 6 cjlo 1 cjhi 6 cdim2 6
In no transpose
ailo 1 aihi 6 adim1 6 ajlo 1 ajhi 6 adim2 6
In no transpose
bilo 1 bihi 6 bdim1 6 bjlo 1 bjhi 6 bdim2 6
cilo 1 cihi 6 cdim1 6 cjlo 1 cjhi 6 cdim2 6
In transpose
ailo 1 aihi 6 adim1 6 ajlo 1 ajhi 6 adim2 6
In no transpose
bilo 1 bihi 6 bdim1 6 bjlo 1 bjhi 6 bdim2 6
cilo 1 cihi 6 cdim1 6 cjlo 1 cjhi 6 cdim2 6
In no transpose
ailo 1 aihi 6 adim1 6 ajlo 1 ajhi 6 adim2 6
In no transpose
bilo 1 bihi 6 bdim1 6 bjlo 1 bjhi 6 bdim2 6
cilo 1 cihi 6 cdim1 6 cjlo 1 cjhi 6 cdim2 6
In transpose
ailo 1 aihi 6 adim1 6 ajlo 1 ajhi 6 adim2 6
In no transpose
bilo 1 bihi 6 bdim1 6 bjlo 1 bjhi 6 bdim2 6
cilo 1 cihi 6 cdim1 6 cjlo 1 cjhi 6 cdim2 6
In no transpose
ailo 1 aihi 6 adim1 6 ajlo 1 ajhi 6 adim2 6
In no transpose
bilo 1 bihi 6 bdim1 6 bjlo 1 bjhi 6 bdim2 6
cilo 1 cihi 6 cdim1 6 cjlo 1 cjhi 6 cdim2 6
In transpose
ailo 1 aihi 6 adim1 6 ajlo 1 ajhi 6 adim2 6
In no transpose
bilo 1 bihi 6 bdim1 6 bjlo 1 bjhi 6 bdim2 6
cilo 1 cihi 6 cdim1 6 cjlo 1 cjhi 6 cdim2 6
In no transpose
ailo 1 aihi 6 adim1 6 ajlo 1 ajhi 6 adim2 6
In no transpose
bilo 1 bihi 6 bdim1 6 bjlo 1 bjhi 6 bdim2 6
cilo 1 cihi 6 cdim1 6 cjlo 1 cjhi 6 cdim2 6
In transpose
ailo 1 aihi 6 adim1 6 ajlo 1 ajhi 6 adim2 6
In no transpose
bilo 1 bihi 6 bdim1 6 bjlo 1 bjhi 6 bdim2 6
cilo 1 cihi 6 cdim1 6 cjlo 1 cjhi 6 cdim2 6
In no transpose
ailo 1 aihi 6 adim1 6 ajlo 1 ajhi 6 adim2 6
In no transpose
bilo 1 bihi 6 bdim1 6 bjlo 1 bjhi 6 bdim2 6
cilo 1 cihi 6 cdim1 6 cjlo 1 cjhi 6 cdim2 6
In transpose
ailo 1 aihi 6 adim1 6 ajlo 1 ajhi 6 adim2 6
In no transpose
bilo 1 bihi 6 bdim1 6 bjlo 1 bjhi 6 bdim2 6
cilo 1 cihi 6 cdim1 6 cjlo 1 cjhi 6 cdim2 6
In no transpose
ailo 1 aihi 6 adim1 6 ajlo 1 ajhi 6 adim2 6
In no transpose
bilo 1 bihi 6 bdim1 6 bjlo 1 bjhi 6 bdim2 6
cilo 1 cihi 6 cdim1 6 cjlo 1 cjhi 6 cdim2 6
In transpose
ailo 1 aihi 6 adim1 6 ajlo 1 ajhi 6 adim2 6
In no transpose
bilo 1 bihi 6 bdim1 6 bjlo 1 bjhi 6 bdim2 6
cilo 1 cihi 6 cdim1 6 cjlo 1 cjhi 6 cdim2 6
In no transpose
ailo 1 aihi 6 adim1 6 ajlo 1 ajhi 6 adim2 6
In no transpose
bilo 1 bihi 6 bdim1 6 bjlo 1 bjhi 6 bdim2 6
cilo 1 cihi 6 cdim1 6 cjlo 1 cjhi 6 cdim2 6
In transpose
ailo 1 aihi 6 adim1 6 ajlo 1 ajhi 6 adim2 6
In no transpose
bilo 1 bihi 6 bdim1 6 bjlo 1 bjhi 6 bdim2 6
cilo 1 cihi 6 cdim1 6 cjlo 1 cjhi 6 cdim2 6
In no transpose
ailo 1 aihi 6 adim1 6 ajlo 1 ajhi 6 adim2 6
In no transpose
bilo 1 bihi 6 bdim1 6 bjlo 1 bjhi 6 bdim2 6
cilo 1 cihi 6 cdim1 6 cjlo 1 cjhi 6 cdim2 6
In transpose
ailo 1 aihi 6 adim1 6 ajlo 1 ajhi 6 adim2 6
In no transpose
bilo 1 bihi 6 bdim1 6 bjlo 1 bjhi 6 bdim2 6
cilo 1 cihi 6 cdim1 6 cjlo 1 cjhi 6 cdim2 6
In no transpose
ailo 1 aihi 6 adim1 6 ajlo 1 ajhi 6 adim2 6
In no transpose
bilo 1 bihi 6 bdim1 6 bjlo 1 bjhi 6 bdim2 6
cilo 1 cihi 6 cdim1 6 cjlo 1 cjhi 6 cdim2 6
In transpose
ailo 1 aihi 6 adim1 6 ajlo 1 ajhi 6 adim2 6
In no transpose
bilo 1 bihi 6 bdim1 6 bjlo 1 bjhi 6 bdim2 6
cilo 1 cihi 6 cdim1 6 cjlo 1 cjhi 6 cdim2 6
In no transpose
ailo 1 aihi 6 adim1 6 ajlo 1 ajhi 6 adim2 6
In no transpose
bilo 1 bihi 6 bdim1 6 bjlo 1 bjhi 6 bdim2 6
cilo 1 cihi 6 cdim1 6 cjlo 1 cjhi 6 cdim2 6
In transpose
ailo 1 aihi 6 adim1 6 ajlo 1 ajhi 6 adim2 6
In no transpose
bilo 1 bihi 6 bdim1 6 bjlo 1 bjhi 6 bdim2 6
cilo 1 cihi 6 cdim1 6 cjlo 1 cjhi 6 cdim2 6
In no transpose
ailo 1 aihi 6 adim1 6 ajlo 1 ajhi 6 adim2 6
In no transpose
bilo 1 bihi 6 bdim1 6 bjlo 1 bjhi 6 bdim2 6
cilo 1 cihi 6 cdim1 6 cjlo 1 cjhi 6 cdim2 6
In transpose
ailo 1 aihi 6 adim1 6 ajlo 1 ajhi 6 adim2 6
In no transpose
bilo 1 bihi 6 bdim1 6 bjlo 1 bjhi 6 bdim2 6
cilo 1 cihi 6 cdim1 6 cjlo 1 cjhi 6 cdim2 6
In no transpose
ailo 1 aihi 6 adim1 6 ajlo 1 ajhi 6 adim2 6
In no transpose
bilo 1 bihi 6 bdim1 6 bjlo 1 bjhi 6 bdim2 6
cilo 1 cihi 6 cdim1 6 cjlo 1 cjhi 6 cdim2 6
In transpose
ailo 1 aihi 6 adim1 6 ajlo 1 ajhi 6 adim2 6
In no transpose
bilo 1 bihi 6 bdim1 6 bjlo 1 bjhi 6 bdim2 6
cilo 1 cihi 6 cdim1 6 cjlo 1 cjhi 6 cdim2 6
In no transpose
ailo 1 aihi 6 adim1 6 ajlo 1 ajhi 6 adim2 6
In no transpose
bilo 1 bihi 6 bdim1 6 bjlo 1 bjhi 6 bdim2 6
cilo 1 cihi 6 cdim1 6 cjlo 1 cjhi 6 cdim2 6
In transpose
ailo 1 aihi 6 adim1 6 ajlo 1 ajhi 6 adim2 6
In no transpose
bilo 1 bihi 6 bdim1 6 bjlo 1 bjhi 6 bdim2 6
cilo 1 cihi 6 cdim1 6 cjlo 1 cjhi 6 cdim2 6
In no transpose
ailo 1 aihi 6 adim1 6 ajlo 1 ajhi 6 adim2 6
In no transpose
bilo 1 bihi 6 bdim1 6 bjlo 1 bjhi 6 bdim2 6
cilo 1 cihi 6 cdim1 6 cjlo 1 cjhi 6 cdim2 6
In no transpose
ailo 1 aihi 6 adim1 6 ajlo 1 ajhi 2 adim2 6
In no transpose
bilo 1 bihi 2 bdim1 6 bjlo 1 bjhi 2 bdim2 6
cilo 1 cihi 6 cdim1 6 cjlo 1 cjhi 2 cdim2 6
In no transpose
ailo 1 aihi 6 adim1 6 ajlo 1 ajhi 2 adim2 6
In transpose
bilo 1 bihi 2 bdim1 6 bjlo 1 bjhi 6 bdim2 6
cilo 1 cihi 6 cdim1 6 cjlo 1 cjhi 6 cdim2 6
In no transpose
ailo 1 aihi 6 adim1 6 ajlo 1 ajhi 2 adim2 6
In no transpose
bilo 1 bihi 2 bdim1 6 bjlo 1 bjhi 2 bdim2 6
cilo 1 cihi 6 cdim1 6 cjlo 1 cjhi 2 cdim2 6
In no transpose
ailo 1 aihi 6 adim1 6 ajlo 1 ajhi 2 adim2 6
In transpose
bilo 1 bihi 2 bdim1 6 bjlo 1 bjhi 6 bdim2 6
cilo 1 cihi 6 cdim1 6 cjlo 1 cjhi 6 cdim2 6
In no transpose
ailo 1 aihi 6 adim1 6 ajlo 1 ajhi 2 adim2 6
In no transpose
bilo 1 bihi 2 bdim1 6 bjlo 1 bjhi 2 bdim2 6
cilo 1 cihi 6 cdim1 6 cjlo 1 cjhi 2 cdim2 6
In no transpose
ailo 1 aihi 6 adim1 6 ajlo 1 ajhi 2 adim2 6
In transpose
bilo 1 bihi 2 bdim1 6 bjlo 1 bjhi 6 bdim2 6
cilo 1 cihi 6 cdim1 6 cjlo 1 cjhi 6 cdim2 6
In no transpose
ailo 1 aihi 6 adim1 6 ajlo 1 ajhi 2 adim2 6
In no transpose
bilo 1 bihi 2 bdim1 6 bjlo 1 bjhi 2 bdim2 6
cilo 1 cihi 6 cdim1 6 cjlo 1 cjhi 2 cdim2 6
In no transpose
ailo 1 aihi 6 adim1 6 ajlo 1 ajhi 2 adim2 6
In transpose
bilo 1 bihi 2 bdim1 6 bjlo 1 bjhi 6 bdim2 6
cilo 1 cihi 6 cdim1 6 cjlo 1 cjhi 6 cdim2 6
In no transpose
ailo 1 aihi 6 adim1 6 ajlo 1 ajhi 2 adim2 6
In no transpose
bilo 1 bihi 2 bdim1 6 bjlo 1 bjhi 2 bdim2 6
cilo 1 cihi 6 cdim1 6 cjlo 1 cjhi 2 cdim2 6
In no transpose
ailo 1 aihi 6 adim1 6 ajlo 1 ajhi 2 adim2 6
In transpose
bilo 1 bihi 2 bdim1 6 bjlo 1 bjhi 6 bdim2 6
cilo 1 cihi 6 cdim1 6 cjlo 1 cjhi 6 cdim2 6
In no transpose
ailo 1 aihi 6 adim1 6 ajlo 1 ajhi 2 adim2 6
In no transpose
bilo 1 bihi 2 bdim1 6 bjlo 1 bjhi 2 bdim2 6
cilo 1 cihi 6 cdim1 6 cjlo 1 cjhi 2 cdim2 6
In no transpose
ailo 1 aihi 6 adim1 6 ajlo 1 ajhi 2 adim2 6
In transpose
bilo 1 bihi 2 bdim1 6 bjlo 1 bjhi 6 bdim2 6
cilo 1 cihi 6 cdim1 6 cjlo 1 cjhi 6 cdim2 6
In no transpose
ailo 1 aihi 6 adim1 6 ajlo 1 ajhi 2 adim2 6
In no transpose
bilo 1 bihi 2 bdim1 6 bjlo 1 bjhi 2 bdim2 6
cilo 1 cihi 6 cdim1 6 cjlo 1 cjhi 2 cdim2 6
In no transpose
ailo 1 aihi 6 adim1 6 ajlo 1 ajhi 2 adim2 6
In transpose
bilo 1 bihi 2 bdim1 6 bjlo 1 bjhi 6 bdim2 6
cilo 1 cihi 6 cdim1 6 cjlo 1 cjhi 6 cdim2 6
In no transpose
ailo 1 aihi 6 adim1 6 ajlo 1 ajhi 2 adim2 6
In no transpose
bilo 1 bihi 2 bdim1 6 bjlo 1 bjhi 2 bdim2 6
cilo 1 cihi 6 cdim1 6 cjlo 1 cjhi 2 cdim2 6
In no transpose
ailo 1 aihi 6 adim1 6 ajlo 1 ajhi 2 adim2 6
In transpose
bilo 1 bihi 2 bdim1 6 bjlo 1 bjhi 6 bdim2 6
cilo 1 cihi 6 cdim1 6 cjlo 1 cjhi 6 cdim2 6
In no transpose
ailo 1 aihi 6 adim1 6 ajlo 1 ajhi 2 adim2 6
In no transpose
bilo 1 bihi 2 bdim1 6 bjlo 1 bjhi 2 bdim2 6
cilo 1 cihi 6 cdim1 6 cjlo 1 cjhi 2 cdim2 6
In no transpose
ailo 1 aihi 6 adim1 6 ajlo 1 ajhi 2 adim2 6
In transpose
bilo 1 bihi 2 bdim1 6 bjlo 1 bjhi 6 bdim2 6
cilo 1 cihi 6 cdim1 6 cjlo 1 cjhi 6 cdim2 6
In no transpose
ailo 1 aihi 6 adim1 6 ajlo 1 ajhi 1 adim2 6
In no transpose
bilo 10 bihi 10 bdim1 18 bjlo 1 bjhi 1 bdim2 6
cilo 1 cihi 6 cdim1 6 cjlo 1 cjhi 1 cdim2 6
In no transpose
ailo 1 aihi 6 adim1 6 ajlo 1 ajhi 1 adim2 6
In transpose
bilo 1 bihi 1 bdim1 6 bjlo 1 bjhi 6 bdim2 6
cilo 1 cihi 6 cdim1 6 cjlo 1 cjhi 6 cdim2 6
In no transpose
ailo 1 aihi 6 adim1 6 ajlo 1 ajhi 1 adim2 6
In no transpose
bilo 11 bihi 11 bdim1 18 bjlo 1 bjhi 1 bdim2 6
cilo 1 cihi 6 cdim1 6 cjlo 1 cjhi 1 cdim2 6
In no transpose
ailo 1 aihi 6 adim1 6 ajlo 1 ajhi 1 adim2 6
In transpose
bilo 1 bihi 1 bdim1 6 bjlo 1 bjhi 6 bdim2 6
cilo 1 cihi 6 cdim1 6 cjlo 1 cjhi 6 cdim2 6
In no transpose
ailo 1 aihi 6 adim1 6 ajlo 1 ajhi 1 adim2 6
In no transpose
bilo 12 bihi 12 bdim1 18 bjlo 1 bjhi 1 bdim2 6
cilo 1 cihi 6 cdim1 6 cjlo 1 cjhi 1 cdim2 6
In no transpose
ailo 1 aihi 6 adim1 6 ajlo 1 ajhi 1 adim2 6
In transpose
bilo 1 bihi 1 bdim1 6 bjlo 1 bjhi 6 bdim2 6
cilo 1 cihi 6 cdim1 6 cjlo 1 cjhi 6 cdim2 6
In no transpose
ailo 1 aihi 6 adim1 6 ajlo 1 ajhi 1 adim2 6
In no transpose
bilo 13 bihi 13 bdim1 18 bjlo 1 bjhi 1 bdim2 6
cilo 1 cihi 6 cdim1 6 cjlo 1 cjhi 1 cdim2 6
In no transpose
ailo 1 aihi 6 adim1 6 ajlo 1 ajhi 1 adim2 6
In transpose
bilo 1 bihi 1 bdim1 6 bjlo 1 bjhi 6 bdim2 6
cilo 1 cihi 6 cdim1 6 cjlo 1 cjhi 6 cdim2 6
In no transpose
ailo 1 aihi 6 adim1 6 ajlo 1 ajhi 1 adim2 6
In no transpose
bilo 14 bihi 14 bdim1 18 bjlo 1 bjhi 1 bdim2 6
cilo 1 cihi 6 cdim1 6 cjlo 1 cjhi 1 cdim2 6
In no transpose
ailo 1 aihi 6 adim1 6 ajlo 1 ajhi 1 adim2 6
In transpose
bilo 1 bihi 1 bdim1 6 bjlo 1 bjhi 6 bdim2 6
cilo 1 cihi 6 cdim1 6 cjlo 1 cjhi 6 cdim2 6
In no transpose
ailo 1 aihi 6 adim1 6 ajlo 1 ajhi 1 adim2 6
In no transpose
bilo 15 bihi 15 bdim1 18 bjlo 1 bjhi 1 bdim2 6
cilo 1 cihi 6 cdim1 6 cjlo 1 cjhi 1 cdim2 6
In no transpose
ailo 1 aihi 6 adim1 6 ajlo 1 ajhi 1 adim2 6
In transpose
bilo 1 bihi 1 bdim1 6 bjlo 1 bjhi 6 bdim2 6
cilo 1 cihi 6 cdim1 6 cjlo 1 cjhi 6 cdim2 6
In no transpose
ailo 1 aihi 6 adim1 6 ajlo 1 ajhi 1 adim2 6
In no transpose
bilo 16 bihi 16 bdim1 18 bjlo 1 bjhi 1 bdim2 6
cilo 1 cihi 6 cdim1 6 cjlo 1 cjhi 1 cdim2 6
In no transpose
ailo 1 aihi 6 adim1 6 ajlo 1 ajhi 1 adim2 6
In transpose
bilo 1 bihi 1 bdim1 6 bjlo 1 bjhi 6 bdim2 6
cilo 1 cihi 6 cdim1 6 cjlo 1 cjhi 6 cdim2 6
In no transpose
ailo 1 aihi 6 adim1 6 ajlo 1 ajhi 1 adim2 6
In no transpose
bilo 17 bihi 17 bdim1 18 bjlo 1 bjhi 1 bdim2 6
cilo 1 cihi 6 cdim1 6 cjlo 1 cjhi 1 cdim2 6
In no transpose
ailo 1 aihi 6 adim1 6 ajlo 1 ajhi 1 adim2 6
In transpose
bilo 1 bihi 1 bdim1 6 bjlo 1 bjhi 6 bdim2 6
cilo 1 cihi 6 cdim1 6 cjlo 1 cjhi 6 cdim2 6
In no transpose
ailo 1 aihi 6 adim1 6 ajlo 1 ajhi 1 adim2 6
In no transpose
bilo 18 bihi 18 bdim1 18 bjlo 1 bjhi 1 bdim2 6
cilo 1 cihi 6 cdim1 6 cjlo 1 cjhi 1 cdim2 6
In no transpose
ailo 1 aihi 6 adim1 6 ajlo 1 ajhi 1 adim2 6
In transpose
bilo 1 bihi 1 bdim1 6 bjlo 1 bjhi 6 bdim2 6
cilo 1 cihi 6 cdim1 6 cjlo 1 cjhi 6 cdim2 6
In transpose
ailo 1 aihi 6 adim1 6 ajlo 1 ajhi 6 adim2 6
In no transpose
bilo 1 bihi 6 bdim1 6 bjlo 1 bjhi 6 bdim2 6
cilo 1 cihi 6 cdim1 6 cjlo 1 cjhi 6 cdim2 6
In no transpose
ailo 1 aihi 6 adim1 6 ajlo 1 ajhi 6 adim2 6
In no transpose
bilo 1 bihi 6 bdim1 6 bjlo 1 bjhi 6 bdim2 6
cilo 1 cihi 6 cdim1 6 cjlo 1 cjhi 6 cdim2 6
In transpose
ailo 1 aihi 6 adim1 6 ajlo 1 ajhi 6 adim2 6
In no transpose
bilo 1 bihi 6 bdim1 6 bjlo 1 bjhi 6 bdim2 6
cilo 1 cihi 6 cdim1 6 cjlo 1 cjhi 6 cdim2 6
In no transpose
ailo 1 aihi 6 adim1 6 ajlo 1 ajhi 6 adim2 6
In no transpose
bilo 1 bihi 6 bdim1 6 bjlo 1 bjhi 6 bdim2 6
cilo 1 cihi 6 cdim1 6 cjlo 1 cjhi 6 cdim2 6
In transpose
ailo 1 aihi 6 adim1 6 ajlo 1 ajhi 6 adim2 6
In no transpose
bilo 1 bihi 6 bdim1 6 bjlo 1 bjhi 6 bdim2 6
cilo 1 cihi 6 cdim1 6 cjlo 1 cjhi 6 cdim2 6
In no transpose
ailo 1 aihi 6 adim1 6 ajlo 1 ajhi 6 adim2 6
In no transpose
bilo 1 bihi 6 bdim1 6 bjlo 1 bjhi 6 bdim2 6
cilo 1 cihi 6 cdim1 6 cjlo 1 cjhi 6 cdim2 6
In transpose
ailo 1 aihi 6 adim1 6 ajlo 1 ajhi 6 adim2 6
In no transpose
bilo 1 bihi 6 bdim1 6 bjlo 1 bjhi 6 bdim2 6
cilo 1 cihi 6 cdim1 6 cjlo 1 cjhi 6 cdim2 6
In no transpose
ailo 1 aihi 6 adim1 6 ajlo 1 ajhi 6 adim2 6
In no transpose
bilo 1 bihi 6 bdim1 6 bjlo 1 bjhi 6 bdim2 6
cilo 1 cihi 6 cdim1 6 cjlo 1 cjhi 6 cdim2 6
In transpose
ailo 1 aihi 6 adim1 6 ajlo 1 ajhi 6 adim2 6
In no transpose
bilo 1 bihi 6 bdim1 6 bjlo 1 bjhi 6 bdim2 6
cilo 1 cihi 6 cdim1 6 cjlo 1 cjhi 6 cdim2 6
In no transpose
ailo 1 aihi 6 adim1 6 ajlo 1 ajhi 6 adim2 6
In no transpose
bilo 1 bihi 6 bdim1 6 bjlo 1 bjhi 6 bdim2 6
cilo 1 cihi 6 cdim1 6 cjlo 1 cjhi 6 cdim2 6
In transpose
ailo 1 aihi 6 adim1 6 ajlo 1 ajhi 6 adim2 6
In no transpose
bilo 1 bihi 6 bdim1 6 bjlo 1 bjhi 6 bdim2 6
cilo 1 cihi 6 cdim1 6 cjlo 1 cjhi 6 cdim2 6
In no transpose
ailo 1 aihi 6 adim1 6 ajlo 1 ajhi 6 adim2 6
In no transpose
bilo 1 bihi 6 bdim1 6 bjlo 1 bjhi 6 bdim2 6
cilo 1 cihi 6 cdim1 6 cjlo 1 cjhi 6 cdim2 6
In transpose
ailo 1 aihi 6 adim1 6 ajlo 1 ajhi 6 adim2 6
In no transpose
bilo 1 bihi 6 bdim1 6 bjlo 1 bjhi 6 bdim2 6
cilo 1 cihi 6 cdim1 6 cjlo 1 cjhi 6 cdim2 6
In no transpose
ailo 1 aihi 6 adim1 6 ajlo 1 ajhi 6 adim2 6
In no transpose
bilo 1 bihi 6 bdim1 6 bjlo 1 bjhi 6 bdim2 6
cilo 1 cihi 6 cdim1 6 cjlo 1 cjhi 6 cdim2 6
In transpose
ailo 1 aihi 6 adim1 6 ajlo 1 ajhi 6 adim2 6
In no transpose
bilo 1 bihi 6 bdim1 6 bjlo 1 bjhi 6 bdim2 6
cilo 1 cihi 6 cdim1 6 cjlo 1 cjhi 6 cdim2 6
In no transpose
ailo 1 aihi 6 adim1 6 ajlo 1 ajhi 6 adim2 6
In no transpose
bilo 1 bihi 6 bdim1 6 bjlo 1 bjhi 6 bdim2 6
cilo 1 cihi 6 cdim1 6 cjlo 1 cjhi 6 cdim2 6
In transpose
ailo 1 aihi 6 adim1 6 ajlo 1 ajhi 6 adim2 6
In no transpose
bilo 1 bihi 6 bdim1 6 bjlo 1 bjhi 6 bdim2 6
cilo 1 cihi 6 cdim1 6 cjlo 1 cjhi 6 cdim2 6
In no transpose
ailo 1 aihi 6 adim1 6 ajlo 1 ajhi 6 adim2 6
In no transpose
bilo 1 bihi 6 bdim1 6 bjlo 1 bjhi 6 bdim2 6
cilo 1 cihi 6 cdim1 6 cjlo 1 cjhi 6 cdim2 6
In transpose
ailo 1 aihi 6 adim1 6 ajlo 1 ajhi 6 adim2 6
In no transpose
bilo 1 bihi 6 bdim1 6 bjlo 1 bjhi 6 bdim2 6
cilo 1 cihi 6 cdim1 6 cjlo 1 cjhi 6 cdim2 6
In no transpose
ailo 1 aihi 6 adim1 6 ajlo 1 ajhi 6 adim2 6
In no transpose
bilo 1 bihi 6 bdim1 6 bjlo 1 bjhi 6 bdim2 6
cilo 1 cihi 6 cdim1 6 cjlo 1 cjhi 6 cdim2 6
In transpose
ailo 1 aihi 6 adim1 6 ajlo 1 ajhi 6 adim2 6
In no transpose
bilo 1 bihi 6 bdim1 6 bjlo 1 bjhi 6 bdim2 6
cilo 1 cihi 6 cdim1 6 cjlo 1 cjhi 6 cdim2 6
In no transpose
ailo 1 aihi 6 adim1 6 ajlo 1 ajhi 6 adim2 6
In no transpose
bilo 1 bihi 6 bdim1 6 bjlo 1 bjhi 6 bdim2 6
cilo 1 cihi 6 cdim1 6 cjlo 1 cjhi 6 cdim2 6
In transpose
ailo 1 aihi 6 adim1 6 ajlo 1 ajhi 6 adim2 6
In no transpose
bilo 1 bihi 6 bdim1 6 bjlo 1 bjhi 6 bdim2 6
cilo 1 cihi 6 cdim1 6 cjlo 1 cjhi 6 cdim2 6
In no transpose
ailo 1 aihi 6 adim1 6 ajlo 1 ajhi 6 adim2 6
In no transpose
bilo 1 bihi 6 bdim1 6 bjlo 1 bjhi 6 bdim2 6
cilo 1 cihi 6 cdim1 6 cjlo 1 cjhi 6 cdim2 6
In transpose
ailo 1 aihi 6 adim1 6 ajlo 1 ajhi 6 adim2 6
In no transpose
bilo 1 bihi 6 bdim1 6 bjlo 1 bjhi 6 bdim2 6
cilo 1 cihi 6 cdim1 6 cjlo 1 cjhi 6 cdim2 6
In no transpose
ailo 1 aihi 6 adim1 6 ajlo 1 ajhi 6 adim2 6
In no transpose
bilo 1 bihi 6 bdim1 6 bjlo 1 bjhi 6 bdim2 6
cilo 1 cihi 6 cdim1 6 cjlo 1 cjhi 6 cdim2 6
In transpose
ailo 1 aihi 6 adim1 6 ajlo 1 ajhi 6 adim2 6
In no transpose
bilo 1 bihi 6 bdim1 6 bjlo 1 bjhi 6 bdim2 6
cilo 1 cihi 6 cdim1 6 cjlo 1 cjhi 6 cdim2 6
In no transpose
ailo 1 aihi 6 adim1 6 ajlo 1 ajhi 6 adim2 6
In no transpose
bilo 1 bihi 6 bdim1 6 bjlo 1 bjhi 6 bdim2 6
cilo 1 cihi 6 cdim1 6 cjlo 1 cjhi 6 cdim2 6
In transpose
ailo 1 aihi 6 adim1 6 ajlo 1 ajhi 6 adim2 6
In no transpose
bilo 1 bihi 6 bdim1 6 bjlo 1 bjhi 6 bdim2 6
cilo 1 cihi 6 cdim1 6 cjlo 1 cjhi 6 cdim2 6
In no transpose
ailo 1 aihi 6 adim1 6 ajlo 1 ajhi 6 adim2 6
In no transpose
bilo 1 bihi 6 bdim1 6 bjlo 1 bjhi 6 bdim2 6
cilo 1 cihi 6 cdim1 6 cjlo 1 cjhi 6 cdim2 6
In transpose
ailo 1 aihi 6 adim1 6 ajlo 1 ajhi 6 adim2 6
In no transpose
bilo 1 bihi 6 bdim1 6 bjlo 1 bjhi 6 bdim2 6
cilo 1 cihi 6 cdim1 6 cjlo 1 cjhi 6 cdim2 6
In no transpose
ailo 1 aihi 6 adim1 6 ajlo 1 ajhi 6 adim2 6
In no transpose
bilo 1 bihi 6 bdim1 6 bjlo 1 bjhi 6 bdim2 6
cilo 1 cihi 6 cdim1 6 cjlo 1 cjhi 6 cdim2 6
In transpose
ailo 1 aihi 6 adim1 6 ajlo 1 ajhi 6 adim2 6
In no transpose
bilo 1 bihi 6 bdim1 6 bjlo 1 bjhi 6 bdim2 6
cilo 1 cihi 6 cdim1 6 cjlo 1 cjhi 6 cdim2 6
In no transpose
ailo 1 aihi 6 adim1 6 ajlo 1 ajhi 6 adim2 6
In no transpose
bilo 1 bihi 6 bdim1 6 bjlo 1 bjhi 6 bdim2 6
cilo 1 cihi 6 cdim1 6 cjlo 1 cjhi 6 cdim2 6
In transpose
ailo 1 aihi 6 adim1 6 ajlo 1 ajhi 6 adim2 6
In no transpose
bilo 1 bihi 6 bdim1 6 bjlo 1 bjhi 6 bdim2 6
cilo 1 cihi 6 cdim1 6 cjlo 1 cjhi 6 cdim2 6
In no transpose
ailo 1 aihi 6 adim1 6 ajlo 1 ajhi 6 adim2 6
In no transpose
bilo 1 bihi 6 bdim1 6 bjlo 1 bjhi 6 bdim2 6
cilo 1 cihi 6 cdim1 6 cjlo 1 cjhi 6 cdim2 6
In transpose
ailo 1 aihi 6 adim1 6 ajlo 1 ajhi 6 adim2 6
In no transpose
bilo 1 bihi 6 bdim1 6 bjlo 1 bjhi 6 bdim2 6
cilo 1 cihi 6 cdim1 6 cjlo 1 cjhi 6 cdim2 6
In no transpose
ailo 1 aihi 6 adim1 6 ajlo 1 ajhi 6 adim2 6
In no transpose
bilo 1 bihi 6 bdim1 6 bjlo 1 bjhi 6 bdim2 6
cilo 1 cihi 6 cdim1 6 cjlo 1 cjhi 6 cdim2 6
In transpose
ailo 1 aihi 6 adim1 6 ajlo 1 ajhi 6 adim2 6
In no transpose
bilo 1 bihi 6 bdim1 6 bjlo 1 bjhi 6 bdim2 6
cilo 1 cihi 6 cdim1 6 cjlo 1 cjhi 6 cdim2 6
In no transpose
ailo 1 aihi 6 adim1 6 ajlo 1 ajhi 6 adim2 6
In no transpose
bilo 1 bihi 6 bdim1 6 bjlo 1 bjhi 6 bdim2 6
cilo 1 cihi 6 cdim1 6 cjlo 1 cjhi 6 cdim2 6
In transpose
ailo 1 aihi 6 adim1 6 ajlo 1 ajhi 6 adim2 6
In no transpose
bilo 1 bihi 6 bdim1 6 bjlo 1 bjhi 6 bdim2 6
cilo 1 cihi 6 cdim1 6 cjlo 1 cjhi 6 cdim2 6
In no transpose
ailo 1 aihi 6 adim1 6 ajlo 1 ajhi 6 adim2 6
In no transpose
bilo 1 bihi 6 bdim1 6 bjlo 1 bjhi 6 bdim2 6
cilo 1 cihi 6 cdim1 6 cjlo 1 cjhi 6 cdim2 6
In transpose
ailo 1 aihi 6 adim1 6 ajlo 1 ajhi 6 adim2 6
In no transpose
bilo 1 bihi 6 bdim1 6 bjlo 1 bjhi 6 bdim2 6
cilo 1 cihi 6 cdim1 6 cjlo 1 cjhi 6 cdim2 6
In no transpose
ailo 1 aihi 6 adim1 6 ajlo 1 ajhi 6 adim2 6
In no transpose
bilo 1 bihi 6 bdim1 6 bjlo 1 bjhi 6 bdim2 6
cilo 1 cihi 6 cdim1 6 cjlo 1 cjhi 6 cdim2 6
In transpose
ailo 1 aihi 6 adim1 6 ajlo 1 ajhi 6 adim2 6
In no transpose
bilo 1 bihi 6 bdim1 6 bjlo 1 bjhi 6 bdim2 6
cilo 1 cihi 6 cdim1 6 cjlo 1 cjhi 6 cdim2 6
In no transpose
ailo 1 aihi 6 adim1 6 ajlo 1 ajhi 6 adim2 6
In no transpose
bilo 1 bihi 6 bdim1 6 bjlo 1 bjhi 6 bdim2 6
cilo 1 cihi 6 cdim1 6 cjlo 1 cjhi 6 cdim2 6
In transpose
ailo 1 aihi 6 adim1 6 ajlo 1 ajhi 6 adim2 6
In no transpose
bilo 1 bihi 6 bdim1 6 bjlo 1 bjhi 6 bdim2 6
cilo 1 cihi 6 cdim1 6 cjlo 1 cjhi 6 cdim2 6
In no transpose
ailo 1 aihi 6 adim1 6 ajlo 1 ajhi 6 adim2 6
In no transpose
bilo 1 bihi 6 bdim1 6 bjlo 1 bjhi 6 bdim2 6
cilo 1 cihi 6 cdim1 6 cjlo 1 cjhi 6 cdim2 6
In transpose
ailo 1 aihi 6 adim1 6 ajlo 1 ajhi 6 adim2 6
In no transpose
bilo 1 bihi 6 bdim1 6 bjlo 1 bjhi 6 bdim2 6
cilo 1 cihi 6 cdim1 6 cjlo 1 cjhi 6 cdim2 6
In no transpose
ailo 1 aihi 6 adim1 6 ajlo 1 ajhi 6 adim2 6
In no transpose
bilo 1 bihi 6 bdim1 6 bjlo 1 bjhi 6 bdim2 6
cilo 1 cihi 6 cdim1 6 cjlo 1 cjhi 6 cdim2 6
In transpose
ailo 1 aihi 6 adim1 6 ajlo 1 ajhi 6 adim2 6
In no transpose
bilo 1 bihi 6 bdim1 6 bjlo 1 bjhi 6 bdim2 6
cilo 1 cihi 6 cdim1 6 cjlo 1 cjhi 6 cdim2 6
In no transpose
ailo 1 aihi 6 adim1 6 ajlo 1 ajhi 6 adim2 6
In no transpose
bilo 1 bihi 6 bdim1 6 bjlo 1 bjhi 6 bdim2 6
cilo 1 cihi 6 cdim1 6 cjlo 1 cjhi 6 cdim2 6
In transpose
ailo 1 aihi 6 adim1 6 ajlo 1 ajhi 6 adim2 6
In no transpose
bilo 1 bihi 6 bdim1 6 bjlo 1 bjhi 6 bdim2 6
cilo 1 cihi 6 cdim1 6 cjlo 1 cjhi 6 cdim2 6
In no transpose
ailo 1 aihi 6 adim1 6 ajlo 1 ajhi 6 adim2 6
In no transpose
bilo 1 bihi 6 bdim1 6 bjlo 1 bjhi 6 bdim2 6
cilo 1 cihi 6 cdim1 6 cjlo 1 cjhi 6 cdim2 6
In transpose
ailo 1 aihi 6 adim1 6 ajlo 1 ajhi 6 adim2 6
In no transpose
bilo 1 bihi 6 bdim1 6 bjlo 1 bjhi 6 bdim2 6
cilo 1 cihi 6 cdim1 6 cjlo 1 cjhi 6 cdim2 6
In no transpose
ailo 1 aihi 6 adim1 6 ajlo 1 ajhi 6 adim2 6
In no transpose
bilo 1 bihi 6 bdim1 6 bjlo 1 bjhi 6 bdim2 6
cilo 1 cihi 6 cdim1 6 cjlo 1 cjhi 6 cdim2 6
In transpose
ailo 1 aihi 6 adim1 6 ajlo 1 ajhi 6 adim2 6
In no transpose
bilo 1 bihi 6 bdim1 6 bjlo 1 bjhi 6 bdim2 6
cilo 1 cihi 6 cdim1 6 cjlo 1 cjhi 6 cdim2 6
In no transpose
ailo 1 aihi 6 adim1 6 ajlo 1 ajhi 6 adim2 6
In no transpose
bilo 1 bihi 6 bdim1 6 bjlo 1 bjhi 6 bdim2 6
cilo 1 cihi 6 cdim1 6 cjlo 1 cjhi 6 cdim2 6
In transpose
ailo 1 aihi 6 adim1 6 ajlo 1 ajhi 6 adim2 6
In no transpose
bilo 1 bihi 6 bdim1 6 bjlo 1 bjhi 6 bdim2 6
cilo 1 cihi 6 cdim1 6 cjlo 1 cjhi 6 cdim2 6
In no transpose
ailo 1 aihi 6 adim1 6 ajlo 1 ajhi 6 adim2 6
In no transpose
bilo 1 bihi 6 bdim1 6 bjlo 1 bjhi 6 bdim2 6
cilo 1 cihi 6 cdim1 6 cjlo 1 cjhi 6 cdim2 6
In transpose
ailo 1 aihi 6 adim1 6 ajlo 1 ajhi 6 adim2 6
In no transpose
bilo 1 bihi 6 bdim1 6 bjlo 1 bjhi 6 bdim2 6
cilo 1 cihi 6 cdim1 6 cjlo 1 cjhi 6 cdim2 6
In no transpose
ailo 1 aihi 6 adim1 6 ajlo 1 ajhi 6 adim2 6
In no transpose
bilo 1 bihi 6 bdim1 6 bjlo 1 bjhi 6 bdim2 6
cilo 1 cihi 6 cdim1 6 cjlo 1 cjhi 6 cdim2 6
In transpose
ailo 1 aihi 6 adim1 6 ajlo 1 ajhi 6 adim2 6
In no transpose
bilo 1 bihi 6 bdim1 6 bjlo 1 bjhi 6 bdim2 6
cilo 1 cihi 6 cdim1 6 cjlo 1 cjhi 6 cdim2 6
In no transpose
ailo 1 aihi 6 adim1 6 ajlo 1 ajhi 6 adim2 6
In no transpose
bilo 1 bihi 6 bdim1 6 bjlo 1 bjhi 6 bdim2 6
cilo 1 cihi 6 cdim1 6 cjlo 1 cjhi 6 cdim2 6
In transpose
ailo 1 aihi 6 adim1 6 ajlo 1 ajhi 6 adim2 6
In no transpose
bilo 1 bihi 6 bdim1 6 bjlo 1 bjhi 6 bdim2 6
cilo 1 cihi 6 cdim1 6 cjlo 1 cjhi 6 cdim2 6
In no transpose
ailo 1 aihi 6 adim1 6 ajlo 1 ajhi 6 adim2 6
In no transpose
bilo 1 bihi 6 bdim1 6 bjlo 1 bjhi 6 bdim2 6
cilo 1 cihi 6 cdim1 6 cjlo 1 cjhi 6 cdim2 6
In transpose
ailo 1 aihi 6 adim1 6 ajlo 1 ajhi 6 adim2 6
In no transpose
bilo 1 bihi 6 bdim1 6 bjlo 1 bjhi 6 bdim2 6
cilo 1 cihi 6 cdim1 6 cjlo 1 cjhi 6 cdim2 6
In no transpose
ailo 1 aihi 6 adim1 6 ajlo 1 ajhi 6 adim2 6
In no transpose
bilo 1 bihi 6 bdim1 6 bjlo 1 bjhi 6 bdim2 6
cilo 1 cihi 6 cdim1 6 cjlo 1 cjhi 6 cdim2 6
In transpose
ailo 1 aihi 6 adim1 6 ajlo 1 ajhi 6 adim2 6
In no transpose
bilo 1 bihi 6 bdim1 6 bjlo 1 bjhi 6 bdim2 6
cilo 1 cihi 6 cdim1 6 cjlo 1 cjhi 6 cdim2 6
In no transpose
ailo 1 aihi 6 adim1 6 ajlo 1 ajhi 6 adim2 6
In no transpose
bilo 1 bihi 6 bdim1 6 bjlo 1 bjhi 6 bdim2 6
cilo 1 cihi 6 cdim1 6 cjlo 1 cjhi 6 cdim2 6
In transpose
ailo 1 aihi 6 adim1 6 ajlo 1 ajhi 6 adim2 6
In no transpose
bilo 1 bihi 6 bdim1 6 bjlo 1 bjhi 6 bdim2 6
cilo 1 cihi 6 cdim1 6 cjlo 1 cjhi 6 cdim2 6
In no transpose
ailo 1 aihi 6 adim1 6 ajlo 1 ajhi 6 adim2 6
In no transpose
bilo 1 bihi 6 bdim1 6 bjlo 1 bjhi 6 bdim2 6
cilo 1 cihi 6 cdim1 6 cjlo 1 cjhi 6 cdim2 6
In transpose
ailo 1 aihi 6 adim1 6 ajlo 1 ajhi 6 adim2 6
In no transpose
bilo 1 bihi 6 bdim1 6 bjlo 1 bjhi 6 bdim2 6
cilo 1 cihi 6 cdim1 6 cjlo 1 cjhi 6 cdim2 6
In no transpose
ailo 1 aihi 6 adim1 6 ajlo 1 ajhi 6 adim2 6
In no transpose
bilo 1 bihi 6 bdim1 6 bjlo 1 bjhi 6 bdim2 6
cilo 1 cihi 6 cdim1 6 cjlo 1 cjhi 6 cdim2 6
In transpose
ailo 1 aihi 6 adim1 6 ajlo 1 ajhi 6 adim2 6
In no transpose
bilo 1 bihi 6 bdim1 6 bjlo 1 bjhi 6 bdim2 6
cilo 1 cihi 6 cdim1 6 cjlo 1 cjhi 6 cdim2 6
In no transpose
ailo 1 aihi 6 adim1 6 ajlo 1 ajhi 6 adim2 6
In no transpose
bilo 1 bihi 6 bdim1 6 bjlo 1 bjhi 6 bdim2 6
cilo 1 cihi 6 cdim1 6 cjlo 1 cjhi 6 cdim2 6
In transpose
ailo 1 aihi 6 adim1 6 ajlo 1 ajhi 6 adim2 6
In no transpose
bilo 1 bihi 6 bdim1 6 bjlo 1 bjhi 6 bdim2 6
cilo 1 cihi 6 cdim1 6 cjlo 1 cjhi 6 cdim2 6
In no transpose
ailo 1 aihi 6 adim1 6 ajlo 1 ajhi 6 adim2 6
In no transpose
bilo 1 bihi 6 bdim1 6 bjlo 1 bjhi 6 bdim2 6
cilo 1 cihi 6 cdim1 6 cjlo 1 cjhi 6 cdim2 6
In transpose
ailo 1 aihi 6 adim1 6 ajlo 1 ajhi 6 adim2 6
In no transpose
bilo 1 bihi 6 bdim1 6 bjlo 1 bjhi 6 bdim2 6
cilo 1 cihi 6 cdim1 6 cjlo 1 cjhi 6 cdim2 6
In no transpose
ailo 1 aihi 6 adim1 6 ajlo 1 ajhi 6 adim2 6
In no transpose
bilo 1 bihi 6 bdim1 6 bjlo 1 bjhi 6 bdim2 6
cilo 1 cihi 6 cdim1 6 cjlo 1 cjhi 6 cdim2 6
In transpose
ailo 1 aihi 6 adim1 6 ajlo 1 ajhi 6 adim2 6
In no transpose
bilo 1 bihi 6 bdim1 6 bjlo 1 bjhi 6 bdim2 6
cilo 1 cihi 6 cdim1 6 cjlo 1 cjhi 6 cdim2 6
In no transpose
ailo 1 aihi 6 adim1 6 ajlo 1 ajhi 6 adim2 6
In no transpose
bilo 1 bihi 6 bdim1 6 bjlo 1 bjhi 6 bdim2 6
cilo 1 cihi 6 cdim1 6 cjlo 1 cjhi 6 cdim2 6
In transpose
ailo 1 aihi 6 adim1 6 ajlo 1 ajhi 6 adim2 6
In no transpose
bilo 1 bihi 6 bdim1 6 bjlo 1 bjhi 6 bdim2 6
cilo 1 cihi 6 cdim1 6 cjlo 1 cjhi 6 cdim2 6
In no transpose
ailo 1 aihi 6 adim1 6 ajlo 1 ajhi 6 adim2 6
In no transpose
bilo 1 bihi 6 bdim1 6 bjlo 1 bjhi 6 bdim2 6
cilo 1 cihi 6 cdim1 6 cjlo 1 cjhi 6 cdim2 6
  neglecting  2  2.14301713E-18
  neglecting  3  1.34889828E-34
  neglecting  4  5.07425115E-67
  neglecting  5  0.
  neglecting  6  0.
  neglecting  7  0.
  neglecting  8  0.
  neglecting  9  0.
  stpr_wrt_fd_from_sq: overwrite of existing file:./h3.hess
 stpr_wrt_fd_dipole: overwrite of existing file./h3.fd_ddipole

 Potential energy=  -1.6191584449E+00 Hartree= -1.01604E+03 kcal/mol

 Derivatives in mass-scaled cartesians (au):
   1        0.000000E+00    0.000000E+00   -4.574964E-08
   2        0.000000E+00    0.000000E+00    4.574964E-08
   3        0.000000E+00    0.000000E+00   -1.262046E-17

 Reactant species    1

 Eigenvalues and eigenvectors of hessian

                       m=       1            2            3            4            5            6
  Eigenvalues (au)=           0.551477     0.000000     0.000000     0.000000     0.000000     0.000000
  Frequencies (cm^-1)=     4657.160549     1.454682     1.454682     0.007312     0.007311     0.000022
  Eigenvectors=
                        1     0.000000    -0.707105     0.000001    -0.707109     0.000000     0.000000
                        2     0.000000    -0.000001    -0.707105     0.000000     0.707109     0.000000
                        3    -0.707107     0.000000     0.000000     0.000000     0.000000    -0.707107
                        4     0.000000     0.707109    -0.000001    -0.707105     0.000000     0.000000
                        5     0.000000     0.000001     0.707109     0.000000     0.707105     0.000000
                        6     0.707107     0.000000     0.000000     0.000000     0.000000    -0.707107
  

 Reactant species    2 is an atom


 ********** Products

 Geometry in mass-scaled cartesians (bohrs):

                 x               y               z
   1        0.000000E+00    0.000000E+00   -1.548605E+02
   2        0.000000E+00    0.000000E+00    7.657993E+01
   3        0.000000E+00    0.000000E+00    7.828061E+01
 Symmetry group is C4V
  stpr_wrt_fd_from_sq: overwrite of existing file:./h3.hess
 stpr_wrt_fd_dipole: overwrite of existing file./h3.fd_ddipole
In transpose
ailo 1 aihi 6 adim1 6 ajlo 1 ajhi 6 adim2 6
In no transpose
bilo 1 bihi 6 bdim1 6 bjlo 1 bjhi 6 bdim2 6
cilo 1 cihi 6 cdim1 6 cjlo 1 cjhi 6 cdim2 6
In no transpose
ailo 1 aihi 6 adim1 6 ajlo 1 ajhi 6 adim2 6
In no transpose
bilo 1 bihi 6 bdim1 6 bjlo 1 bjhi 6 bdim2 6
cilo 1 cihi 6 cdim1 6 cjlo 1 cjhi 6 cdim2 6
In transpose
ailo 1 aihi 6 adim1 6 ajlo 1 ajhi 6 adim2 6
In no transpose
bilo 1 bihi 6 bdim1 6 bjlo 1 bjhi 6 bdim2 6
cilo 1 cihi 6 cdim1 6 cjlo 1 cjhi 6 cdim2 6
In no transpose
ailo 1 aihi 6 adim1 6 ajlo 1 ajhi 6 adim2 6
In no transpose
bilo 1 bihi 6 bdim1 6 bjlo 1 bjhi 6 bdim2 6
cilo 1 cihi 6 cdim1 6 cjlo 1 cjhi 6 cdim2 6
In transpose
ailo 1 aihi 6 adim1 6 ajlo 1 ajhi 6 adim2 6
In no transpose
bilo 1 bihi 6 bdim1 6 bjlo 1 bjhi 6 bdim2 6
cilo 1 cihi 6 cdim1 6 cjlo 1 cjhi 6 cdim2 6
In no transpose
ailo 1 aihi 6 adim1 6 ajlo 1 ajhi 6 adim2 6
In no transpose
bilo 1 bihi 6 bdim1 6 bjlo 1 bjhi 6 bdim2 6
cilo 1 cihi 6 cdim1 6 cjlo 1 cjhi 6 cdim2 6
In transpose
ailo 1 aihi 6 adim1 6 ajlo 1 ajhi 6 adim2 6
In no transpose
bilo 1 bihi 6 bdim1 6 bjlo 1 bjhi 6 bdim2 6
cilo 1 cihi 6 cdim1 6 cjlo 1 cjhi 6 cdim2 6
In no transpose
ailo 1 aihi 6 adim1 6 ajlo 1 ajhi 6 adim2 6
In no transpose
bilo 1 bihi 6 bdim1 6 bjlo 1 bjhi 6 bdim2 6
cilo 1 cihi 6 cdim1 6 cjlo 1 cjhi 6 cdim2 6
In transpose
ailo 1 aihi 6 adim1 6 ajlo 1 ajhi 6 adim2 6
In no transpose
bilo 1 bihi 6 bdim1 6 bjlo 1 bjhi 6 bdim2 6
cilo 1 cihi 6 cdim1 6 cjlo 1 cjhi 6 cdim2 6
In no transpose
ailo 1 aihi 6 adim1 6 ajlo 1 ajhi 6 adim2 6
In no transpose
bilo 1 bihi 6 bdim1 6 bjlo 1 bjhi 6 bdim2 6
cilo 1 cihi 6 cdim1 6 cjlo 1 cjhi 6 cdim2 6
In transpose
ailo 1 aihi 6 adim1 6 ajlo 1 ajhi 6 adim2 6
In no transpose
bilo 1 bihi 6 bdim1 6 bjlo 1 bjhi 6 bdim2 6
cilo 1 cihi 6 cdim1 6 cjlo 1 cjhi 6 cdim2 6
In no transpose
ailo 1 aihi 6 adim1 6 ajlo 1 ajhi 6 adim2 6
In no transpose
bilo 1 bihi 6 bdim1 6 bjlo 1 bjhi 6 bdim2 6
cilo 1 cihi 6 cdim1 6 cjlo 1 cjhi 6 cdim2 6
In transpose
ailo 1 aihi 6 adim1 6 ajlo 1 ajhi 6 adim2 6
In no transpose
bilo 1 bihi 6 bdim1 6 bjlo 1 bjhi 6 bdim2 6
cilo 1 cihi 6 cdim1 6 cjlo 1 cjhi 6 cdim2 6
In no transpose
ailo 1 aihi 6 adim1 6 ajlo 1 ajhi 6 adim2 6
In no transpose
bilo 1 bihi 6 bdim1 6 bjlo 1 bjhi 6 bdim2 6
cilo 1 cihi 6 cdim1 6 cjlo 1 cjhi 6 cdim2 6
In transpose
ailo 1 aihi 6 adim1 6 ajlo 1 ajhi 6 adim2 6
In no transpose
bilo 1 bihi 6 bdim1 6 bjlo 1 bjhi 6 bdim2 6
cilo 1 cihi 6 cdim1 6 cjlo 1 cjhi 6 cdim2 6
In no transpose
ailo 1 aihi 6 adim1 6 ajlo 1 ajhi 6 adim2 6
In no transpose
bilo 1 bihi 6 bdim1 6 bjlo 1 bjhi 6 bdim2 6
cilo 1 cihi 6 cdim1 6 cjlo 1 cjhi 6 cdim2 6
In transpose
ailo 1 aihi 6 adim1 6 ajlo 1 ajhi 6 adim2 6
In no transpose
bilo 1 bihi 6 bdim1 6 bjlo 1 bjhi 6 bdim2 6
cilo 1 cihi 6 cdim1 6 cjlo 1 cjhi 6 cdim2 6
In no transpose
ailo 1 aihi 6 adim1 6 ajlo 1 ajhi 6 adim2 6
In no transpose
bilo 1 bihi 6 bdim1 6 bjlo 1 bjhi 6 bdim2 6
cilo 1 cihi 6 cdim1 6 cjlo 1 cjhi 6 cdim2 6
In transpose
ailo 1 aihi 6 adim1 6 ajlo 1 ajhi 6 adim2 6
In no transpose
bilo 1 bihi 6 bdim1 6 bjlo 1 bjhi 6 bdim2 6
cilo 1 cihi 6 cdim1 6 cjlo 1 cjhi 6 cdim2 6
In no transpose
ailo 1 aihi 6 adim1 6 ajlo 1 ajhi 6 adim2 6
In no transpose
bilo 1 bihi 6 bdim1 6 bjlo 1 bjhi 6 bdim2 6
cilo 1 cihi 6 cdim1 6 cjlo 1 cjhi 6 cdim2 6
In transpose
ailo 1 aihi 6 adim1 6 ajlo 1 ajhi 6 adim2 6
In no transpose
bilo 1 bihi 6 bdim1 6 bjlo 1 bjhi 6 bdim2 6
cilo 1 cihi 6 cdim1 6 cjlo 1 cjhi 6 cdim2 6
In no transpose
ailo 1 aihi 6 adim1 6 ajlo 1 ajhi 6 adim2 6
In no transpose
bilo 1 bihi 6 bdim1 6 bjlo 1 bjhi 6 bdim2 6
cilo 1 cihi 6 cdim1 6 cjlo 1 cjhi 6 cdim2 6
In transpose
ailo 1 aihi 6 adim1 6 ajlo 1 ajhi 6 adim2 6
In no transpose
bilo 1 bihi 6 bdim1 6 bjlo 1 bjhi 6 bdim2 6
cilo 1 cihi 6 cdim1 6 cjlo 1 cjhi 6 cdim2 6
In no transpose
ailo 1 aihi 6 adim1 6 ajlo 1 ajhi 6 adim2 6
In no transpose
bilo 1 bihi 6 bdim1 6 bjlo 1 bjhi 6 bdim2 6
cilo 1 cihi 6 cdim1 6 cjlo 1 cjhi 6 cdim2 6
In transpose
ailo 1 aihi 6 adim1 6 ajlo 1 ajhi 6 adim2 6
In no transpose
bilo 1 bihi 6 bdim1 6 bjlo 1 bjhi 6 bdim2 6
cilo 1 cihi 6 cdim1 6 cjlo 1 cjhi 6 cdim2 6
In no transpose
ailo 1 aihi 6 adim1 6 ajlo 1 ajhi 6 adim2 6
In no transpose
bilo 1 bihi 6 bdim1 6 bjlo 1 bjhi 6 bdim2 6
cilo 1 cihi 6 cdim1 6 cjlo 1 cjhi 6 cdim2 6
In transpose
ailo 1 aihi 6 adim1 6 ajlo 1 ajhi 6 adim2 6
In no transpose
bilo 1 bihi 6 bdim1 6 bjlo 1 bjhi 6 bdim2 6
cilo 1 cihi 6 cdim1 6 cjlo 1 cjhi 6 cdim2 6
In no transpose
ailo 1 aihi 6 adim1 6 ajlo 1 ajhi 6 adim2 6
In no transpose
bilo 1 bihi 6 bdim1 6 bjlo 1 bjhi 6 bdim2 6
cilo 1 cihi 6 cdim1 6 cjlo 1 cjhi 6 cdim2 6
In transpose
ailo 1 aihi 6 adim1 6 ajlo 1 ajhi 6 adim2 6
In no transpose
bilo 1 bihi 6 bdim1 6 bjlo 1 bjhi 6 bdim2 6
cilo 1 cihi 6 cdim1 6 cjlo 1 cjhi 6 cdim2 6
In no transpose
ailo 1 aihi 6 adim1 6 ajlo 1 ajhi 6 adim2 6
In no transpose
bilo 1 bihi 6 bdim1 6 bjlo 1 bjhi 6 bdim2 6
cilo 1 cihi 6 cdim1 6 cjlo 1 cjhi 6 cdim2 6
In transpose
ailo 1 aihi 6 adim1 6 ajlo 1 ajhi 6 adim2 6
In no transpose
bilo 1 bihi 6 bdim1 6 bjlo 1 bjhi 6 bdim2 6
cilo 1 cihi 6 cdim1 6 cjlo 1 cjhi 6 cdim2 6
In no transpose
ailo 1 aihi 6 adim1 6 ajlo 1 ajhi 6 adim2 6
In no transpose
bilo 1 bihi 6 bdim1 6 bjlo 1 bjhi 6 bdim2 6
cilo 1 cihi 6 cdim1 6 cjlo 1 cjhi 6 cdim2 6
In transpose
ailo 1 aihi 6 adim1 6 ajlo 1 ajhi 6 adim2 6
In no transpose
bilo 1 bihi 6 bdim1 6 bjlo 1 bjhi 6 bdim2 6
cilo 1 cihi 6 cdim1 6 cjlo 1 cjhi 6 cdim2 6
In no transpose
ailo 1 aihi 6 adim1 6 ajlo 1 ajhi 6 adim2 6
In no transpose
bilo 1 bihi 6 bdim1 6 bjlo 1 bjhi 6 bdim2 6
cilo 1 cihi 6 cdim1 6 cjlo 1 cjhi 6 cdim2 6
In transpose
ailo 1 aihi 6 adim1 6 ajlo 1 ajhi 6 adim2 6
In no transpose
bilo 1 bihi 6 bdim1 6 bjlo 1 bjhi 6 bdim2 6
cilo 1 cihi 6 cdim1 6 cjlo 1 cjhi 6 cdim2 6
In no transpose
ailo 1 aihi 6 adim1 6 ajlo 1 ajhi 6 adim2 6
In no transpose
bilo 1 bihi 6 bdim1 6 bjlo 1 bjhi 6 bdim2 6
cilo 1 cihi 6 cdim1 6 cjlo 1 cjhi 6 cdim2 6
In transpose
ailo 1 aihi 6 adim1 6 ajlo 1 ajhi 6 adim2 6
In no transpose
bilo 1 bihi 6 bdim1 6 bjlo 1 bjhi 6 bdim2 6
cilo 1 cihi 6 cdim1 6 cjlo 1 cjhi 6 cdim2 6
In no transpose
ailo 1 aihi 6 adim1 6 ajlo 1 ajhi 6 adim2 6
In no transpose
bilo 1 bihi 6 bdim1 6 bjlo 1 bjhi 6 bdim2 6
cilo 1 cihi 6 cdim1 6 cjlo 1 cjhi 6 cdim2 6
In transpose
ailo 1 aihi 6 adim1 6 ajlo 1 ajhi 6 adim2 6
In no transpose
bilo 1 bihi 6 bdim1 6 bjlo 1 bjhi 6 bdim2 6
cilo 1 cihi 6 cdim1 6 cjlo 1 cjhi 6 cdim2 6
In no transpose
ailo 1 aihi 6 adim1 6 ajlo 1 ajhi 6 adim2 6
In no transpose
bilo 1 bihi 6 bdim1 6 bjlo 1 bjhi 6 bdim2 6
cilo 1 cihi 6 cdim1 6 cjlo 1 cjhi 6 cdim2 6
In transpose
ailo 1 aihi 6 adim1 6 ajlo 1 ajhi 6 adim2 6
In no transpose
bilo 1 bihi 6 bdim1 6 bjlo 1 bjhi 6 bdim2 6
cilo 1 cihi 6 cdim1 6 cjlo 1 cjhi 6 cdim2 6
In no transpose
ailo 1 aihi 6 adim1 6 ajlo 1 ajhi 6 adim2 6
In no transpose
bilo 1 bihi 6 bdim1 6 bjlo 1 bjhi 6 bdim2 6
cilo 1 cihi 6 cdim1 6 cjlo 1 cjhi 6 cdim2 6
In transpose
ailo 1 aihi 6 adim1 6 ajlo 1 ajhi 6 adim2 6
In no transpose
bilo 1 bihi 6 bdim1 6 bjlo 1 bjhi 6 bdim2 6
cilo 1 cihi 6 cdim1 6 cjlo 1 cjhi 6 cdim2 6
In no transpose
ailo 1 aihi 6 adim1 6 ajlo 1 ajhi 6 adim2 6
In no transpose
bilo 1 bihi 6 bdim1 6 bjlo 1 bjhi 6 bdim2 6
cilo 1 cihi 6 cdim1 6 cjlo 1 cjhi 6 cdim2 6
In transpose
ailo 1 aihi 6 adim1 6 ajlo 1 ajhi 6 adim2 6
In no transpose
bilo 1 bihi 6 bdim1 6 bjlo 1 bjhi 6 bdim2 6
cilo 1 cihi 6 cdim1 6 cjlo 1 cjhi 6 cdim2 6
In no transpose
ailo 1 aihi 6 adim1 6 ajlo 1 ajhi 6 adim2 6
In no transpose
bilo 1 bihi 6 bdim1 6 bjlo 1 bjhi 6 bdim2 6
cilo 1 cihi 6 cdim1 6 cjlo 1 cjhi 6 cdim2 6
In transpose
ailo 1 aihi 6 adim1 6 ajlo 1 ajhi 6 adim2 6
In no transpose
bilo 1 bihi 6 bdim1 6 bjlo 1 bjhi 6 bdim2 6
cilo 1 cihi 6 cdim1 6 cjlo 1 cjhi 6 cdim2 6
In no transpose
ailo 1 aihi 6 adim1 6 ajlo 1 ajhi 6 adim2 6
In no transpose
bilo 1 bihi 6 bdim1 6 bjlo 1 bjhi 6 bdim2 6
cilo 1 cihi 6 cdim1 6 cjlo 1 cjhi 6 cdim2 6
In transpose
ailo 1 aihi 6 adim1 6 ajlo 1 ajhi 6 adim2 6
In no transpose
bilo 1 bihi 6 bdim1 6 bjlo 1 bjhi 6 bdim2 6
cilo 1 cihi 6 cdim1 6 cjlo 1 cjhi 6 cdim2 6
In no transpose
ailo 1 aihi 6 adim1 6 ajlo 1 ajhi 6 adim2 6
In no transpose
bilo 1 bihi 6 bdim1 6 bjlo 1 bjhi 6 bdim2 6
cilo 1 cihi 6 cdim1 6 cjlo 1 cjhi 6 cdim2 6
In transpose
ailo 1 aihi 6 adim1 6 ajlo 1 ajhi 6 adim2 6
In no transpose
bilo 1 bihi 6 bdim1 6 bjlo 1 bjhi 6 bdim2 6
cilo 1 cihi 6 cdim1 6 cjlo 1 cjhi 6 cdim2 6
In no transpose
ailo 1 aihi 6 adim1 6 ajlo 1 ajhi 6 adim2 6
In no transpose
bilo 1 bihi 6 bdim1 6 bjlo 1 bjhi 6 bdim2 6
cilo 1 cihi 6 cdim1 6 cjlo 1 cjhi 6 cdim2 6
In transpose
ailo 1 aihi 6 adim1 6 ajlo 1 ajhi 6 adim2 6
In no transpose
bilo 1 bihi 6 bdim1 6 bjlo 1 bjhi 6 bdim2 6
cilo 1 cihi 6 cdim1 6 cjlo 1 cjhi 6 cdim2 6
In no transpose
ailo 1 aihi 6 adim1 6 ajlo 1 ajhi 6 adim2 6
In no transpose
bilo 1 bihi 6 bdim1 6 bjlo 1 bjhi 6 bdim2 6
cilo 1 cihi 6 cdim1 6 cjlo 1 cjhi 6 cdim2 6
In transpose
ailo 1 aihi 6 adim1 6 ajlo 1 ajhi 6 adim2 6
In no transpose
bilo 1 bihi 6 bdim1 6 bjlo 1 bjhi 6 bdim2 6
cilo 1 cihi 6 cdim1 6 cjlo 1 cjhi 6 cdim2 6
In no transpose
ailo 1 aihi 6 adim1 6 ajlo 1 ajhi 6 adim2 6
In no transpose
bilo 1 bihi 6 bdim1 6 bjlo 1 bjhi 6 bdim2 6
cilo 1 cihi 6 cdim1 6 cjlo 1 cjhi 6 cdim2 6
In transpose
ailo 1 aihi 6 adim1 6 ajlo 1 ajhi 6 adim2 6
In no transpose
bilo 1 bihi 6 bdim1 6 bjlo 1 bjhi 6 bdim2 6
cilo 1 cihi 6 cdim1 6 cjlo 1 cjhi 6 cdim2 6
In no transpose
ailo 1 aihi 6 adim1 6 ajlo 1 ajhi 6 adim2 6
In no transpose
bilo 1 bihi 6 bdim1 6 bjlo 1 bjhi 6 bdim2 6
cilo 1 cihi 6 cdim1 6 cjlo 1 cjhi 6 cdim2 6
In transpose
ailo 1 aihi 6 adim1 6 ajlo 1 ajhi 6 adim2 6
In no transpose
bilo 1 bihi 6 bdim1 6 bjlo 1 bjhi 6 bdim2 6
cilo 1 cihi 6 cdim1 6 cjlo 1 cjhi 6 cdim2 6
In no transpose
ailo 1 aihi 6 adim1 6 ajlo 1 ajhi 6 adim2 6
In no transpose
bilo 1 bihi 6 bdim1 6 bjlo 1 bjhi 6 bdim2 6
cilo 1 cihi 6 cdim1 6 cjlo 1 cjhi 6 cdim2 6
In transpose
ailo 1 aihi 6 adim1 6 ajlo 1 ajhi 6 adim2 6
In no transpose
bilo 1 bihi 6 bdim1 6 bjlo 1 bjhi 6 bdim2 6
cilo 1 cihi 6 cdim1 6 cjlo 1 cjhi 6 cdim2 6
In no transpose
ailo 1 aihi 6 adim1 6 ajlo 1 ajhi 6 adim2 6
In no transpose
bilo 1 bihi 6 bdim1 6 bjlo 1 bjhi 6 bdim2 6
cilo 1 cihi 6 cdim1 6 cjlo 1 cjhi 6 cdim2 6
In transpose
ailo 1 aihi 6 adim1 6 ajlo 1 ajhi 6 adim2 6
In no transpose
bilo 1 bihi 6 bdim1 6 bjlo 1 bjhi 6 bdim2 6
cilo 1 cihi 6 cdim1 6 cjlo 1 cjhi 6 cdim2 6
In no transpose
ailo 1 aihi 6 adim1 6 ajlo 1 ajhi 6 adim2 6
In no transpose
bilo 1 bihi 6 bdim1 6 bjlo 1 bjhi 6 bdim2 6
cilo 1 cihi 6 cdim1 6 cjlo 1 cjhi 6 cdim2 6
In transpose
ailo 1 aihi 6 adim1 6 ajlo 1 ajhi 6 adim2 6
In no transpose
bilo 1 bihi 6 bdim1 6 bjlo 1 bjhi 6 bdim2 6
cilo 1 cihi 6 cdim1 6 cjlo 1 cjhi 6 cdim2 6
In no transpose
ailo 1 aihi 6 adim1 6 ajlo 1 ajhi 6 adim2 6
In no transpose
bilo 1 bihi 6 bdim1 6 bjlo 1 bjhi 6 bdim2 6
cilo 1 cihi 6 cdim1 6 cjlo 1 cjhi 6 cdim2 6
In transpose
ailo 1 aihi 6 adim1 6 ajlo 1 ajhi 6 adim2 6
In no transpose
bilo 1 bihi 6 bdim1 6 bjlo 1 bjhi 6 bdim2 6
cilo 1 cihi 6 cdim1 6 cjlo 1 cjhi 6 cdim2 6
In no transpose
ailo 1 aihi 6 adim1 6 ajlo 1 ajhi 6 adim2 6
In no transpose
bilo 1 bihi 6 bdim1 6 bjlo 1 bjhi 6 bdim2 6
cilo 1 cihi 6 cdim1 6 cjlo 1 cjhi 6 cdim2 6
In transpose
ailo 1 aihi 6 adim1 6 ajlo 1 ajhi 6 adim2 6
In no transpose
bilo 1 bihi 6 bdim1 6 bjlo 1 bjhi 6 bdim2 6
cilo 1 cihi 6 cdim1 6 cjlo 1 cjhi 6 cdim2 6
In no transpose
ailo 1 aihi 6 adim1 6 ajlo 1 ajhi 6 adim2 6
In no transpose
bilo 1 bihi 6 bdim1 6 bjlo 1 bjhi 6 bdim2 6
cilo 1 cihi 6 cdim1 6 cjlo 1 cjhi 6 cdim2 6
In transpose
ailo 1 aihi 6 adim1 6 ajlo 1 ajhi 6 adim2 6
In no transpose
bilo 1 bihi 6 bdim1 6 bjlo 1 bjhi 6 bdim2 6
cilo 1 cihi 6 cdim1 6 cjlo 1 cjhi 6 cdim2 6
In no transpose
ailo 1 aihi 6 adim1 6 ajlo 1 ajhi 6 adim2 6
In no transpose
bilo 1 bihi 6 bdim1 6 bjlo 1 bjhi 6 bdim2 6
cilo 1 cihi 6 cdim1 6 cjlo 1 cjhi 6 cdim2 6
In no transpose
ailo 1 aihi 6 adim1 6 ajlo 1 ajhi 2 adim2 6
In no transpose
bilo 1 bihi 2 bdim1 6 bjlo 1 bjhi 2 bdim2 6
cilo 1 cihi 6 cdim1 6 cjlo 1 cjhi 2 cdim2 6
In no transpose
ailo 1 aihi 6 adim1 6 ajlo 1 ajhi 2 adim2 6
In transpose
bilo 1 bihi 2 bdim1 6 bjlo 1 bjhi 6 bdim2 6
cilo 1 cihi 6 cdim1 6 cjlo 1 cjhi 6 cdim2 6
In no transpose
ailo 1 aihi 6 adim1 6 ajlo 1 ajhi 2 adim2 6
In no transpose
bilo 1 bihi 2 bdim1 6 bjlo 1 bjhi 2 bdim2 6
cilo 1 cihi 6 cdim1 6 cjlo 1 cjhi 2 cdim2 6
In no transpose
ailo 1 aihi 6 adim1 6 ajlo 1 ajhi 2 adim2 6
In transpose
bilo 1 bihi 2 bdim1 6 bjlo 1 bjhi 6 bdim2 6
cilo 1 cihi 6 cdim1 6 cjlo 1 cjhi 6 cdim2 6
In no transpose
ailo 1 aihi 6 adim1 6 ajlo 1 ajhi 2 adim2 6
In no transpose
bilo 1 bihi 2 bdim1 6 bjlo 1 bjhi 2 bdim2 6
cilo 1 cihi 6 cdim1 6 cjlo 1 cjhi 2 cdim2 6
In no transpose
ailo 1 aihi 6 adim1 6 ajlo 1 ajhi 2 adim2 6
In transpose
bilo 1 bihi 2 bdim1 6 bjlo 1 bjhi 6 bdim2 6
cilo 1 cihi 6 cdim1 6 cjlo 1 cjhi 6 cdim2 6
In no transpose
ailo 1 aihi 6 adim1 6 ajlo 1 ajhi 2 adim2 6
In no transpose
bilo 1 bihi 2 bdim1 6 bjlo 1 bjhi 2 bdim2 6
cilo 1 cihi 6 cdim1 6 cjlo 1 cjhi 2 cdim2 6
In no transpose
ailo 1 aihi 6 adim1 6 ajlo 1 ajhi 2 adim2 6
In transpose
bilo 1 bihi 2 bdim1 6 bjlo 1 bjhi 6 bdim2 6
cilo 1 cihi 6 cdim1 6 cjlo 1 cjhi 6 cdim2 6
In no transpose
ailo 1 aihi 6 adim1 6 ajlo 1 ajhi 2 adim2 6
In no transpose
bilo 1 bihi 2 bdim1 6 bjlo 1 bjhi 2 bdim2 6
cilo 1 cihi 6 cdim1 6 cjlo 1 cjhi 2 cdim2 6
In no transpose
ailo 1 aihi 6 adim1 6 ajlo 1 ajhi 2 adim2 6
In transpose
bilo 1 bihi 2 bdim1 6 bjlo 1 bjhi 6 bdim2 6
cilo 1 cihi 6 cdim1 6 cjlo 1 cjhi 6 cdim2 6
In no transpose
ailo 1 aihi 6 adim1 6 ajlo 1 ajhi 2 adim2 6
In no transpose
bilo 1 bihi 2 bdim1 6 bjlo 1 bjhi 2 bdim2 6
cilo 1 cihi 6 cdim1 6 cjlo 1 cjhi 2 cdim2 6
In no transpose
ailo 1 aihi 6 adim1 6 ajlo 1 ajhi 2 adim2 6
In transpose
bilo 1 bihi 2 bdim1 6 bjlo 1 bjhi 6 bdim2 6
cilo 1 cihi 6 cdim1 6 cjlo 1 cjhi 6 cdim2 6
In no transpose
ailo 1 aihi 6 adim1 6 ajlo 1 ajhi 2 adim2 6
In no transpose
bilo 1 bihi 2 bdim1 6 bjlo 1 bjhi 2 bdim2 6
cilo 1 cihi 6 cdim1 6 cjlo 1 cjhi 2 cdim2 6
In no transpose
ailo 1 aihi 6 adim1 6 ajlo 1 ajhi 2 adim2 6
In transpose
bilo 1 bihi 2 bdim1 6 bjlo 1 bjhi 6 bdim2 6
cilo 1 cihi 6 cdim1 6 cjlo 1 cjhi 6 cdim2 6
In no transpose
ailo 1 aihi 6 adim1 6 ajlo 1 ajhi 2 adim2 6
In no transpose
bilo 1 bihi 2 bdim1 6 bjlo 1 bjhi 2 bdim2 6
cilo 1 cihi 6 cdim1 6 cjlo 1 cjhi 2 cdim2 6
In no transpose
ailo 1 aihi 6 adim1 6 ajlo 1 ajhi 2 adim2 6
In transpose
bilo 1 bihi 2 bdim1 6 bjlo 1 bjhi 6 bdim2 6
cilo 1 cihi 6 cdim1 6 cjlo 1 cjhi 6 cdim2 6
In no transpose
ailo 1 aihi 6 adim1 6 ajlo 1 ajhi 2 adim2 6
In no transpose
bilo 1 bihi 2 bdim1 6 bjlo 1 bjhi 2 bdim2 6
cilo 1 cihi 6 cdim1 6 cjlo 1 cjhi 2 cdim2 6
In no transpose
ailo 1 aihi 6 adim1 6 ajlo 1 ajhi 2 adim2 6
In transpose
bilo 1 bihi 2 bdim1 6 bjlo 1 bjhi 6 bdim2 6
cilo 1 cihi 6 cdim1 6 cjlo 1 cjhi 6 cdim2 6
In no transpose
ailo 1 aihi 6 adim1 6 ajlo 1 ajhi 1 adim2 6
In no transpose
bilo 10 bihi 10 bdim1 18 bjlo 1 bjhi 1 bdim2 6
cilo 1 cihi 6 cdim1 6 cjlo 1 cjhi 1 cdim2 6
In no transpose
ailo 1 aihi 6 adim1 6 ajlo 1 ajhi 1 adim2 6
In transpose
bilo 1 bihi 1 bdim1 6 bjlo 1 bjhi 6 bdim2 6
cilo 1 cihi 6 cdim1 6 cjlo 1 cjhi 6 cdim2 6
In no transpose
ailo 1 aihi 6 adim1 6 ajlo 1 ajhi 1 adim2 6
In no transpose
bilo 11 bihi 11 bdim1 18 bjlo 1 bjhi 1 bdim2 6
cilo 1 cihi 6 cdim1 6 cjlo 1 cjhi 1 cdim2 6
In no transpose
ailo 1 aihi 6 adim1 6 ajlo 1 ajhi 1 adim2 6
In transpose
bilo 1 bihi 1 bdim1 6 bjlo 1 bjhi 6 bdim2 6
cilo 1 cihi 6 cdim1 6 cjlo 1 cjhi 6 cdim2 6
In no transpose
ailo 1 aihi 6 adim1 6 ajlo 1 ajhi 1 adim2 6
In no transpose
bilo 12 bihi 12 bdim1 18 bjlo 1 bjhi 1 bdim2 6
cilo 1 cihi 6 cdim1 6 cjlo 1 cjhi 1 cdim2 6
In no transpose
ailo 1 aihi 6 adim1 6 ajlo 1 ajhi 1 adim2 6
In transpose
bilo 1 bihi 1 bdim1 6 bjlo 1 bjhi 6 bdim2 6
cilo 1 cihi 6 cdim1 6 cjlo 1 cjhi 6 cdim2 6
In no transpose
ailo 1 aihi 6 adim1 6 ajlo 1 ajhi 1 adim2 6
In no transpose
bilo 13 bihi 13 bdim1 18 bjlo 1 bjhi 1 bdim2 6
cilo 1 cihi 6 cdim1 6 cjlo 1 cjhi 1 cdim2 6
In no transpose
ailo 1 aihi 6 adim1 6 ajlo 1 ajhi 1 adim2 6
In transpose
bilo 1 bihi 1 bdim1 6 bjlo 1 bjhi 6 bdim2 6
cilo 1 cihi 6 cdim1 6 cjlo 1 cjhi 6 cdim2 6
In no transpose
ailo 1 aihi 6 adim1 6 ajlo 1 ajhi 1 adim2 6
In no transpose
bilo 14 bihi 14 bdim1 18 bjlo 1 bjhi 1 bdim2 6
cilo 1 cihi 6 cdim1 6 cjlo 1 cjhi 1 cdim2 6
In no transpose
ailo 1 aihi 6 adim1 6 ajlo 1 ajhi 1 adim2 6
In transpose
bilo 1 bihi 1 bdim1 6 bjlo 1 bjhi 6 bdim2 6
cilo 1 cihi 6 cdim1 6 cjlo 1 cjhi 6 cdim2 6
In no transpose
ailo 1 aihi 6 adim1 6 ajlo 1 ajhi 1 adim2 6
In no transpose
bilo 15 bihi 15 bdim1 18 bjlo 1 bjhi 1 bdim2 6
cilo 1 cihi 6 cdim1 6 cjlo 1 cjhi 1 cdim2 6
In no transpose
ailo 1 aihi 6 adim1 6 ajlo 1 ajhi 1 adim2 6
In transpose
bilo 1 bihi 1 bdim1 6 bjlo 1 bjhi 6 bdim2 6
cilo 1 cihi 6 cdim1 6 cjlo 1 cjhi 6 cdim2 6
In no transpose
ailo 1 aihi 6 adim1 6 ajlo 1 ajhi 1 adim2 6
In no transpose
bilo 16 bihi 16 bdim1 18 bjlo 1 bjhi 1 bdim2 6
cilo 1 cihi 6 cdim1 6 cjlo 1 cjhi 1 cdim2 6
In no transpose
ailo 1 aihi 6 adim1 6 ajlo 1 ajhi 1 adim2 6
In transpose
bilo 1 bihi 1 bdim1 6 bjlo 1 bjhi 6 bdim2 6
cilo 1 cihi 6 cdim1 6 cjlo 1 cjhi 6 cdim2 6
In no transpose
ailo 1 aihi 6 adim1 6 ajlo 1 ajhi 1 adim2 6
In no transpose
bilo 17 bihi 17 bdim1 18 bjlo 1 bjhi 1 bdim2 6
cilo 1 cihi 6 cdim1 6 cjlo 1 cjhi 1 cdim2 6
In no transpose
ailo 1 aihi 6 adim1 6 ajlo 1 ajhi 1 adim2 6
In transpose
bilo 1 bihi 1 bdim1 6 bjlo 1 bjhi 6 bdim2 6
cilo 1 cihi 6 cdim1 6 cjlo 1 cjhi 6 cdim2 6
In no transpose
ailo 1 aihi 6 adim1 6 ajlo 1 ajhi 1 adim2 6
In no transpose
bilo 18 bihi 18 bdim1 18 bjlo 1 bjhi 1 bdim2 6
cilo 1 cihi 6 cdim1 6 cjlo 1 cjhi 1 cdim2 6
In no transpose
ailo 1 aihi 6 adim1 6 ajlo 1 ajhi 1 adim2 6
In transpose
bilo 1 bihi 1 bdim1 6 bjlo 1 bjhi 6 bdim2 6
cilo 1 cihi 6 cdim1 6 cjlo 1 cjhi 6 cdim2 6
In transpose
ailo 1 aihi 6 adim1 6 ajlo 1 ajhi 6 adim2 6
In no transpose
bilo 1 bihi 6 bdim1 6 bjlo 1 bjhi 6 bdim2 6
cilo 1 cihi 6 cdim1 6 cjlo 1 cjhi 6 cdim2 6
In no transpose
ailo 1 aihi 6 adim1 6 ajlo 1 ajhi 6 adim2 6
In no transpose
bilo 1 bihi 6 bdim1 6 bjlo 1 bjhi 6 bdim2 6
cilo 1 cihi 6 cdim1 6 cjlo 1 cjhi 6 cdim2 6
In transpose
ailo 1 aihi 6 adim1 6 ajlo 1 ajhi 6 adim2 6
In no transpose
bilo 1 bihi 6 bdim1 6 bjlo 1 bjhi 6 bdim2 6
cilo 1 cihi 6 cdim1 6 cjlo 1 cjhi 6 cdim2 6
In no transpose
ailo 1 aihi 6 adim1 6 ajlo 1 ajhi 6 adim2 6
In no transpose
bilo 1 bihi 6 bdim1 6 bjlo 1 bjhi 6 bdim2 6
cilo 1 cihi 6 cdim1 6 cjlo 1 cjhi 6 cdim2 6
In transpose
ailo 1 aihi 6 adim1 6 ajlo 1 ajhi 6 adim2 6
In no transpose
bilo 1 bihi 6 bdim1 6 bjlo 1 bjhi 6 bdim2 6
cilo 1 cihi 6 cdim1 6 cjlo 1 cjhi 6 cdim2 6
In no transpose
ailo 1 aihi 6 adim1 6 ajlo 1 ajhi 6 adim2 6
In no transpose
bilo 1 bihi 6 bdim1 6 bjlo 1 bjhi 6 bdim2 6
cilo 1 cihi 6 cdim1 6 cjlo 1 cjhi 6 cdim2 6
In transpose
ailo 1 aihi 6 adim1 6 ajlo 1 ajhi 6 adim2 6
In no transpose
bilo 1 bihi 6 bdim1 6 bjlo 1 bjhi 6 bdim2 6
cilo 1 cihi 6 cdim1 6 cjlo 1 cjhi 6 cdim2 6
In no transpose
ailo 1 aihi 6 adim1 6 ajlo 1 ajhi 6 adim2 6
In no transpose
bilo 1 bihi 6 bdim1 6 bjlo 1 bjhi 6 bdim2 6
cilo 1 cihi 6 cdim1 6 cjlo 1 cjhi 6 cdim2 6
In transpose
ailo 1 aihi 6 adim1 6 ajlo 1 ajhi 6 adim2 6
In no transpose
bilo 1 bihi 6 bdim1 6 bjlo 1 bjhi 6 bdim2 6
cilo 1 cihi 6 cdim1 6 cjlo 1 cjhi 6 cdim2 6
In no transpose
ailo 1 aihi 6 adim1 6 ajlo 1 ajhi 6 adim2 6
In no transpose
bilo 1 bihi 6 bdim1 6 bjlo 1 bjhi 6 bdim2 6
cilo 1 cihi 6 cdim1 6 cjlo 1 cjhi 6 cdim2 6
In transpose
ailo 1 aihi 6 adim1 6 ajlo 1 ajhi 6 adim2 6
In no transpose
bilo 1 bihi 6 bdim1 6 bjlo 1 bjhi 6 bdim2 6
cilo 1 cihi 6 cdim1 6 cjlo 1 cjhi 6 cdim2 6
In no transpose
ailo 1 aihi 6 adim1 6 ajlo 1 ajhi 6 adim2 6
In no transpose
bilo 1 bihi 6 bdim1 6 bjlo 1 bjhi 6 bdim2 6
cilo 1 cihi 6 cdim1 6 cjlo 1 cjhi 6 cdim2 6
In transpose
ailo 1 aihi 6 adim1 6 ajlo 1 ajhi 6 adim2 6
In no transpose
bilo 1 bihi 6 bdim1 6 bjlo 1 bjhi 6 bdim2 6
cilo 1 cihi 6 cdim1 6 cjlo 1 cjhi 6 cdim2 6
In no transpose
ailo 1 aihi 6 adim1 6 ajlo 1 ajhi 6 adim2 6
In no transpose
bilo 1 bihi 6 bdim1 6 bjlo 1 bjhi 6 bdim2 6
cilo 1 cihi 6 cdim1 6 cjlo 1 cjhi 6 cdim2 6
In transpose
ailo 1 aihi 6 adim1 6 ajlo 1 ajhi 6 adim2 6
In no transpose
bilo 1 bihi 6 bdim1 6 bjlo 1 bjhi 6 bdim2 6
cilo 1 cihi 6 cdim1 6 cjlo 1 cjhi 6 cdim2 6
In no transpose
ailo 1 aihi 6 adim1 6 ajlo 1 ajhi 6 adim2 6
In no transpose
bilo 1 bihi 6 bdim1 6 bjlo 1 bjhi 6 bdim2 6
cilo 1 cihi 6 cdim1 6 cjlo 1 cjhi 6 cdim2 6
In transpose
ailo 1 aihi 6 adim1 6 ajlo 1 ajhi 6 adim2 6
In no transpose
bilo 1 bihi 6 bdim1 6 bjlo 1 bjhi 6 bdim2 6
cilo 1 cihi 6 cdim1 6 cjlo 1 cjhi 6 cdim2 6
In no transpose
ailo 1 aihi 6 adim1 6 ajlo 1 ajhi 6 adim2 6
In no transpose
bilo 1 bihi 6 bdim1 6 bjlo 1 bjhi 6 bdim2 6
cilo 1 cihi 6 cdim1 6 cjlo 1 cjhi 6 cdim2 6
In transpose
ailo 1 aihi 6 adim1 6 ajlo 1 ajhi 6 adim2 6
In no transpose
bilo 1 bihi 6 bdim1 6 bjlo 1 bjhi 6 bdim2 6
cilo 1 cihi 6 cdim1 6 cjlo 1 cjhi 6 cdim2 6
In no transpose
ailo 1 aihi 6 adim1 6 ajlo 1 ajhi 6 adim2 6
In no transpose
bilo 1 bihi 6 bdim1 6 bjlo 1 bjhi 6 bdim2 6
cilo 1 cihi 6 cdim1 6 cjlo 1 cjhi 6 cdim2 6
In transpose
ailo 1 aihi 6 adim1 6 ajlo 1 ajhi 6 adim2 6
In no transpose
bilo 1 bihi 6 bdim1 6 bjlo 1 bjhi 6 bdim2 6
cilo 1 cihi 6 cdim1 6 cjlo 1 cjhi 6 cdim2 6
In no transpose
ailo 1 aihi 6 adim1 6 ajlo 1 ajhi 6 adim2 6
In no transpose
bilo 1 bihi 6 bdim1 6 bjlo 1 bjhi 6 bdim2 6
cilo 1 cihi 6 cdim1 6 cjlo 1 cjhi 6 cdim2 6
In transpose
ailo 1 aihi 6 adim1 6 ajlo 1 ajhi 6 adim2 6
In no transpose
bilo 1 bihi 6 bdim1 6 bjlo 1 bjhi 6 bdim2 6
cilo 1 cihi 6 cdim1 6 cjlo 1 cjhi 6 cdim2 6
In no transpose
ailo 1 aihi 6 adim1 6 ajlo 1 ajhi 6 adim2 6
In no transpose
bilo 1 bihi 6 bdim1 6 bjlo 1 bjhi 6 bdim2 6
cilo 1 cihi 6 cdim1 6 cjlo 1 cjhi 6 cdim2 6
In transpose
ailo 1 aihi 6 adim1 6 ajlo 1 ajhi 6 adim2 6
In no transpose
bilo 1 bihi 6 bdim1 6 bjlo 1 bjhi 6 bdim2 6
cilo 1 cihi 6 cdim1 6 cjlo 1 cjhi 6 cdim2 6
In no transpose
ailo 1 aihi 6 adim1 6 ajlo 1 ajhi 6 adim2 6
In no transpose
bilo 1 bihi 6 bdim1 6 bjlo 1 bjhi 6 bdim2 6
cilo 1 cihi 6 cdim1 6 cjlo 1 cjhi 6 cdim2 6
In transpose
ailo 1 aihi 6 adim1 6 ajlo 1 ajhi 6 adim2 6
In no transpose
bilo 1 bihi 6 bdim1 6 bjlo 1 bjhi 6 bdim2 6
cilo 1 cihi 6 cdim1 6 cjlo 1 cjhi 6 cdim2 6
In no transpose
ailo 1 aihi 6 adim1 6 ajlo 1 ajhi 6 adim2 6
In no transpose
bilo 1 bihi 6 bdim1 6 bjlo 1 bjhi 6 bdim2 6
cilo 1 cihi 6 cdim1 6 cjlo 1 cjhi 6 cdim2 6
In transpose
ailo 1 aihi 6 adim1 6 ajlo 1 ajhi 6 adim2 6
In no transpose
bilo 1 bihi 6 bdim1 6 bjlo 1 bjhi 6 bdim2 6
cilo 1 cihi 6 cdim1 6 cjlo 1 cjhi 6 cdim2 6
In no transpose
ailo 1 aihi 6 adim1 6 ajlo 1 ajhi 6 adim2 6
In no transpose
bilo 1 bihi 6 bdim1 6 bjlo 1 bjhi 6 bdim2 6
cilo 1 cihi 6 cdim1 6 cjlo 1 cjhi 6 cdim2 6
In transpose
ailo 1 aihi 6 adim1 6 ajlo 1 ajhi 6 adim2 6
In no transpose
bilo 1 bihi 6 bdim1 6 bjlo 1 bjhi 6 bdim2 6
cilo 1 cihi 6 cdim1 6 cjlo 1 cjhi 6 cdim2 6
In no transpose
ailo 1 aihi 6 adim1 6 ajlo 1 ajhi 6 adim2 6
In no transpose
bilo 1 bihi 6 bdim1 6 bjlo 1 bjhi 6 bdim2 6
cilo 1 cihi 6 cdim1 6 cjlo 1 cjhi 6 cdim2 6
In transpose
ailo 1 aihi 6 adim1 6 ajlo 1 ajhi 6 adim2 6
In no transpose
bilo 1 bihi 6 bdim1 6 bjlo 1 bjhi 6 bdim2 6
cilo 1 cihi 6 cdim1 6 cjlo 1 cjhi 6 cdim2 6
In no transpose
ailo 1 aihi 6 adim1 6 ajlo 1 ajhi 6 adim2 6
In no transpose
bilo 1 bihi 6 bdim1 6 bjlo 1 bjhi 6 bdim2 6
cilo 1 cihi 6 cdim1 6 cjlo 1 cjhi 6 cdim2 6
In transpose
ailo 1 aihi 6 adim1 6 ajlo 1 ajhi 6 adim2 6
In no transpose
bilo 1 bihi 6 bdim1 6 bjlo 1 bjhi 6 bdim2 6
cilo 1 cihi 6 cdim1 6 cjlo 1 cjhi 6 cdim2 6
In no transpose
ailo 1 aihi 6 adim1 6 ajlo 1 ajhi 6 adim2 6
In no transpose
bilo 1 bihi 6 bdim1 6 bjlo 1 bjhi 6 bdim2 6
cilo 1 cihi 6 cdim1 6 cjlo 1 cjhi 6 cdim2 6
In transpose
ailo 1 aihi 6 adim1 6 ajlo 1 ajhi 6 adim2 6
In no transpose
bilo 1 bihi 6 bdim1 6 bjlo 1 bjhi 6 bdim2 6
cilo 1 cihi 6 cdim1 6 cjlo 1 cjhi 6 cdim2 6
In no transpose
ailo 1 aihi 6 adim1 6 ajlo 1 ajhi 6 adim2 6
In no transpose
bilo 1 bihi 6 bdim1 6 bjlo 1 bjhi 6 bdim2 6
cilo 1 cihi 6 cdim1 6 cjlo 1 cjhi 6 cdim2 6
In transpose
ailo 1 aihi 6 adim1 6 ajlo 1 ajhi 6 adim2 6
In no transpose
bilo 1 bihi 6 bdim1 6 bjlo 1 bjhi 6 bdim2 6
cilo 1 cihi 6 cdim1 6 cjlo 1 cjhi 6 cdim2 6
In no transpose
ailo 1 aihi 6 adim1 6 ajlo 1 ajhi 6 adim2 6
In no transpose
bilo 1 bihi 6 bdim1 6 bjlo 1 bjhi 6 bdim2 6
cilo 1 cihi 6 cdim1 6 cjlo 1 cjhi 6 cdim2 6
In transpose
ailo 1 aihi 6 adim1 6 ajlo 1 ajhi 6 adim2 6
In no transpose
bilo 1 bihi 6 bdim1 6 bjlo 1 bjhi 6 bdim2 6
cilo 1 cihi 6 cdim1 6 cjlo 1 cjhi 6 cdim2 6
In no transpose
ailo 1 aihi 6 adim1 6 ajlo 1 ajhi 6 adim2 6
In no transpose
bilo 1 bihi 6 bdim1 6 bjlo 1 bjhi 6 bdim2 6
cilo 1 cihi 6 cdim1 6 cjlo 1 cjhi 6 cdim2 6
In transpose
ailo 1 aihi 6 adim1 6 ajlo 1 ajhi 6 adim2 6
In no transpose
bilo 1 bihi 6 bdim1 6 bjlo 1 bjhi 6 bdim2 6
cilo 1 cihi 6 cdim1 6 cjlo 1 cjhi 6 cdim2 6
In no transpose
ailo 1 aihi 6 adim1 6 ajlo 1 ajhi 6 adim2 6
In no transpose
bilo 1 bihi 6 bdim1 6 bjlo 1 bjhi 6 bdim2 6
cilo 1 cihi 6 cdim1 6 cjlo 1 cjhi 6 cdim2 6
In transpose
ailo 1 aihi 6 adim1 6 ajlo 1 ajhi 6 adim2 6
In no transpose
bilo 1 bihi 6 bdim1 6 bjlo 1 bjhi 6 bdim2 6
cilo 1 cihi 6 cdim1 6 cjlo 1 cjhi 6 cdim2 6
In no transpose
ailo 1 aihi 6 adim1 6 ajlo 1 ajhi 6 adim2 6
In no transpose
bilo 1 bihi 6 bdim1 6 bjlo 1 bjhi 6 bdim2 6
cilo 1 cihi 6 cdim1 6 cjlo 1 cjhi 6 cdim2 6
In transpose
ailo 1 aihi 6 adim1 6 ajlo 1 ajhi 6 adim2 6
In no transpose
bilo 1 bihi 6 bdim1 6 bjlo 1 bjhi 6 bdim2 6
cilo 1 cihi 6 cdim1 6 cjlo 1 cjhi 6 cdim2 6
In no transpose
ailo 1 aihi 6 adim1 6 ajlo 1 ajhi 6 adim2 6
In no transpose
bilo 1 bihi 6 bdim1 6 bjlo 1 bjhi 6 bdim2 6
cilo 1 cihi 6 cdim1 6 cjlo 1 cjhi 6 cdim2 6
In transpose
ailo 1 aihi 6 adim1 6 ajlo 1 ajhi 6 adim2 6
In no transpose
bilo 1 bihi 6 bdim1 6 bjlo 1 bjhi 6 bdim2 6
cilo 1 cihi 6 cdim1 6 cjlo 1 cjhi 6 cdim2 6
In no transpose
ailo 1 aihi 6 adim1 6 ajlo 1 ajhi 6 adim2 6
In no transpose
bilo 1 bihi 6 bdim1 6 bjlo 1 bjhi 6 bdim2 6
cilo 1 cihi 6 cdim1 6 cjlo 1 cjhi 6 cdim2 6
In transpose
ailo 1 aihi 6 adim1 6 ajlo 1 ajhi 6 adim2 6
In no transpose
bilo 1 bihi 6 bdim1 6 bjlo 1 bjhi 6 bdim2 6
cilo 1 cihi 6 cdim1 6 cjlo 1 cjhi 6 cdim2 6
In no transpose
ailo 1 aihi 6 adim1 6 ajlo 1 ajhi 6 adim2 6
In no transpose
bilo 1 bihi 6 bdim1 6 bjlo 1 bjhi 6 bdim2 6
cilo 1 cihi 6 cdim1 6 cjlo 1 cjhi 6 cdim2 6
In transpose
ailo 1 aihi 6 adim1 6 ajlo 1 ajhi 6 adim2 6
In no transpose
bilo 1 bihi 6 bdim1 6 bjlo 1 bjhi 6 bdim2 6
cilo 1 cihi 6 cdim1 6 cjlo 1 cjhi 6 cdim2 6
In no transpose
ailo 1 aihi 6 adim1 6 ajlo 1 ajhi 6 adim2 6
In no transpose
bilo 1 bihi 6 bdim1 6 bjlo 1 bjhi 6 bdim2 6
cilo 1 cihi 6 cdim1 6 cjlo 1 cjhi 6 cdim2 6
In transpose
ailo 1 aihi 6 adim1 6 ajlo 1 ajhi 6 adim2 6
In no transpose
bilo 1 bihi 6 bdim1 6 bjlo 1 bjhi 6 bdim2 6
cilo 1 cihi 6 cdim1 6 cjlo 1 cjhi 6 cdim2 6
In no transpose
ailo 1 aihi 6 adim1 6 ajlo 1 ajhi 6 adim2 6
In no transpose
bilo 1 bihi 6 bdim1 6 bjlo 1 bjhi 6 bdim2 6
cilo 1 cihi 6 cdim1 6 cjlo 1 cjhi 6 cdim2 6
In transpose
ailo 1 aihi 6 adim1 6 ajlo 1 ajhi 6 adim2 6
In no transpose
bilo 1 bihi 6 bdim1 6 bjlo 1 bjhi 6 bdim2 6
cilo 1 cihi 6 cdim1 6 cjlo 1 cjhi 6 cdim2 6
In no transpose
ailo 1 aihi 6 adim1 6 ajlo 1 ajhi 6 adim2 6
In no transpose
bilo 1 bihi 6 bdim1 6 bjlo 1 bjhi 6 bdim2 6
cilo 1 cihi 6 cdim1 6 cjlo 1 cjhi 6 cdim2 6
In transpose
ailo 1 aihi 6 adim1 6 ajlo 1 ajhi 6 adim2 6
In no transpose
bilo 1 bihi 6 bdim1 6 bjlo 1 bjhi 6 bdim2 6
cilo 1 cihi 6 cdim1 6 cjlo 1 cjhi 6 cdim2 6
In no transpose
ailo 1 aihi 6 adim1 6 ajlo 1 ajhi 6 adim2 6
In no transpose
bilo 1 bihi 6 bdim1 6 bjlo 1 bjhi 6 bdim2 6
cilo 1 cihi 6 cdim1 6 cjlo 1 cjhi 6 cdim2 6
In transpose
ailo 1 aihi 6 adim1 6 ajlo 1 ajhi 6 adim2 6
In no transpose
bilo 1 bihi 6 bdim1 6 bjlo 1 bjhi 6 bdim2 6
cilo 1 cihi 6 cdim1 6 cjlo 1 cjhi 6 cdim2 6
In no transpose
ailo 1 aihi 6 adim1 6 ajlo 1 ajhi 6 adim2 6
In no transpose
bilo 1 bihi 6 bdim1 6 bjlo 1 bjhi 6 bdim2 6
cilo 1 cihi 6 cdim1 6 cjlo 1 cjhi 6 cdim2 6
In transpose
ailo 1 aihi 6 adim1 6 ajlo 1 ajhi 6 adim2 6
In no transpose
bilo 1 bihi 6 bdim1 6 bjlo 1 bjhi 6 bdim2 6
cilo 1 cihi 6 cdim1 6 cjlo 1 cjhi 6 cdim2 6
In no transpose
ailo 1 aihi 6 adim1 6 ajlo 1 ajhi 6 adim2 6
In no transpose
bilo 1 bihi 6 bdim1 6 bjlo 1 bjhi 6 bdim2 6
cilo 1 cihi 6 cdim1 6 cjlo 1 cjhi 6 cdim2 6
In transpose
ailo 1 aihi 6 adim1 6 ajlo 1 ajhi 6 adim2 6
In no transpose
bilo 1 bihi 6 bdim1 6 bjlo 1 bjhi 6 bdim2 6
cilo 1 cihi 6 cdim1 6 cjlo 1 cjhi 6 cdim2 6
In no transpose
ailo 1 aihi 6 adim1 6 ajlo 1 ajhi 6 adim2 6
In no transpose
bilo 1 bihi 6 bdim1 6 bjlo 1 bjhi 6 bdim2 6
cilo 1 cihi 6 cdim1 6 cjlo 1 cjhi 6 cdim2 6
In transpose
ailo 1 aihi 6 adim1 6 ajlo 1 ajhi 6 adim2 6
In no transpose
bilo 1 bihi 6 bdim1 6 bjlo 1 bjhi 6 bdim2 6
cilo 1 cihi 6 cdim1 6 cjlo 1 cjhi 6 cdim2 6
In no transpose
ailo 1 aihi 6 adim1 6 ajlo 1 ajhi 6 adim2 6
In no transpose
bilo 1 bihi 6 bdim1 6 bjlo 1 bjhi 6 bdim2 6
cilo 1 cihi 6 cdim1 6 cjlo 1 cjhi 6 cdim2 6
In transpose
ailo 1 aihi 6 adim1 6 ajlo 1 ajhi 6 adim2 6
In no transpose
bilo 1 bihi 6 bdim1 6 bjlo 1 bjhi 6 bdim2 6
cilo 1 cihi 6 cdim1 6 cjlo 1 cjhi 6 cdim2 6
In no transpose
ailo 1 aihi 6 adim1 6 ajlo 1 ajhi 6 adim2 6
In no transpose
bilo 1 bihi 6 bdim1 6 bjlo 1 bjhi 6 bdim2 6
cilo 1 cihi 6 cdim1 6 cjlo 1 cjhi 6 cdim2 6
In transpose
ailo 1 aihi 6 adim1 6 ajlo 1 ajhi 6 adim2 6
In no transpose
bilo 1 bihi 6 bdim1 6 bjlo 1 bjhi 6 bdim2 6
cilo 1 cihi 6 cdim1 6 cjlo 1 cjhi 6 cdim2 6
In no transpose
ailo 1 aihi 6 adim1 6 ajlo 1 ajhi 6 adim2 6
In no transpose
bilo 1 bihi 6 bdim1 6 bjlo 1 bjhi 6 bdim2 6
cilo 1 cihi 6 cdim1 6 cjlo 1 cjhi 6 cdim2 6
In transpose
ailo 1 aihi 6 adim1 6 ajlo 1 ajhi 6 adim2 6
In no transpose
bilo 1 bihi 6 bdim1 6 bjlo 1 bjhi 6 bdim2 6
cilo 1 cihi 6 cdim1 6 cjlo 1 cjhi 6 cdim2 6
In no transpose
ailo 1 aihi 6 adim1 6 ajlo 1 ajhi 6 adim2 6
In no transpose
bilo 1 bihi 6 bdim1 6 bjlo 1 bjhi 6 bdim2 6
cilo 1 cihi 6 cdim1 6 cjlo 1 cjhi 6 cdim2 6
In transpose
ailo 1 aihi 6 adim1 6 ajlo 1 ajhi 6 adim2 6
In no transpose
bilo 1 bihi 6 bdim1 6 bjlo 1 bjhi 6 bdim2 6
cilo 1 cihi 6 cdim1 6 cjlo 1 cjhi 6 cdim2 6
In no transpose
ailo 1 aihi 6 adim1 6 ajlo 1 ajhi 6 adim2 6
In no transpose
bilo 1 bihi 6 bdim1 6 bjlo 1 bjhi 6 bdim2 6
cilo 1 cihi 6 cdim1 6 cjlo 1 cjhi 6 cdim2 6
In transpose
ailo 1 aihi 6 adim1 6 ajlo 1 ajhi 6 adim2 6
In no transpose
bilo 1 bihi 6 bdim1 6 bjlo 1 bjhi 6 bdim2 6
cilo 1 cihi 6 cdim1 6 cjlo 1 cjhi 6 cdim2 6
In no transpose
ailo 1 aihi 6 adim1 6 ajlo 1 ajhi 6 adim2 6
In no transpose
bilo 1 bihi 6 bdim1 6 bjlo 1 bjhi 6 bdim2 6
cilo 1 cihi 6 cdim1 6 cjlo 1 cjhi 6 cdim2 6
In transpose
ailo 1 aihi 6 adim1 6 ajlo 1 ajhi 6 adim2 6
In no transpose
bilo 1 bihi 6 bdim1 6 bjlo 1 bjhi 6 bdim2 6
cilo 1 cihi 6 cdim1 6 cjlo 1 cjhi 6 cdim2 6
In no transpose
ailo 1 aihi 6 adim1 6 ajlo 1 ajhi 6 adim2 6
In no transpose
bilo 1 bihi 6 bdim1 6 bjlo 1 bjhi 6 bdim2 6
cilo 1 cihi 6 cdim1 6 cjlo 1 cjhi 6 cdim2 6
In transpose
ailo 1 aihi 6 adim1 6 ajlo 1 ajhi 6 adim2 6
In no transpose
bilo 1 bihi 6 bdim1 6 bjlo 1 bjhi 6 bdim2 6
cilo 1 cihi 6 cdim1 6 cjlo 1 cjhi 6 cdim2 6
In no transpose
ailo 1 aihi 6 adim1 6 ajlo 1 ajhi 6 adim2 6
In no transpose
bilo 1 bihi 6 bdim1 6 bjlo 1 bjhi 6 bdim2 6
cilo 1 cihi 6 cdim1 6 cjlo 1 cjhi 6 cdim2 6
In transpose
ailo 1 aihi 6 adim1 6 ajlo 1 ajhi 6 adim2 6
In no transpose
bilo 1 bihi 6 bdim1 6 bjlo 1 bjhi 6 bdim2 6
cilo 1 cihi 6 cdim1 6 cjlo 1 cjhi 6 cdim2 6
In no transpose
ailo 1 aihi 6 adim1 6 ajlo 1 ajhi 6 adim2 6
In no transpose
bilo 1 bihi 6 bdim1 6 bjlo 1 bjhi 6 bdim2 6
cilo 1 cihi 6 cdim1 6 cjlo 1 cjhi 6 cdim2 6
  neglecting  2  3.61622759E-18
  neglecting  3  7.58852969E-34
  neglecting  4  7.87010908E-35
  neglecting  5  2.7007312E-50
  neglecting  6  0.
  neglecting  7  0.
  neglecting  8  0.
  neglecting  9  0.
  stpr_wrt_fd_from_sq: overwrite of existing file:./h3.hess
 stpr_wrt_fd_dipole: overwrite of existing file./h3.fd_ddipole

 Potential energy=  -1.6191584449E+00 Hartree= -1.01604E+03 kcal/mol

 Derivatives in mass-scaled cartesians (au):
   1        0.000000E+00    0.000000E+00    9.062828E-18
   2        0.000000E+00    0.000000E+00   -4.574964E-08
   3        0.000000E+00    0.000000E+00    4.574964E-08

 Product species     1

 Eigenvalues and eigenvectors of hessian

                       m=       1            2            3            4            5            6
  Eigenvalues (au)=           0.551477     0.000000     0.000000     0.000000     0.000000     0.000000
  Frequencies (cm^-1)=     4657.160549     1.454682     1.454682     0.007311     0.007311    -0.000027
  Eigenvectors=
                        1     0.000000    -0.707105     0.000000     0.707109     0.000000     0.000000
                        2     0.000000     0.000000     0.707105     0.000000    -0.707109    -0.000007
                        3    -0.707107     0.000000     0.000000     0.000000     0.000007    -0.707107
                        4     0.000000     0.707109     0.000000     0.707105     0.000000     0.000000
                        5     0.000000     0.000000    -0.707109     0.000000    -0.707105    -0.000007
                        6     0.707107     0.000000     0.000000     0.000000     0.000007    -0.707107
  

 Product species     2 is an atom


 ********** Saddle point or starting point

 Geometry in mass-scaled cartesians (bohrs):

                 x               y               z
   1        0.000000E+00    0.000000E+00   -2.162041E+00
   2        0.000000E+00    0.000000E+00    2.012486E-17
   3        0.000000E+00    0.000000E+00    2.162041E+00
 Symmetry group is D4H
  stpr_wrt_fd_from_sq: overwrite of existing file:./h3.hess
 stpr_wrt_fd_dipole: overwrite of existing file./h3.fd_ddipole
In transpose
ailo 1 aihi 6 adim1 6 ajlo 1 ajhi 6 adim2 6
In no transpose
bilo 1 bihi 6 bdim1 6 bjlo 1 bjhi 6 bdim2 6
cilo 1 cihi 6 cdim1 6 cjlo 1 cjhi 6 cdim2 6
In no transpose
ailo 1 aihi 6 adim1 6 ajlo 1 ajhi 6 adim2 6
In no transpose
bilo 1 bihi 6 bdim1 6 bjlo 1 bjhi 6 bdim2 6
cilo 1 cihi 6 cdim1 6 cjlo 1 cjhi 6 cdim2 6
In transpose
ailo 1 aihi 6 adim1 6 ajlo 1 ajhi 6 adim2 6
In no transpose
bilo 1 bihi 6 bdim1 6 bjlo 1 bjhi 6 bdim2 6
cilo 1 cihi 6 cdim1 6 cjlo 1 cjhi 6 cdim2 6
In no transpose
ailo 1 aihi 6 adim1 6 ajlo 1 ajhi 6 adim2 6
In no transpose
bilo 1 bihi 6 bdim1 6 bjlo 1 bjhi 6 bdim2 6
cilo 1 cihi 6 cdim1 6 cjlo 1 cjhi 6 cdim2 6
In transpose
ailo 1 aihi 6 adim1 6 ajlo 1 ajhi 6 adim2 6
In no transpose
bilo 1 bihi 6 bdim1 6 bjlo 1 bjhi 6 bdim2 6
cilo 1 cihi 6 cdim1 6 cjlo 1 cjhi 6 cdim2 6
In no transpose
ailo 1 aihi 6 adim1 6 ajlo 1 ajhi 6 adim2 6
In no transpose
bilo 1 bihi 6 bdim1 6 bjlo 1 bjhi 6 bdim2 6
cilo 1 cihi 6 cdim1 6 cjlo 1 cjhi 6 cdim2 6
In transpose
ailo 1 aihi 6 adim1 6 ajlo 1 ajhi 6 adim2 6
In no transpose
bilo 1 bihi 6 bdim1 6 bjlo 1 bjhi 6 bdim2 6
cilo 1 cihi 6 cdim1 6 cjlo 1 cjhi 6 cdim2 6
In no transpose
ailo 1 aihi 6 adim1 6 ajlo 1 ajhi 6 adim2 6
In no transpose
bilo 1 bihi 6 bdim1 6 bjlo 1 bjhi 6 bdim2 6
cilo 1 cihi 6 cdim1 6 cjlo 1 cjhi 6 cdim2 6
In transpose
ailo 1 aihi 6 adim1 6 ajlo 1 ajhi 6 adim2 6
In no transpose
bilo 1 bihi 6 bdim1 6 bjlo 1 bjhi 6 bdim2 6
cilo 1 cihi 6 cdim1 6 cjlo 1 cjhi 6 cdim2 6
In no transpose
ailo 1 aihi 6 adim1 6 ajlo 1 ajhi 6 adim2 6
In no transpose
bilo 1 bihi 6 bdim1 6 bjlo 1 bjhi 6 bdim2 6
cilo 1 cihi 6 cdim1 6 cjlo 1 cjhi 6 cdim2 6
In transpose
ailo 1 aihi 6 adim1 6 ajlo 1 ajhi 6 adim2 6
In no transpose
bilo 1 bihi 6 bdim1 6 bjlo 1 bjhi 6 bdim2 6
cilo 1 cihi 6 cdim1 6 cjlo 1 cjhi 6 cdim2 6
In no transpose
ailo 1 aihi 6 adim1 6 ajlo 1 ajhi 6 adim2 6
In no transpose
bilo 1 bihi 6 bdim1 6 bjlo 1 bjhi 6 bdim2 6
cilo 1 cihi 6 cdim1 6 cjlo 1 cjhi 6 cdim2 6
In transpose
ailo 1 aihi 6 adim1 6 ajlo 1 ajhi 6 adim2 6
In no transpose
bilo 1 bihi 6 bdim1 6 bjlo 1 bjhi 6 bdim2 6
cilo 1 cihi 6 cdim1 6 cjlo 1 cjhi 6 cdim2 6
In no transpose
ailo 1 aihi 6 adim1 6 ajlo 1 ajhi 6 adim2 6
In no transpose
bilo 1 bihi 6 bdim1 6 bjlo 1 bjhi 6 bdim2 6
cilo 1 cihi 6 cdim1 6 cjlo 1 cjhi 6 cdim2 6
In transpose
ailo 1 aihi 6 adim1 6 ajlo 1 ajhi 6 adim2 6
In no transpose
bilo 1 bihi 6 bdim1 6 bjlo 1 bjhi 6 bdim2 6
cilo 1 cihi 6 cdim1 6 cjlo 1 cjhi 6 cdim2 6
In no transpose
ailo 1 aihi 6 adim1 6 ajlo 1 ajhi 6 adim2 6
In no transpose
bilo 1 bihi 6 bdim1 6 bjlo 1 bjhi 6 bdim2 6
cilo 1 cihi 6 cdim1 6 cjlo 1 cjhi 6 cdim2 6
In transpose
ailo 1 aihi 6 adim1 6 ajlo 1 ajhi 6 adim2 6
In no transpose
bilo 1 bihi 6 bdim1 6 bjlo 1 bjhi 6 bdim2 6
cilo 1 cihi 6 cdim1 6 cjlo 1 cjhi 6 cdim2 6
In no transpose
ailo 1 aihi 6 adim1 6 ajlo 1 ajhi 6 adim2 6
In no transpose
bilo 1 bihi 6 bdim1 6 bjlo 1 bjhi 6 bdim2 6
cilo 1 cihi 6 cdim1 6 cjlo 1 cjhi 6 cdim2 6
In transpose
ailo 1 aihi 6 adim1 6 ajlo 1 ajhi 6 adim2 6
In no transpose
bilo 1 bihi 6 bdim1 6 bjlo 1 bjhi 6 bdim2 6
cilo 1 cihi 6 cdim1 6 cjlo 1 cjhi 6 cdim2 6
In no transpose
ailo 1 aihi 6 adim1 6 ajlo 1 ajhi 6 adim2 6
In no transpose
bilo 1 bihi 6 bdim1 6 bjlo 1 bjhi 6 bdim2 6
cilo 1 cihi 6 cdim1 6 cjlo 1 cjhi 6 cdim2 6
In transpose
ailo 1 aihi 6 adim1 6 ajlo 1 ajhi 6 adim2 6
In no transpose
bilo 1 bihi 6 bdim1 6 bjlo 1 bjhi 6 bdim2 6
cilo 1 cihi 6 cdim1 6 cjlo 1 cjhi 6 cdim2 6
In no transpose
ailo 1 aihi 6 adim1 6 ajlo 1 ajhi 6 adim2 6
In no transpose
bilo 1 bihi 6 bdim1 6 bjlo 1 bjhi 6 bdim2 6
cilo 1 cihi 6 cdim1 6 cjlo 1 cjhi 6 cdim2 6
In transpose
ailo 1 aihi 6 adim1 6 ajlo 1 ajhi 6 adim2 6
In no transpose
bilo 1 bihi 6 bdim1 6 bjlo 1 bjhi 6 bdim2 6
cilo 1 cihi 6 cdim1 6 cjlo 1 cjhi 6 cdim2 6
In no transpose
ailo 1 aihi 6 adim1 6 ajlo 1 ajhi 6 adim2 6
In no transpose
bilo 1 bihi 6 bdim1 6 bjlo 1 bjhi 6 bdim2 6
cilo 1 cihi 6 cdim1 6 cjlo 1 cjhi 6 cdim2 6
In transpose
ailo 1 aihi 6 adim1 6 ajlo 1 ajhi 6 adim2 6
In no transpose
bilo 1 bihi 6 bdim1 6 bjlo 1 bjhi 6 bdim2 6
cilo 1 cihi 6 cdim1 6 cjlo 1 cjhi 6 cdim2 6
In no transpose
[...]
In transpose
ailo 1 aihi 6 adim1 6 ajlo 1 ajhi 6 adim2 6
In no transpose
bilo 1 bihi 6 bdim1 6 bjlo 1 bjhi 6 bdim2 6
cilo 1 cihi 6 cdim1 6 cjlo 1 cjhi 6 cdim2 6
In no transpose
ailo 1 aihi 6 adim1 6 ajlo 1 ajhi 6 adim2 6
In no transpose
bilo 1 bihi 6 bdim1 6 bjlo 1 bjhi 6 bdim2 6
cilo 1 cihi 6 cdim1 6 cjlo 1 cjhi 6 cdim2 6
In transpose
ailo 1 aihi 6 adim1 6 ajlo 1 ajhi 6 adim2 6
In no transpose
bilo 1 bihi 6 bdim1 6 bjlo 1 bjhi 6 bdim2 6
cilo 1 cihi 6 cdim1 6 cjlo 1 cjhi 6 cdim2 6
In no transpose
ailo 1 aihi 6 adim1 6 ajlo 1 ajhi 6 adim2 6
In no transpose
bilo 1 bihi 6 bdim1 6 bjlo 1 bjhi 6 bdim2 6
cilo 1 cihi 6 cdim1 6 cjlo 1 cjhi 6 cdim2 6
In transpose
ailo 1 aihi 6 adim1 6 ajlo 1 ajhi 6 adim2 6
In no transpose
bilo 1 bihi 6 bdim1 6 bjlo 1 bjhi 6 bdim2 6
cilo 1 cihi 6 cdim1 6 cjlo 1 cjhi 6 cdim2 6
In no transpose
ailo 1 aihi 6 adim1 6 ajlo 1 ajhi 6 adim2 6
In no transpose
bilo 1 bihi 6 bdim1 6 bjlo 1 bjhi 6 bdim2 6
cilo 1 cihi 6 cdim1 6 cjlo 1 cjhi 6 cdim2 6
In transpose
ailo 1 aihi 6 adim1 6 ajlo 1 ajhi 6 adim2 6
In no transpose
bilo 1 bihi 6 bdim1 6 bjlo 1 bjhi 6 bdim2 6
cilo 1 cihi 6 cdim1 6 cjlo 1 cjhi 6 cdim2 6
In no transpose
ailo 1 aihi 6 adim1 6 ajlo 1 ajhi 6 adim2 6
In no transpose
bilo 1 bihi 6 bdim1 6 bjlo 1 bjhi 6 bdim2 6
cilo 1 cihi 6 cdim1 6 cjlo 1 cjhi 6 cdim2 6
In transpose
ailo 1 aihi 6 adim1 6 ajlo 1 ajhi 6 adim2 6
In no transpose
bilo 1 bihi 6 bdim1 6 bjlo 1 bjhi 6 bdim2 6
cilo 1 cihi 6 cdim1 6 cjlo 1 cjhi 6 cdim2 6
In no transpose
ailo 1 aihi 6 adim1 6 ajlo 1 ajhi 6 adim2 6
In no transpose
bilo 1 bihi 6 bdim1 6 bjlo 1 bjhi 6 bdim2 6
cilo 1 cihi 6 cdim1 6 cjlo 1 cjhi 6 cdim2 6
In transpose
ailo 1 aihi 6 adim1 6 ajlo 1 ajhi 6 adim2 6
In no transpose
bilo 1 bihi 6 bdim1 6 bjlo 1 bjhi 6 bdim2 6
cilo 1 cihi 6 cdim1 6 cjlo 1 cjhi 6 cdim2 6
In no transpose
ailo 1 aihi 6 adim1 6 ajlo 1 ajhi 6 adim2 6
In no transpose
bilo 1 bihi 6 bdim1 6 bjlo 1 bjhi 6 bdim2 6
cilo 1 cihi 6 cdim1 6 cjlo 1 cjhi 6 cdim2 6
In transpose
ailo 1 aihi 6 adim1 6 ajlo 1 ajhi 6 adim2 6
In no transpose
bilo 1 bihi 6 bdim1 6 bjlo 1 bjhi 6 bdim2 6
cilo 1 cihi 6 cdim1 6 cjlo 1 cjhi 6 cdim2 6
In no transpose
ailo 1 aihi 6 adim1 6 ajlo 1 ajhi 6 adim2 6
In no transpose
bilo 1 bihi 6 bdim1 6 bjlo 1 bjhi 6 bdim2 6
cilo 1 cihi 6 cdim1 6 cjlo 1 cjhi 6 cdim2 6
In transpose
ailo 1 aihi 6 adim1 6 ajlo 1 ajhi 6 adim2 6
In no transpose
bilo 1 bihi 6 bdim1 6 bjlo 1 bjhi 6 bdim2 6
cilo 1 cihi 6 cdim1 6 cjlo 1 cjhi 6 cdim2 6
In no transpose
ailo 1 aihi 6 adim1 6 ajlo 1 ajhi 6 adim2 6
In no transpose
bilo 1 bihi 6 bdim1 6 bjlo 1 bjhi 6 bdim2 6
cilo 1 cihi 6 cdim1 6 cjlo 1 cjhi 6 cdim2 6
In transpose
ailo 1 aihi 6 adim1 6 ajlo 1 ajhi 6 adim2 6
In no transpose
bilo 1 bihi 6 bdim1 6 bjlo 1 bjhi 6 bdim2 6
cilo 1 cihi 6 cdim1 6 cjlo 1 cjhi 6 cdim2 6
In no transpose
ailo 1 aihi 6 adim1 6 ajlo 1 ajhi 6 adim2 6
In no transpose
bilo 1 bihi 6 bdim1 6 bjlo 1 bjhi 6 bdim2 6
cilo 1 cihi 6 cdim1 6 cjlo 1 cjhi 6 cdim2 6
In transpose
ailo 1 aihi 6 adim1 6 ajlo 1 ajhi 6 adim2 6
In no transpose
bilo 1 bihi 6 bdim1 6 bjlo 1 bjhi 6 bdim2 6
cilo 1 cihi 6 cdim1 6 cjlo 1 cjhi 6 cdim2 6
In no transpose
ailo 1 aihi 6 adim1 6 ajlo 1 ajhi 6 adim2 6
In no transpose
bilo 1 bihi 6 bdim1 6 bjlo 1 bjhi 6 bdim2 6
cilo 1 cihi 6 cdim1 6 cjlo 1 cjhi 6 cdim2 6
In transpose
ailo 1 aihi 6 adim1 6 ajlo 1 ajhi 6 adim2 6
In no transpose
bilo 1 bihi 6 bdim1 6 bjlo 1 bjhi 6 bdim2 6
cilo 1 cihi 6 cdim1 6 cjlo 1 cjhi 6 cdim2 6
In no transpose
ailo 1 aihi 6 adim1 6 ajlo 1 ajhi 6 adim2 6
In no transpose
bilo 1 bihi 6 bdim1 6 bjlo 1 bjhi 6 bdim2 6
cilo 1 cihi 6 cdim1 6 cjlo 1 cjhi 6 cdim2 6
In transpose
ailo 1 aihi 6 adim1 6 ajlo 1 ajhi 6 adim2 6
In no transpose
bilo 1 bihi 6 bdim1 6 bjlo 1 bjhi 6 bdim2 6
cilo 1 cihi 6 cdim1 6 cjlo 1 cjhi 6 cdim2 6
In no transpose
ailo 1 aihi 6 adim1 6 ajlo 1 ajhi 6 adim2 6
In no transpose
bilo 1 bihi 6 bdim1 6 bjlo 1 bjhi 6 bdim2 6
cilo 1 cihi 6 cdim1 6 cjlo 1 cjhi 6 cdim2 6
In transpose
ailo 1 aihi 6 adim1 6 ajlo 1 ajhi 6 adim2 6
In no transpose
bilo 1 bihi 6 bdim1 6 bjlo 1 bjhi 6 bdim2 6
cilo 1 cihi 6 cdim1 6 cjlo 1 cjhi 6 cdim2 6
In no transpose
ailo 1 aihi 6 adim1 6 ajlo 1 ajhi 6 adim2 6
In no transpose
bilo 1 bihi 6 bdim1 6 bjlo 1 bjhi 6 bdim2 6
cilo 1 cihi 6 cdim1 6 cjlo 1 cjhi 6 cdim2 6
In transpose
ailo 1 aihi 6 adim1 6 ajlo 1 ajhi 6 adim2 6
In no transpose
bilo 1 bihi 6 bdim1 6 bjlo 1 bjhi 6 bdim2 6
cilo 1 cihi 6 cdim1 6 cjlo 1 cjhi 6 cdim2 6
In no transpose
ailo 1 aihi 6 adim1 6 ajlo 1 ajhi 6 adim2 6
In no transpose
bilo 1 bihi 6 bdim1 6 bjlo 1 bjhi 6 bdim2 6
cilo 1 cihi 6 cdim1 6 cjlo 1 cjhi 6 cdim2 6
In transpose
ailo 1 aihi 6 adim1 6 ajlo 1 ajhi 6 adim2 6
In no transpose
bilo 1 bihi 6 bdim1 6 bjlo 1 bjhi 6 bdim2 6
cilo 1 cihi 6 cdim1 6 cjlo 1 cjhi 6 cdim2 6
In no transpose
ailo 1 aihi 6 adim1 6 ajlo 1 ajhi 6 adim2 6
In no transpose
bilo 1 bihi 6 bdim1 6 bjlo 1 bjhi 6 bdim2 6
cilo 1 cihi 6 cdim1 6 cjlo 1 cjhi 6 cdim2 6
In transpose
ailo 1 aihi 6 adim1 6 ajlo 1 ajhi 6 adim2 6
In no transpose
bilo 1 bihi 6 bdim1 6 bjlo 1 bjhi 6 bdim2 6
cilo 1 cihi 6 cdim1 6 cjlo 1 cjhi 6 cdim2 6
In no transpose
ailo 1 aihi 6 adim1 6 ajlo 1 ajhi 6 adim2 6
In no transpose
bilo 1 bihi 6 bdim1 6 bjlo 1 bjhi 6 bdim2 6
cilo 1 cihi 6 cdim1 6 cjlo 1 cjhi 6 cdim2 6
In transpose
ailo 1 aihi 6 adim1 6 ajlo 1 ajhi 6 adim2 6
In no transpose
bilo 1 bihi 6 bdim1 6 bjlo 1 bjhi 6 bdim2 6
cilo 1 cihi 6 cdim1 6 cjlo 1 cjhi 6 cdim2 6
In no transpose
ailo 1 aihi 6 adim1 6 ajlo 1 ajhi 6 adim2 6
In no transpose
bilo 1 bihi 6 bdim1 6 bjlo 1 bjhi 6 bdim2 6
cilo 1 cihi 6 cdim1 6 cjlo 1 cjhi 6 cdim2 6
In transpose
ailo 1 aihi 6 adim1 6 ajlo 1 ajhi 6 adim2 6
In no transpose
bilo 1 bihi 6 bdim1 6 bjlo 1 bjhi 6 bdim2 6
cilo 1 cihi 6 cdim1 6 cjlo 1 cjhi 6 cdim2 6
In no transpose
ailo 1 aihi 6 adim1 6 ajlo 1 ajhi 6 adim2 6
In no transpose
bilo 1 bihi 6 bdim1 6 bjlo 1 bjhi 6 bdim2 6
cilo 1 cihi 6 cdim1 6 cjlo 1 cjhi 6 cdim2 6
In transpose
ailo 1 aihi 6 adim1 6 ajlo 1 ajhi 6 adim2 6
In no transpose
bilo 1 bihi 6 bdim1 6 bjlo 1 bjhi 6 bdim2 6
cilo 1 cihi 6 cdim1 6 cjlo 1 cjhi 6 cdim2 6
In no transpose
ailo 1 aihi 6 adim1 6 ajlo 1 ajhi 6 adim2 6
In no transpose
bilo 1 bihi 6 bdim1 6 bjlo 1 bjhi 6 bdim2 6
cilo 1 cihi 6 cdim1 6 cjlo 1 cjhi 6 cdim2 6
In transpose
ailo 1 aihi 6 adim1 6 ajlo 1 ajhi 6 adim2 6
In no transpose
bilo 1 bihi 6 bdim1 6 bjlo 1 bjhi 6 bdim2 6
cilo 1 cihi 6 cdim1 6 cjlo 1 cjhi 6 cdim2 6
In no transpose
ailo 1 aihi 6 adim1 6 ajlo 1 ajhi 6 adim2 6
In no transpose
bilo 1 bihi 6 bdim1 6 bjlo 1 bjhi 6 bdim2 6
cilo 1 cihi 6 cdim1 6 cjlo 1 cjhi 6 cdim2 6
In transpose
ailo 1 aihi 6 adim1 6 ajlo 1 ajhi 6 adim2 6
In no transpose
bilo 1 bihi 6 bdim1 6 bjlo 1 bjhi 6 bdim2 6
cilo 1 cihi 6 cdim1 6 cjlo 1 cjhi 6 cdim2 6
In no transpose
ailo 1 aihi 6 adim1 6 ajlo 1 ajhi 6 adim2 6
In no transpose
bilo 1 bihi 6 bdim1 6 bjlo 1 bjhi 6 bdim2 6
cilo 1 cihi 6 cdim1 6 cjlo 1 cjhi 6 cdim2 6
In transpose
ailo 1 aihi 6 adim1 6 ajlo 1 ajhi 6 adim2 6
In no transpose
bilo 1 bihi 6 bdim1 6 bjlo 1 bjhi 6 bdim2 6
cilo 1 cihi 6 cdim1 6 cjlo 1 cjhi 6 cdim2 6
In no transpose
ailo 1 aihi 6 adim1 6 ajlo 1 ajhi 6 adim2 6
In no transpose
bilo 1 bihi 6 bdim1 6 bjlo 1 bjhi 6 bdim2 6
cilo 1 cihi 6 cdim1 6 cjlo 1 cjhi 6 cdim2 6
In transpose
ailo 1 aihi 6 adim1 6 ajlo 1 ajhi 6 adim2 6
In no transpose
bilo 1 bihi 6 bdim1 6 bjlo 1 bjhi 6 bdim2 6
cilo 1 cihi 6 cdim1 6 cjlo 1 cjhi 6 cdim2 6
In no transpose
ailo 1 aihi 6 adim1 6 ajlo 1 ajhi 6 adim2 6
In no transpose
bilo 1 bihi 6 bdim1 6 bjlo 1 bjhi 6 bdim2 6
cilo 1 cihi 6 cdim1 6 cjlo 1 cjhi 6 cdim2 6
In transpose
ailo 1 aihi 6 adim1 6 ajlo 1 ajhi 6 adim2 6
In no transpose
bilo 1 bihi 6 bdim1 6 bjlo 1 bjhi 6 bdim2 6
cilo 1 cihi 6 cdim1 6 cjlo 1 cjhi 6 cdim2 6
In no transpose
ailo 1 aihi 6 adim1 6 ajlo 1 ajhi 6 adim2 6
In no transpose
bilo 1 bihi 6 bdim1 6 bjlo 1 bjhi 6 bdim2 6
cilo 1 cihi 6 cdim1 6 cjlo 1 cjhi 6 cdim2 6
In transpose
ailo 1 aihi 6 adim1 6 ajlo 1 ajhi 6 adim2 6
In no transpose
bilo 1 bihi 6 bdim1 6 bjlo 1 bjhi 6 bdim2 6
cilo 1 cihi 6 cdim1 6 cjlo 1 cjhi 6 cdim2 6
In no transpose
ailo 1 aihi 6 adim1 6 ajlo 1 ajhi 6 adim2 6
In no transpose
bilo 1 bihi 6 bdim1 6 bjlo 1 bjhi 6 bdim2 6
cilo 1 cihi 6 cdim1 6 cjlo 1 cjhi 6 cdim2 6
  neglecting  3  1.60028787E-18
  neglecting  4  1.12115086E-19
  neglecting  5  2.81593682E-35
  neglecting  6  0.
  neglecting  7  0.
  neglecting  8  0.
  neglecting  9  0.
  neglecting  5  3.78648508E-18
  neglecting  6  3.10532799E-18
  neglecting  7  4.64191393E-19
  neglecting  8  6.84709365E-21
  neglecting  9  1.44297643E-34
  neglecting  10  3.69348728E-35
  neglecting  11  4.17245792E-51
  neglecting  12  9.89747363E-52
  neglecting  13  1.72562905E-68
  neglecting  14  1.68923684E-84
  neglecting  15  0.
  neglecting  16  0.
  neglecting  17  0.
  neglecting  18  0.
  neglecting  7  8.00708083E-18
  neglecting  8  5.50638941E-18
  neglecting  9  2.12620931E-18
  neglecting  10  2.2413317E-19
  neglecting  11  3.76011887E-20
  neglecting  12  4.98859829E-22
  neglecting  13  1.46624835E-24
  neglecting  14  1.095158E-34
  neglecting  15  1.62778946E-35
  neglecting  16  3.5280092E-38
  neglecting  17  3.34538875E-42
  neglecting  18  1.91679252E-51
  neglecting  19  2.78479677E-53
  neglecting  20  5.47074215E-68
  neglecting  21  2.74912131E-69
  neglecting  22  2.01686657E-85
  neglecting  23  1.6276063E-100
  neglecting  24  0.
  neglecting  25  0.
  neglecting  26  0.
  neglecting  27  0.
  neglecting  9  7.56028923E-18
  neglecting  10  5.4158639E-18
  neglecting  11  2.93762974E-18
  neglecting  12  2.58783211E-18
  neglecting  13  1.23740564E-18
  neglecting  14  3.58276571E-20
  neglecting  15  1.14365639E-22
  neglecting  16  5.65417167E-24
  neglecting  17  1.88230041E-25
  neglecting  18  1.07183016E-34
  neglecting  19  5.10949908E-35
  neglecting  20  5.72101925E-36
  neglecting  21  9.01086026E-38
  neglecting  22  1.0475805E-40
  neglecting  23  1.79195095E-50
  neglecting  24  2.17440356E-52
  neglecting  25  1.88485827E-53
  neglecting  26  6.0099678E-57
  neglecting  27  1.18522247E-67
  neglecting  28  6.23882761E-70
  neglecting  29  1.25322721E-83
  neglecting  30  3.25673118E-89
  neglecting  31  8.46099235E-102
  neglecting  32  6.2516137E-118
  neglecting  33  0.
  neglecting  34  0.
  neglecting  35  0.
  neglecting  36  0.
  stpr_wrt_fd_from_sq: overwrite of existing file:./h3.hess
 stpr_wrt_fd_dipole: overwrite of existing file./h3.fd_ddipole
        0.50000  1.82633E-02    x=   0.0000   0.0000  -2.4764   0.0000   0.0000   0.3606   0.0000   0.0000   2.1159
                 2.07016E-02   dx=   0.0000   0.0000   0.8049   0.0000   0.0000  -0.5212   0.0000   0.0000  -0.2836

 Eigenvalues and eigenvectors of hessian

                       m=       1            2            3            4            5            6
  Eigenvalues (au)=           0.391047     0.008368     0.008368     0.000001     0.000000     0.000000
  Frequencies (cm^-1)=     3921.676217   573.663210   573.663210     6.696662     0.026176     0.026176
  Eigenvectors=
                        1     0.000000    -0.002515    -0.309232     0.000000    -0.026309    -0.576751
                        2     0.000000    -0.309232     0.002515     0.000000     0.576750    -0.026309
                        3    -0.137174     0.000000     0.000000    -0.577350     0.000000     0.000000
                        4     0.000000     0.006580     0.809023     0.000000    -0.026309    -0.576751
                        5     0.000000     0.809023    -0.006580     0.000000     0.576751    -0.026309
                        6    -0.628468     0.000000     0.000000    -0.577351     0.000000     0.000000
                        7     0.000000    -0.004065    -0.499791     0.000000    -0.026309    -0.576751
                        8     0.000000    -0.499791     0.004065     0.000000     0.576751    -0.026309
                        9     0.765644     0.000000     0.000000    -0.577350     0.000000     0.000000
  

                       m=       7            8            9
  Eigenvalues (au)=           0.000000     0.000000     0.000000
  Frequencies (cm^-1)=        0.000018     0.000017    -0.000004
  Eigenvectors=
                        1    -0.032135    -0.000571     0.754986
                        2    -0.685713    -0.316178    -0.029425
                        3    -0.336492     0.731049    -0.013769
                        4     0.004679     0.000083    -0.109924
                        5     0.099838     0.046035     0.004284
                        6     0.217910    -0.473423     0.008917
                        7     0.027456     0.000488    -0.645062
                        8     0.585874     0.270143     0.025141
                        9     0.118582    -0.257626     0.004852
  


 Sort data in file 30 so points along MEP have the reaction coordinate in ascending order.
 Also calculate the values of the reaction coordinate at the reactant and product geometries
  and shift energies so reactant v is zero.

 Summary of sorted data (all units are atomic)
     R = reactants, P = products, * = saddle point or starting geometry

         s           V               x (mass weighted)
 R   -187.13167  0.00000E+00         0.0000   0.0000 -78.2806   0.0000   0.0000 -76.5799   0.0000   0.0000 154.8605
 P    187.13167  4.44089E-16         0.0000   0.0000-154.8605   0.0000   0.0000  76.5799   0.0000   0.0000  78.2806
 *      0.00000  2.70840E-02         0.0000   0.0000  -2.1620   0.0000   0.0000   0.0000   0.0000   0.0000   2.1620
  
       -0.50000  1.82633E-02         0.0000   0.0000  -2.1159   0.0000   0.0000  -0.3606   0.0000   0.0000   2.4764
       -0.45000  1.93123E-02         0.0000   0.0000  -2.1030   0.0000   0.0000  -0.3335   0.0000   0.0000   2.4364
       -0.40000  2.03870E-02         0.0000   0.0000  -2.0930   0.0000   0.0000  -0.3042   0.0000   0.0000   2.3972
       -0.35000  2.14840E-02         0.0000   0.0000  -2.0869   0.0000   0.0000  -0.2723   0.0000   0.0000   2.3592
       -0.30000  2.25958E-02         0.0000   0.0000  -2.0858   0.0000   0.0000  -0.2375   0.0000   0.0000   2.3233
       -0.25000  2.37015E-02         0.0000   0.0000  -2.0896   0.0000   0.0000  -0.2004   0.0000   0.0000   2.2900
       -0.20000  2.47571E-02         0.0000   0.0000  -2.0980   0.0000   0.0000  -0.1617   0.0000   0.0000   2.2596
       -0.15000  2.56955E-02         0.0000   0.0000  -2.1100   0.0000   0.0000  -0.1219   0.0000   0.0000   2.2319
       -0.10000  2.64394E-02         0.0000   0.0000  -2.1251   0.0000   0.0000  -0.0815   0.0000   0.0000   2.2065
       -0.05000  2.69185E-02         0.0000   0.0000  -2.1425   0.0000   0.0000  -0.0408   0.0000   0.0000   2.1833
        0.05000  2.69185E-02         0.0000   0.0000  -2.1833   0.0000   0.0000   0.0408   0.0000   0.0000   2.1425
        0.10000  2.64394E-02         0.0000   0.0000  -2.2065   0.0000   0.0000   0.0815   0.0000   0.0000   2.1251
        0.15000  2.56955E-02         0.0000   0.0000  -2.2319   0.0000   0.0000   0.1219   0.0000   0.0000   2.1100
        0.20000  2.47571E-02         0.0000   0.0000  -2.2596   0.0000   0.0000   0.1617   0.0000   0.0000   2.0980
        0.25000  2.37015E-02         0.0000   0.0000  -2.2900   0.0000   0.0000   0.2004   0.0000   0.0000   2.0896
        0.30000  2.25958E-02         0.0000   0.0000  -2.3233   0.0000   0.0000   0.2375   0.0000   0.0000   2.0858
        0.35000  2.14840E-02         0.0000   0.0000  -2.3592   0.0000   0.0000   0.2723   0.0000   0.0000   2.0869
        0.40000  2.03870E-02         0.0000   0.0000  -2.3972   0.0000   0.0000   0.3042   0.0000   0.0000   2.0930
        0.45000  1.93123E-02         0.0000   0.0000  -2.4364   0.0000   0.0000   0.3335   0.0000   0.0000   2.1030
        0.50000  1.82633E-02         0.0000   0.0000  -2.4764   0.0000   0.0000   0.3606   0.0000   0.0000   2.1159


 Summary of MEP data
     R = reactants, P = products, * = saddle point or starting geometry

  Cartesian coordinates, x

        s (au)   V (kcal/mol)        x (Angstroms)
 R   -187.13167  0.00000E+00
 P    187.13167  2.78670E-13
 *      0.00000  1.69954E+01         0.0000   0.0000  -0.9342   0.0000   0.0000   0.0000   0.0000   0.0000   0.9342
       -0.50000  1.14604E+01         0.0000   0.0000  -0.9142   0.0000   0.0000  -0.1558   0.0000   0.0000   1.0700
       -0.45000  1.21186E+01         0.0000   0.0000  -0.9086   0.0000   0.0000  -0.1441   0.0000   0.0000   1.0527
       -0.40000  1.27930E+01         0.0000   0.0000  -0.9043   0.0000   0.0000  -0.1314   0.0000   0.0000   1.0358
       -0.35000  1.34814E+01         0.0000   0.0000  -0.9017   0.0000   0.0000  -0.1176   0.0000   0.0000   1.0194
       -0.30000  1.41791E+01         0.0000   0.0000  -0.9012   0.0000   0.0000  -0.1026   0.0000   0.0000   1.0038
       -0.25000  1.48729E+01         0.0000   0.0000  -0.9029   0.0000   0.0000  -0.0866   0.0000   0.0000   0.9895
       -0.20000  1.55353E+01         0.0000   0.0000  -0.9065   0.0000   0.0000  -0.0699   0.0000   0.0000   0.9763
       -0.15000  1.61242E+01         0.0000   0.0000  -0.9117   0.0000   0.0000  -0.0527   0.0000   0.0000   0.9643
       -0.10000  1.65910E+01         0.0000   0.0000  -0.9182   0.0000   0.0000  -0.0352   0.0000   0.0000   0.9534
       -0.05000  1.68916E+01         0.0000   0.0000  -0.9257   0.0000   0.0000  -0.0176   0.0000   0.0000   0.9434
        0.05000  1.68916E+01         0.0000   0.0000  -0.9434   0.0000   0.0000   0.0176   0.0000   0.0000   0.9257
        0.10000  1.65910E+01         0.0000   0.0000  -0.9534   0.0000   0.0000   0.0352   0.0000   0.0000   0.9182
        0.15000  1.61242E+01         0.0000   0.0000  -0.9643   0.0000   0.0000   0.0527   0.0000   0.0000   0.9117
        0.20000  1.55353E+01         0.0000   0.0000  -0.9763   0.0000   0.0000   0.0699   0.0000   0.0000   0.9065
        0.25000  1.48729E+01         0.0000   0.0000  -0.9895   0.0000   0.0000   0.0866   0.0000   0.0000   0.9029
        0.30000  1.41791E+01         0.0000   0.0000  -1.0038   0.0000   0.0000   0.1026   0.0000   0.0000   0.9012
        0.35000  1.34814E+01         0.0000   0.0000  -1.0194   0.0000   0.0000   0.1176   0.0000   0.0000   0.9017
        0.40000  1.27930E+01         0.0000   0.0000  -1.0358   0.0000   0.0000   0.1314   0.0000   0.0000   0.9043
        0.45000  1.21186E+01         0.0000   0.0000  -1.0527   0.0000   0.0000   0.1441   0.0000   0.0000   0.9086
        0.50000  1.14604E+01         0.0000   0.0000  -1.0700   0.0000   0.0000   0.1558   0.0000   0.0000   0.9142


  Frequencies

        s (au)                      frequencies (cm^-1)
 R   -187.13167                     4657.16
 P    187.13167                     4657.16
 *      0.00000                     2054.92  1121.41  1121.41 -2292.10
  
       -0.50000                     3921.68   573.66   573.66
       -0.45000                     3771.28   639.62   639.62
       -0.40000                     3573.14   715.93   715.93
       -0.35000                     3318.26   799.95   799.95
       -0.30000                     3021.57   884.61   884.61
       -0.25000                     2725.43   961.08   961.08
       -0.20000                     2472.13  1023.13  1023.13
       -0.15000                     2281.09  1068.74  1068.74
       -0.10000                     2152.36  1098.95  1098.95
       -0.05000                     2079.01  1115.90  1115.90
        0.05000                     2079.01  1115.90  1115.90
        0.10000                     2152.36  1098.95  1098.95
        0.15000                     2281.09  1068.74  1068.74
        0.20000                     2472.13  1023.13  1023.13
        0.25000                     2725.43   961.08   961.08
        0.30000                     3021.57   884.61   884.61
        0.35000                     3318.26   799.95   799.95
        0.40000                     3573.14   715.93   715.93
        0.45000                     3771.28   639.62   639.62
        0.50000                     3921.68   573.66   573.66
 drdy_NWChem has finished correctly, bye !

 Task  times  cpu:       28.4s     wall:       29.4s
