 argument  1 = h2o_raman_5.nw



============================== echo of input deck ==============================
echo

start h2o_raman_5
title h2o_raman_5

geometry water noautoz units angstrom nocenter
symmetry c1
 O 0       0        0
 H 0       1.430   -1.107
 H 0      -1.430   -1.107
end

basis
O library 6-31g*
H library 6-31g*
end

memory global 3000 heap 1000 stack 1000 mb

set geometry water

dft
#odft
#mult 1
 xc b3lyp
# xc becke88 perdew86
 convergence energy 1d-8 nolevelshifting
 iterations 100
 grid fine
 direct
end

hessian
profile
end

set prop:newaoresp 1
#set cphf:thresh 1.0d-6
#set cphf:acc 1.0d-16
set cphf:maxiter 60

property
response  1 0.7215362372e-01  # hartrees = 631.4769817 nm incident laser beam
#response  1 8.580669E-2  # hartrees = 531 nm incident laser beam
damping 0.004
convergence 1e-6
end

#raman ; low 350 ; high 1700 ; first 8; last 9; freqdone ; saveaoresp ; end
#raman ; low 350 ; high 1700 ; freqdone ; saveaoresp ; end
#raman ; low 350 ; high 1700 ; freqdone ; end
#raman ; low 350 ; high 1700 ; preraman ; end
raman
low 350 ; high 1700 ;
#raman_modes_list 2 7 9 ;
end
driver ; tight ; end
task dft raman
================================================================================


                                         
                                         


             Northwest Computational Chemistry Package (NWChem) 6.1.1
             --------------------------------------------------------


                    Environmental Molecular Sciences Laboratory
                       Pacific Northwest National Laboratory
                                Richland, WA 99352

                              Copyright (c) 1994-2012
                       Pacific Northwest National Laboratory
                            Battelle Memorial Institute

             NWChem is an open-source computational chemistry package
                        distributed under the terms of the
                      Educational Community License (ECL) 2.0
             A copy of the license is included with this distribution
                              in the LICENSE.TXT file

                                  ACKNOWLEDGMENT
                                  --------------

            This software and its documentation were developed at the
            EMSL at Pacific Northwest National Laboratory, a multiprogram
            national laboratory, operated for the U.S. Department of Energy
            by Battelle under Contract Number DE-AC05-76RL01830. Support
            for this work was provided by the Department of Energy Office
            of Biological and Environmental Research, Office of Basic
            Energy Sciences, and the Office of Advanced Scientific Computing.


           Job information
           ---------------

    hostname        = orion
    program         = ../../../bin/LINUX64/nwchem
    date            = Wed Feb 20 15:00:33 2013

    compiled        = Wed_Feb_20_13:26:14_2013
    source          = /home/niri/nwchem/nwchem-dev
    nwchem branch   = Development
    nwchem revision = 23521
    ga revision     = 10143
    input           = h2o_raman_5.nw
    prefix          = h2o_raman_5.
    data base       = ./h2o_raman_5.db
    status          = startup
    nproc           =        4
    time left       =     -1s



           Memory information
           ------------------

    heap     =  131072001 doubles =   1000.0 Mbytes
    stack    =  131072001 doubles =   1000.0 Mbytes
    global   =  393216000 doubles =   3000.0 Mbytes (distinct from heap & stack)
    total    =  655360002 doubles =   5000.0 Mbytes
    verify   = yes
    hardfail = no 


           Directory information
           ---------------------

  0 permanent = .
  0 scratch   = .




                                NWChem Input Module
                                -------------------


                                    h2o_raman_5
                                    -----------

 Scaling coordinates for geometry "water" by  1.889725989
 (inverse scale =  0.529177249)

 Turning off AUTOSYM since
 SYMMETRY directive was detected!



                              Geometry "water" -> ""
                              ----------------------

 Output coordinates in angstroms (scale by  1.889725989 to convert to a.u.)

  No.       Tag          Charge          X              Y              Z
 ---- ---------------- ---------- -------------- -------------- --------------
    1 O                    8.0000     0.00000000     0.00000000     0.00000000
    2 H                    1.0000     0.00000000     1.43000000    -1.10700000
    3 H                    1.0000     0.00000000    -1.43000000    -1.10700000

      Atomic Mass 
      ----------- 

      O                 15.994910
      H                  1.007825


 Effective nuclear repulsion energy (a.u.)       4.8669481691

            Nuclear Dipole moment (a.u.) 
            ----------------------------
        X                 Y               Z
 ---------------- ---------------- ----------------
     0.0000000000     0.0000000000    -4.1838533387


            XYZ format geometry
            -------------------
     3
 water
 O                     0.00000000     0.00000000     0.00000000
 H                     0.00000000     1.43000000    -1.10700000
 H                     0.00000000    -1.43000000    -1.10700000

  library name resolved from: environment
  library file name is: </home/niri/nwchem/nwchem-dev/src/basis/libraries/>
  
                      Basis "ao basis" -> "" (cartesian)
                      -----
  O (Oxygen)
  ----------
            Exponent  Coefficients 
       -------------- ---------------------------------------------------------
  1 S  5.48467170E+03  0.001831
  1 S  8.25234950E+02  0.013950
  1 S  1.88046960E+02  0.068445
  1 S  5.29645000E+01  0.232714
  1 S  1.68975700E+01  0.470193
  1 S  5.79963530E+00  0.358521

  2 S  1.55396160E+01 -0.110778
  2 S  3.59993360E+00 -0.148026
  2 S  1.01376180E+00  1.130767

  3 P  1.55396160E+01  0.070874
  3 P  3.59993360E+00  0.339753
  3 P  1.01376180E+00  0.727159

  4 S  2.70005800E-01  1.000000

  5 P  2.70005800E-01  1.000000

  6 D  8.00000000E-01  1.000000

  H (Hydrogen)
  ------------
            Exponent  Coefficients 
       -------------- ---------------------------------------------------------
  1 S  1.87311370E+01  0.033495
  1 S  2.82539370E+00  0.234727
  1 S  6.40121700E-01  0.813757

  2 S  1.61277800E-01  1.000000



 Summary of "ao basis" -> "" (cartesian)
 ------------------------------------------------------------------------------
       Tag                 Description            Shells   Functions and Types
 ---------------- ------------------------------  ------  ---------------------
 O                           6-31g*                  6       15   3s2p1d
 H                           6-31g*                  2        2   2s



                                  Raman Analysis
                                  --------------



                   NWChem Nuclear Hessian and Frequency Analysis
                   ---------------------------------------------



                              NWChem Analytic Hessian
                              -----------------------

  itol2e modified to match energy
  convergence criterion.

                                 NWChem DFT Module
                                 -----------------


                                    h2o_raman_5


  Caching 1-el integrals 

            General Information
            -------------------
          SCF calculation type: DFT
          Wavefunction type:  closed shell.
          No. of atoms     :     3
          No. of electrons :    10
           Alpha electrons :     5
            Beta electrons :     5
          Charge           :     0
          Spin multiplicity:     1
          Use of symmetry is: off; symmetry adaption is: off
          Maximum number of iterations: 100
          This is a Direct SCF calculation.
          AO basis - number of functions:    19
                     number of shells:    10
          Convergence on energy requested: 1.00D-08
          Convergence on density requested: 1.00D-05
          Convergence on gradient requested: 1.00D-06

              XC Information
              --------------
                         B3LYP Method XC Potential
                     Hartree-Fock (Exact) Exchange  0.200          
                        Slater Exchange Functional  0.800 local    
                    Becke 1988 Exchange Functional  0.720 non-local
              Lee-Yang-Parr Correlation Functional  0.810          
                  VWN I RPA Correlation Functional  0.190 local    

             Grid Information
             ----------------
          Grid used for XC integration:  fine      
          Radial quadrature: Mura-Knowles        
          Angular quadrature: Lebedev. 
          Tag              B.-S. Rad. Rad. Pts. Rad. Cut. Ang. Pts.
          ---              ---------- --------- --------- ---------
          O                   0.60       70           7.0       590
          H                   0.35       60           8.0       590
          Grid pruning is: on 
          Number of quadrature shells:   190
          Spatial weights used:  Erf1

          Convergence Information
          -----------------------
          Convergence aids based upon iterative change in 
          total energy or number of iterations. 
          Levelshifting, if invoked, occurs when the 
          HOMO/LUMO gap drops below (HL_TOL): 1.00D-02
          DIIS, if invoked, will attempt to extrapolate 
          using up to (NFOCK): 10 stored Fock matrices.

                    Damping( 0%)  Levelshifting(0.0)       DIIS
                  --------------- ------------------- ---------------
          dE  on:    start             N/A                start   
          dE off:    2 iters           N/A              100 iters 


      Screening Tolerance Information
      -------------------------------
          Density screening/tol_rho: 1.00D-11
          AO Gaussian exp screening on grid/accAOfunc:  18
          CD Gaussian exp screening on grid/accCDfunc:  20
          XC Gaussian exp screening on grid/accXCfunc:  20
          Schwarz screening/accCoul: 1.00D-09


      Superposition of Atomic Density Guess
      -------------------------------------

 Sum of atomic energies:         -75.75081731

      Non-variational initial energy
      ------------------------------

 Total energy =     -75.035159
 1-e energy   =    -113.907687
 2-e energy   =      34.005579
 HOMO         =      -0.374386
 LUMO         =      -0.130126

   Time after variat. SCF:      0.1
   Time prior to 1st pass:      0.1

 Grid_pts file          = ./h2o_raman_5.gridpts.0
 Record size in doubles =  12289        No. of grid_pts per rec  =   3070
 Max. records in memory =     12        Max. recs in file   =     36811


           Memory utilization after 1st SCF pass: 
           Heap Space remaining (MW):      130.92           130922971
          Stack Space remaining (MW):      131.07           131071784

   convergence    iter        energy       DeltaE   RMS-Dens  Diis-err    time
 ---------------- ----- ----------------- --------- --------- ---------  ------
 d= 0,ls=0.0,diis     1    -75.8744305128 -8.07D+01  1.26D-01  1.19D+00     0.2
 d= 0,ls=0.0,diis     2    -74.4874031269  1.39D+00  9.85D-02  7.55D+00     0.3
 d= 0,ls=0.0,diis     3    -76.1146398205 -1.63D+00  1.59D-03  1.23D-03     0.4
  Resetting Diis
 d= 0,ls=0.0,diis     4    -76.1147860319 -1.46D-04  9.83D-05  7.57D-05     0.5
 d= 0,ls=0.0,diis     5    -76.1147841095  1.92D-06  1.35D-03  8.89D-05     0.6
 d= 0,ls=0.0,diis     6    -76.1145188058  2.65D-04  1.08D-03  2.24D-03     0.7
 d= 0,ls=0.0,diis     7    -76.1147956254 -2.77D-04  2.74D-05  1.30D-06     0.8
 d= 0,ls=0.0,diis     8    -76.1147958001 -1.75D-07  1.54D-06  2.67D-09     0.9
 d= 0,ls=0.0,diis     9    -76.1147958005 -3.59D-10  4.32D-07  4.27D-11     1.0


         Total DFT energy =      -76.114795800495
      One electron energy =     -114.609573816092
           Coulomb energy =       42.555410525359
    Exchange-Corr. energy =       -8.927580678850
 Nuclear repulsion energy =        4.866948169088

 Numeric. integr. density =       10.000000206469

     Total iterative time =      1.0s



                       DFT Final Molecular Orbital Analysis
                       ------------------------------------

 Vector    1  Occ=2.000000D+00  E=-1.922504D+01
              MO Center=  1.3D-15, -2.8D-11, -4.0D-05, r^2= 1.5D-02
   Bfn.  Coefficient  Atom+Function         Bfn.  Coefficient  Atom+Function  
  ----- ------------  ---------------      ----- ------------  ---------------
     1      0.993138  1 O  s          

 Vector    2  Occ=2.000000D+00  E=-8.794286D-01
              MO Center=  3.2D-14, -4.2D-08, -3.8D-02, r^2= 4.9D-01
   Bfn.  Coefficient  Atom+Function         Bfn.  Coefficient  Atom+Function  
  ----- ------------  ---------------      ----- ------------  ---------------
     6      0.554010  1 O  s                  2      0.532534  1 O  s          
     1     -0.233413  1 O  s          

 Vector    3  Occ=2.000000D+00  E=-3.504968D-01
              MO Center=  1.8D-14, -2.1D-06, -4.6D-01, r^2= 1.8D+00
   Bfn.  Coefficient  Atom+Function         Bfn.  Coefficient  Atom+Function  
  ----- ------------  ---------------      ----- ------------  ---------------
     4      0.477199  1 O  py                 8      0.318401  1 O  py         
    17      0.272460  2 H  s                 19     -0.272461  3 H  s          
    16      0.183898  2 H  s                 18     -0.183898  3 H  s          

 Vector    4  Occ=2.000000D+00  E=-3.297401D-01
              MO Center= -2.5D-13,  1.7D-06, -4.2D-01, r^2= 1.7D+00
   Bfn.  Coefficient  Atom+Function         Bfn.  Coefficient  Atom+Function  
  ----- ------------  ---------------      ----- ------------  ---------------
     5      0.489200  1 O  pz                 9      0.332361  1 O  pz         
    17     -0.275545  2 H  s                 19     -0.275545  3 H  s          
    16     -0.176382  2 H  s                 18     -0.176382  3 H  s          

 Vector    5  Occ=2.000000D+00  E=-2.867513D-01
              MO Center=  2.7D-13, -5.6D-09, -4.1D-03, r^2= 5.6D-01
   Bfn.  Coefficient  Atom+Function         Bfn.  Coefficient  Atom+Function  
  ----- ------------  ---------------      ----- ------------  ---------------
     3      0.675662  1 O  px                 7      0.472471  1 O  px         

 Vector    6  Occ=0.000000D+00  E=-1.505302D-01
              MO Center=  9.0D-14, -2.7D-06, -6.8D-01, r^2= 2.4D+00
   Bfn.  Coefficient  Atom+Function         Bfn.  Coefficient  Atom+Function  
  ----- ------------  ---------------      ----- ------------  ---------------
     5      0.461598  1 O  pz                17      0.444778  2 H  s          
    19      0.444780  3 H  s                  9      0.378607  1 O  pz         
    16      0.215359  2 H  s                 18      0.215360  3 H  s          
     6     -0.194112  1 O  s          

 Vector    7  Occ=0.000000D+00  E=-1.223115D-01
              MO Center= -7.9D-15,  3.1D-06, -6.8D-01, r^2= 2.5D+00
   Bfn.  Coefficient  Atom+Function         Bfn.  Coefficient  Atom+Function  
  ----- ------------  ---------------      ----- ------------  ---------------
     4      0.485193  1 O  py                17     -0.460640  2 H  s          
    19      0.460638  3 H  s                  8      0.406509  1 O  py         
    16     -0.228433  2 H  s                 18      0.228433  3 H  s          

 Vector    8  Occ=0.000000D+00  E= 7.079103D-01
              MO Center= -3.9D-13, -2.8D-06, -9.6D-01, r^2= 3.5D+00
   Bfn.  Coefficient  Atom+Function         Bfn.  Coefficient  Atom+Function  
  ----- ------------  ---------------      ----- ------------  ---------------
    16      0.844020  2 H  s                 18      0.844022  3 H  s          
    17     -0.801511  2 H  s                 19     -0.801513  3 H  s          
     9     -0.370918  1 O  pz                 2      0.240439  1 O  s          
     5      0.226764  1 O  pz         

 Vector    9  Occ=0.000000D+00  E= 7.839343D-01
              MO Center=  5.6D-16,  2.1D-06, -1.2D+00, r^2= 3.8D+00
   Bfn.  Coefficient  Atom+Function         Bfn.  Coefficient  Atom+Function  
  ----- ------------  ---------------      ----- ------------  ---------------
    17     -0.981376  2 H  s                 19      0.981375  3 H  s          
    16      0.896015  2 H  s                 18     -0.896014  3 H  s          
     8      0.430837  1 O  py                 4     -0.177565  1 O  py         

 Vector   10  Occ=0.000000D+00  E= 8.447811D-01
              MO Center= -7.5D-12,  4.9D-07,  1.7D-01, r^2= 2.1D+00
   Bfn.  Coefficient  Atom+Function         Bfn.  Coefficient  Atom+Function  
  ----- ------------  ---------------      ----- ------------  ---------------
     6      2.262206  1 O  s                  2     -1.222606  1 O  s          
    17     -0.457217  2 H  s                 19     -0.457216  3 H  s          
    10     -0.406776  1 O  dxx               15     -0.403323  1 O  dzz        
    13     -0.399078  1 O  dyy                5     -0.368988  1 O  pz         
     9      0.300351  1 O  pz                16      0.286196  2 H  s          

 Vector   11  Occ=0.000000D+00  E= 8.939559D-01
              MO Center=  1.1D-11, -1.8D-09, -6.9D-04, r^2= 1.2D+00
   Bfn.  Coefficient  Atom+Function         Bfn.  Coefficient  Atom+Function  
  ----- ------------  ---------------      ----- ------------  ---------------
     7      1.054884  1 O  px                 3     -0.937828  1 O  px         

 Vector   12  Occ=0.000000D+00  E= 9.668323D-01
              MO Center= -3.5D-12, -1.1D-06, -4.7D-01, r^2= 1.2D+00
   Bfn.  Coefficient  Atom+Function         Bfn.  Coefficient  Atom+Function  
  ----- ------------  ---------------      ----- ------------  ---------------
     6      1.217415  1 O  s                  9     -1.040023  1 O  pz         
     5      0.846751  1 O  pz                 2     -0.678785  1 O  s          
    13     -0.229582  1 O  dyy               15     -0.200748  1 O  dzz        
    17     -0.199853  2 H  s                 19     -0.199853  3 H  s          
    10     -0.176474  1 O  dxx        

 Vector   13  Occ=0.000000D+00  E= 9.746896D-01
              MO Center= -2.7D-14,  1.2D-06,  2.3D-02, r^2= 1.3D+00
   Bfn.  Coefficient  Atom+Function         Bfn.  Coefficient  Atom+Function  
  ----- ------------  ---------------      ----- ------------  ---------------
     8      1.129603  1 O  py                 4     -0.936270  1 O  py         
    16     -0.207010  2 H  s                 18      0.207010  3 H  s          

 Vector   14  Occ=0.000000D+00  E= 1.795829D+00
              MO Center= -2.2D-13,  6.0D-09,  9.4D-03, r^2= 6.2D-01
   Bfn.  Coefficient  Atom+Function         Bfn.  Coefficient  Atom+Function  
  ----- ------------  ---------------      ----- ------------  ---------------
    15     -0.885774  1 O  dzz               13      0.844740  1 O  dyy        

 Vector   15  Occ=0.000000D+00  E= 1.815659D+00
              MO Center=  4.2D-11,  4.7D-09, -2.6D-15, r^2= 6.1D-01
   Bfn.  Coefficient  Atom+Function         Bfn.  Coefficient  Atom+Function  
  ----- ------------  ---------------      ----- ------------  ---------------
    11      1.732051  1 O  dxy        


 center of mass
 --------------
 x =   0.00000000 y =   0.00000000 z =  -0.23411776

 moments of inertia (a.u.)
 ------------------
          22.552844630886           0.000000000000           0.000000000000
           0.000000000000           7.833622161729           0.000000000000
           0.000000000000           0.000000000000          14.719222469158

     Multipole analysis of the density
     ---------------------------------

     L   x y z        total         alpha         beta         nuclear
     -   - - -        -----         -----         ----         -------
     0   0 0 0      0.000000     -5.000000     -5.000000     10.000000

     1   1 0 0      0.000000      0.000000      0.000000      0.000000
     1   0 1 0      0.000002      0.000001      0.000001      0.000000
     1   0 0 1     -0.697686      1.743084      1.743084     -4.183853

     2   2 0 0     -6.117565     -3.058782     -3.058782      0.000000
     2   1 1 0      0.000000      0.000000      0.000000      0.000000
     2   1 0 1      0.000000      0.000000      0.000000      0.000000
     2   0 2 0     -2.318307     -8.461623     -8.461623     14.604939
     2   0 1 1     -0.000003     -0.000001     -0.000001      0.000000
     2   0 0 2     -3.707578     -6.229946     -6.229946      8.752314


 HESSIAN: the one electron contributions are done in       0.0s


 HESSIAN: 2-el 1st deriv. term done in                     0.0s


 HESSIAN: 2-el 2nd deriv. term done in                     0.0s

  stpr_wrt_fd_from_sq: overwrite of existing file:./h2o_raman_5.hess
 stpr_wrt_fd_dipole: overwrite of existing file./h2o_raman_5.fd_ddipole

 HESSIAN: the two electron contributions are done in       0.9s

                                NWChem CPHF Module
                                ------------------


  scftype          =     RHF 
  nclosed          =        5
  nopen            =        0
  variables        =       70
  # of vectors     =        9
  tolerance        = 0.10D-05
  level shift      = 0.00D+00
  max iterations   =       60
  max subspace     =       90

 SCF residual:   2.693724194632250E-006


Iterative solution of linear equations
  No. of variables       70
  No. of equations        9
  Maximum subspace       90
        Iterations       60
       Convergence  1.0D-06
        Start time      4.2


   iter   nsub   residual    time
   ----  ------  --------  ---------
     1      9    4.24D-01       4.7
     2     18    2.34D-02       5.2
     3     27    1.85D-03       5.6
     4     36    2.63D-04       6.1
     5     45    2.02D-06       6.5
     6     54    1.69D-07       7.0
 HESSIAN: the CPHF contributions are done
  stpr_wrt_fd_from_sq: overwrite of existing file:./h2o_raman_5.hess
 stpr_wrt_fd_dipole: overwrite of existing file./h2o_raman_5.fd_ddipole
 -----------------------
 Performance information
 -----------------------

 Timer overhead =  1.00D-07 seconds/call

               Nr. of calls         CPU time (s)                 Wall time (s)                GFlops
             ---------------    -------------------     ------------------------------   -------------------
Name         Min   Avg   Max    Min     Avg     Max     Min     Avg     Max   Mx/calls   Min     Max     Sum
hess: tot     1     1     1    5.2     5.3     5.3      5.8     5.8     5.8     5.8      0.0     0.0     0.0   
hess: int     1     1     1   6.00E-3 7.00E-3 8.00E-3  9.15E-3 9.15E-3 9.15E-3 9.15E-3   0.0     0.0     0.0   
hess: nuc     1     1     1    0.0     0.0     0.0     9.54E-7 3.28E-6 9.06E-6 9.06E-6   0.0     0.0     0.0   
hess: int     1     1     1   0.88    0.88    0.89     0.89    0.89    0.89    0.89      0.0     0.0     0.0   
hess: cph     1     1     1    3.3     3.3     3.3      3.4     3.4     3.4     3.4      0.0     0.0     0.0   

 The average no. of pstat calls per process was 5.00D+00
 with a timing overhead of 5.00D-07s

 HESSIAN: the Hessian is done


  Vibrational analysis via the FX method 

  See chapter 2 in "Molecular Vibrations" by Wilson, Decius and Cross

  Vib: Default input used 

  Nuclear Hessian passed symmetry test 



 ---------------------------- Atom information ----------------------------
     atom    #        X              Y              Z            mass
 --------------------------------------------------------------------------
    O        1  0.0000000D+00  0.0000000D+00  0.0000000D+00  1.5994910D+01
    H        2  0.0000000D+00  2.7023082D+00 -2.0919267D+00  1.0078250D+00
    H        3  0.0000000D+00 -2.7023082D+00 -2.0919267D+00  1.0078250D+00
 --------------------------------------------------------------------------




          ----------------------------------------------------
          MASS-WEIGHTED NUCLEAR HESSIAN (Hartree/Bohr/Bohr/Kamu)
          ----------------------------------------------------


              1           2           3           4           5           6           7           8           9
   ----- ----- ----- ----- -----
    1   2.81576D+00
    2   1.57830D-08-2.09593D+00
    3   1.12572D-09 6.70463D-07 1.60332D+00
    4  -5.60807D+00-9.63825D-10-1.55191D-09 2.39476D+01
    5  -9.33172D-11 4.17531D+00-8.82403D+00-2.82129D-11-1.62792D+01
    6   2.75034D-10-7.57353D+00-3.19297D+00 9.02743D-11 3.26623D+01 7.45880D+00
    7  -5.60807D+00-6.19815D-10-4.80272D-10-1.60637D+00-3.79572D-10-3.24447D-10 2.39476D+01
    8   2.11931D-09 4.17531D+00 8.82402D+00 4.79789D-09-3.54372D-01-2.49089D+00 2.50808D-09-1.62792D+01
    9   1.60641D-09 7.57352D+00-3.19297D+00 4.63385D-09 2.49088D+00 5.26134D+00 2.01562D-09-3.26623D+01 7.45880D+00



          -------------------------------------------------
          NORMAL MODE EIGENVECTORS IN CARTESIAN COORDINATES
          -------------------------------------------------
                 (Frequencies expressed in cm-1)

                    1           2           3           4           5           6
 
 Frequency      -1052.84    -1041.54        2.22        2.67        2.82      815.33
 
           1     0.00000     0.00000    -0.00004     0.23563    -0.00001     0.08365
           2    -0.06771     0.00000     0.23563     0.00004    -0.00010     0.00000
           3     0.00000     0.04673    -0.00010    -0.00001    -0.23563     0.00000
           4     0.00000     0.00000    -0.00004     0.23564    -0.00001    -0.66377
           5     0.53734     0.58417     0.23563     0.00004    -0.00010     0.00000
           6    -0.41352    -0.37084    -0.00010    -0.00001    -0.23563     0.00000
           7     0.00000     0.00000    -0.00004     0.23564    -0.00001    -0.66377
           8     0.53733    -0.58418     0.23563     0.00004    -0.00010     0.00000
           9     0.41352    -0.37085    -0.00010    -0.00001    -0.23563     0.00000

                    7           8           9
 
 Frequency        819.52      821.74     1021.02
 
           1     0.00000     0.00000     0.00000
           2    -0.04911     0.00000     0.00000
           3     0.00000     0.00000     0.06938
           4     0.00000    -0.70436     0.00000
           5     0.38969     0.00000    -0.39352
           6     0.57019     0.00000    -0.55052
           7     0.00000     0.70436     0.00000
           8     0.38969     0.00000     0.39352
           9    -0.57019     0.00000    -0.55052



 ----------------------------------------------------------------------------
 Normal Eigenvalue ||         Derivative Dipole Moments (debye/angs)
  Mode   [cm**-1]  ||      [d/dqX]             [d/dqY]           [d/dqZ]
 ------ ---------- || ------------------ ------------------ -----------------
    1    -1052.843 ||       0.000              -0.346             0.000
    2    -1041.538 ||       0.000               0.000            -0.212
    3        2.220 ||       0.000               0.000             0.000
    4        2.670 ||       0.000               0.000             0.000
    5        2.821 ||       0.000               0.000             0.000
    6      815.327 ||       1.197               0.000             0.000
    7      819.525 ||       0.000              -0.707             0.000
    8      821.739 ||       0.000               0.000             0.000
    9     1021.018 ||       0.000               0.000             0.878
 ----------------------------------------------------------------------------



  
  
 ----------------------------------------------------------------------------
 Normal Eigenvalue ||                 Infra Red Intensities
  Mode   [cm**-1]  || [atomic units] [(debye/angs)**2] [(KM/mol)] [arbitrary]
 ------ ---------- || -------------- ----------------- ---------- -----------
    1    -1052.843 ||    0.005175           0.119         5.045       3.747
    2    -1041.538 ||    0.001956           0.045         1.907       1.416
    3        2.220 ||    0.000000           0.000         0.000       0.000
    4        2.670 ||    0.000000           0.000         0.000       0.000
    5        2.821 ||    0.000000           0.000         0.000       0.000
    6      815.327 ||    0.062138           1.434        60.575      44.994
    7      819.525 ||    0.021643           0.499        21.098      15.672
    8      821.739 ||    0.000000           0.000         0.000       0.000
    9     1021.018 ||    0.033380           0.770        32.540      24.170
 ----------------------------------------------------------------------------





        Vibrational analysis via the FX method 
  --- with translations and rotations projected out ---
  --- via the Eckart algorithm                      ---
 Projected Nuclear Hessian trans-rot subspace norm:4.6384D-35
                         (should be close to zero!) 


From the projected analysis 
The Zero-Point Energy (Kcal/mol) =           1.46007310

 center of mass
 --------------
 x =   0.00000000 y =   0.00000000 z =  -0.23411776

 moments of inertia (a.u.)
 ------------------
          22.552844630886           0.000000000000           0.000000000000
           0.000000000000           7.833622161729           0.000000000000
           0.000000000000           0.000000000000          14.719222469158

 Rotational Constants
 --------------------
 A=   7.684845 cm-1  ( 11.056531 K)
 B=   4.089902 cm-1  (  5.884325 K)
 C=   2.669294 cm-1  (  3.840433 K)


 Temperature                      =   298.15K
 frequency scaling parameter      =   1.0000

 Zero-Point correction to Energy  =    1.459 kcal/mol  (  0.002325 au)
 Thermal correction to Energy     =    3.257 kcal/mol  (  0.005190 au)
 Thermal correction to Enthalpy   =    3.849 kcal/mol  (  0.006134 au)

 Total Entropy                    =   50.288 cal/mol-K
   - Translational                =   34.593 cal/mol-K (mol. weight =  18.0106)
   - Rotational                   =   15.609 cal/mol-K (symmetry #  =        1)
   - Vibrational                  =    0.086 cal/mol-K

 Cv (constant volume heat capacity) =    6.314 cal/mol-K
   - Translational                  =    2.979 cal/mol-K
   - Rotational                     =    2.979 cal/mol-K
   - Vibrational                    =    0.355 cal/mol-K



          -------------------------------------------------
          NORMAL MODE EIGENVECTORS IN CARTESIAN COORDINATES
          -------------------------------------------------
             (Projected Frequencies expressed in cm-1)

                    1           2           3           4           5           6
 
 P.Frequency    -1041.53    -1007.64        0.00        0.00        0.00        0.00
 
           1     0.00000     0.00000     0.00000     0.00000     0.25004     0.00000
           2     0.00000     0.06758     0.24056    -0.00852     0.00000     0.00000
           3     0.04673     0.00000    -0.00109    -0.11771     0.00000     0.00000
           4     0.00000     0.00000     0.00000     0.00000     0.00000     0.99611
           5     0.58418    -0.53624     0.16689     0.36787     0.00000     0.00000
           6    -0.37084     0.41512    -0.09624     0.36851     0.00000     0.00000
           7     0.00000     0.00000     0.00000     0.00000     0.00000     0.00000
           8    -0.58418    -0.53624     0.16689     0.36787     0.00000     0.00000
           9    -0.37084    -0.41512     0.09407    -0.60393     0.00000     0.00000

                    7           8           9
 
 P.Frequency        0.00        0.00     1021.03
 
           1     0.00000     0.00000     0.00000
           2     0.00000     0.00364     0.00000
           3     0.00000    -0.20412     0.06938
           4     0.00000     0.00000     0.00000
           5     0.00000    -0.21303    -0.39351
           6     0.00000    -0.48400    -0.55052
           7     0.99611     0.00000     0.00000
           8     0.00000    -0.21303     0.39351
           9     0.00000     0.07576    -0.55052



 ----------------------------------------------------------------------------
 Normal Eigenvalue ||    Projected Derivative Dipole Moments (debye/angs)
  Mode   [cm**-1]  ||      [d/dqX]             [d/dqY]           [d/dqZ]
 ------ ---------- || ------------------ ------------------ -----------------
    1    -1041.532 ||       0.000               0.000             0.212
    2    -1007.645 ||       0.000              -0.348             0.000
    3        0.000 ||       0.000              -0.118             0.000
    4        0.000 ||       0.000              -0.603             0.000
    5        0.000 ||      -0.401               0.000             0.000
    6        0.000 ||       0.798               0.000             0.000
    7        0.000 ||       0.798               0.000             0.000
    8        0.000 ||       0.000              -0.347             0.000
    9     1021.030 ||       0.000               0.000             0.878
 ----------------------------------------------------------------------------



  
  
 ----------------------------------------------------------------------------
 Normal Eigenvalue ||           Projected Infra Red Intensities
  Mode   [cm**-1]  || [atomic units] [(debye/angs)**2] [(KM/mol)] [arbitrary]
 ------ ---------- || -------------- ----------------- ---------- -----------
    1    -1041.532 ||    0.001956           0.045         1.907       1.417
    2    -1007.645 ||    0.005235           0.121         5.103       3.791
    3        0.000 ||    0.000604           0.014         0.588       0.437
    4        0.000 ||    0.015758           0.364        15.362      11.411
    5        0.000 ||    0.006954           0.160         6.779       5.036
    6        0.000 ||    0.027592           0.637        26.898      19.979
    7        0.000 ||    0.027592           0.637        26.898      19.979
    8        0.000 ||    0.005221           0.120         5.090       3.781
    9     1021.030 ||    0.033380           0.770        32.540      24.170
 ----------------------------------------------------------------------------






 ===============================================================================
      Negative Nuclear Hessian Mode    1  Eigenvalue =  -1041.53 cm**(-1)
 -------------------------------------------------------------------------------
   Raw step length:  0.518 angstroms ;  The Raw step for this mode is:
    1 O                    8.0000     0.00000000     0.00000009    -0.02472970
    2 H                    1.0000     0.00000000    -0.30913573     0.19623962
    3 H                    1.0000     0.00000000     0.30913433     0.19623853


  Geometry after  100.0% step for mode  1; Step length =  0.518 angstroms 
   Maximum component (any atom: x,y, or z) displacement:  0.584
    1 O                    8.0000     0.00000000     0.00000009    -0.02472970
    2 H                    1.0000     0.00000000     1.12086427    -0.91076038
    3 H                    1.0000     0.00000000    -1.12086567    -0.91076147


  Geometry after -100.0% step for mode  1; Step length =  0.518 angstroms 
   Maximum component (any atom: x,y, or z) displacement:  0.584
    1 O                    8.0000     0.00000000    -0.00000009     0.02472970
    2 H                    1.0000     0.00000000     1.73913573    -1.30323962
    3 H                    1.0000     0.00000000    -1.73913433    -1.30323853


  Geometry after   50.0% step for mode  1; Step length =  0.259 angstroms 
   Maximum component (any atom: x,y, or z) displacement:  0.292
    1 O                    8.0000     0.00000000     0.00000004    -0.01236485
    2 H                    1.0000     0.00000000     1.27543213    -1.00888019
    3 H                    1.0000     0.00000000    -1.27543284    -1.00888073


  Geometry after  -50.0% step for mode  1; Step length =  0.259 angstroms 
   Maximum component (any atom: x,y, or z) displacement:  0.292
    1 O                    8.0000     0.00000000    -0.00000004     0.01236485
    2 H                    1.0000     0.00000000     1.58456787    -1.20511981
    3 H                    1.0000     0.00000000    -1.58456716    -1.20511927


  Geometry after   34.2% step for mode  1; Step length =  0.177 angstroms 
   Maximum component (any atom: x,y, or z) displacement:  0.200
    1 O                    8.0000     0.00000000     0.00000003    -0.00846644
    2 H                    1.0000     0.00000000     1.32416455    -1.03981557
    3 H                    1.0000     0.00000000    -1.32416503    -1.03981594


  Geometry after  -34.2% step for mode  1; Step length =  0.177 angstroms 
   Maximum component (any atom: x,y, or z) displacement:  0.200
    1 O                    8.0000     0.00000000    -0.00000003     0.00846644
    2 H                    1.0000     0.00000000     1.53583545    -1.17418443
    3 H                    1.0000     0.00000000    -1.53583497    -1.17418406


  Geometry after   17.1% step for mode  1; Step length =  0.089 angstroms 
   Maximum component (any atom: x,y, or z) displacement:  0.100
    1 O                    8.0000     0.00000000     0.00000002    -0.00423322
    2 H                    1.0000     0.00000000     1.37708228    -1.07340778
    3 H                    1.0000     0.00000000    -1.37708252    -1.07340797


  Geometry after  -17.1% step for mode  1; Step length =  0.089 angstroms 
   Maximum component (any atom: x,y, or z) displacement:  0.100
    1 O                    8.0000     0.00000000    -0.00000002     0.00423322
    2 H                    1.0000     0.00000000     1.48291772    -1.14059222
    3 H                    1.0000     0.00000000    -1.48291748    -1.14059203





 ===============================================================================
      Negative Nuclear Hessian Mode    2  Eigenvalue =  -1007.64 cm**(-1)
 -------------------------------------------------------------------------------
   Raw step length:  0.509 angstroms ;  The Raw step for this mode is:
    1 O                    8.0000     0.00000000     0.03575987     0.00000006
    2 H                    1.0000     0.00000000    -0.28376673     0.21967129
    3 H                    1.0000     0.00000000    -0.28376828    -0.21967225


  Geometry after  100.0% step for mode  2; Step length =  0.509 angstroms 
   Maximum component (any atom: x,y, or z) displacement:  0.536
    1 O                    8.0000     0.00000000     0.03575987     0.00000006
    2 H                    1.0000     0.00000000     1.14623327    -0.88732871
    3 H                    1.0000     0.00000000    -1.71376828    -1.32667225


  Geometry after -100.0% step for mode  2; Step length =  0.509 angstroms 
   Maximum component (any atom: x,y, or z) displacement:  0.536
    1 O                    8.0000     0.00000000    -0.03575987    -0.00000006
    2 H                    1.0000     0.00000000     1.71376673    -1.32667129
    3 H                    1.0000     0.00000000    -1.14623172    -0.88732775


  Geometry after   50.0% step for mode  2; Step length =  0.254 angstroms 
   Maximum component (any atom: x,y, or z) displacement:  0.268
    1 O                    8.0000     0.00000000     0.01787994     0.00000003
    2 H                    1.0000     0.00000000     1.28811663    -0.99716435
    3 H                    1.0000     0.00000000    -1.57188414    -1.21683612


  Geometry after  -50.0% step for mode  2; Step length =  0.254 angstroms 
   Maximum component (any atom: x,y, or z) displacement:  0.268
    1 O                    8.0000     0.00000000    -0.01787994    -0.00000003
    2 H                    1.0000     0.00000000     1.57188337    -1.21683565
    3 H                    1.0000     0.00000000    -1.28811586    -0.99716388


  Geometry after   37.3% step for mode  2; Step length =  0.190 angstroms 
   Maximum component (any atom: x,y, or z) displacement:  0.200
    1 O                    8.0000     0.00000000     0.01333716     0.00000002
    2 H                    1.0000     0.00000000     1.32416513    -1.02507044
    3 H                    1.0000     0.00000000    -1.53583545    -1.18892992


  Geometry after  -37.3% step for mode  2; Step length =  0.190 angstroms 
   Maximum component (any atom: x,y, or z) displacement:  0.200
    1 O                    8.0000     0.00000000    -0.01333716    -0.00000002
    2 H                    1.0000     0.00000000     1.53583487    -1.18892956
    3 H                    1.0000     0.00000000    -1.32416455    -1.02507008


  Geometry after   18.6% step for mode  2; Step length =  0.095 angstroms 
   Maximum component (any atom: x,y, or z) displacement:  0.100
    1 O                    8.0000     0.00000000     0.00666858     0.00000001
    2 H                    1.0000     0.00000000     1.37708256    -1.06603522
    3 H                    1.0000     0.00000000    -1.48291772    -1.14796496


  Geometry after  -18.6% step for mode  2; Step length =  0.095 angstroms 
   Maximum component (any atom: x,y, or z) displacement:  0.100
    1 O                    8.0000     0.00000000    -0.00666858    -0.00000001
    2 H                    1.0000     0.00000000     1.48291744    -1.14796478
    3 H                    1.0000     0.00000000    -1.37708228    -1.06603504


 vib:animation  F
FA nfreq=   1
(mode_ini,mode_end)=(    1,    3)
 task_raman_doit:                no rminfo found task_raman_doit:                no rminfo found task_raman_doit:                no rminfo found
 task_raman_doit:                no rminfo found


(begin,last,steps)=(   7,   9,   2)
 ENTER raman default
Generating fname_raman3=./h2o_raman_5.raman_0007-0009                                                                                                                                                                                                                                  
(ii,rminfo(ii,1))=(    7,     0.00000000)
 ramanpolfile=./h2o_raman_5.ramanpol_0001-1                                                                                                                                                                                                                                  
 ramanpol_read: failed to open ./h2o_raman_5.ramanpol_0001-1
                              NWChem Property Module
                              ----------------------


                                    h2o_raman_5


                                 NWChem DFT Module
                                 -----------------


                                    h2o_raman_5


  Caching 1-el integrals 

            General Information
            -------------------
          SCF calculation type: DFT
          Wavefunction type:  closed shell.
          No. of atoms     :     3
          No. of electrons :    10
           Alpha electrons :     5
            Beta electrons :     5
          Charge           :     0
          Spin multiplicity:     1
          Use of symmetry is: off; symmetry adaption is: off
          Maximum number of iterations: 100
          This is a Direct SCF calculation.
          AO basis - number of functions:    19
                     number of shells:    10
          Convergence on energy requested: 1.00D-08
          Convergence on density requested: 1.00D-05
          Convergence on gradient requested: 1.00D-04

              XC Information
              --------------
                         B3LYP Method XC Potential
                     Hartree-Fock (Exact) Exchange  0.200          
                        Slater Exchange Functional  0.800 local    
                    Becke 1988 Exchange Functional  0.720 non-local
              Lee-Yang-Parr Correlation Functional  0.810          
                  VWN I RPA Correlation Functional  0.190 local    

             Grid Information
             ----------------
          Grid used for XC integration:  fine      
          Radial quadrature: Mura-Knowles        
          Angular quadrature: Lebedev. 
          Tag              B.-S. Rad. Rad. Pts. Rad. Cut. Ang. Pts.
          ---              ---------- --------- --------- ---------
          O                   0.60       70           7.0       590
          H                   0.35       60           8.0       590
          Grid pruning is: on 
          Number of quadrature shells:   190
          Spatial weights used:  Erf1

          Convergence Information
          -----------------------
          Convergence aids based upon iterative change in 
          total energy or number of iterations. 
          Levelshifting, if invoked, occurs when the 
          HOMO/LUMO gap drops below (HL_TOL): 1.00D-02
          DIIS, if invoked, will attempt to extrapolate 
          using up to (NFOCK): 10 stored Fock matrices.

                    Damping( 0%)  Levelshifting(0.0)       DIIS
                  --------------- ------------------- ---------------
          dE  on:    start             N/A                start   
          dE off:    2 iters           N/A              100 iters 


      Screening Tolerance Information
      -------------------------------
          Density screening/tol_rho: 1.00D-11
          AO Gaussian exp screening on grid/accAOfunc:  18
          CD Gaussian exp screening on grid/accCDfunc:  20
          XC Gaussian exp screening on grid/accXCfunc:  20
          Schwarz screening/accCoul: 1.00D-09


 Loading old vectors from job with title :

h2o_raman_5

   Time after variat. SCF:      5.3
   Time prior to 1st pass:      5.3

 Grid_pts file          = ./h2o_raman_5.gridpts.0
 Record size in doubles =  12289        No. of grid_pts per rec  =   3070
 Max. records in memory =     12        Max. recs in file   =     36801


           Memory utilization after 1st SCF pass: 
           Heap Space remaining (MW):      130.92           130922971
          Stack Space remaining (MW):      131.07           131071642

   convergence    iter        energy       DeltaE   RMS-Dens  Diis-err    time
 ---------------- ----- ----------------- --------- --------- ---------  ------
 d= 0,ls=0.0,diis     1    -76.1147940753 -8.10D+01  1.14D-04  3.07D-07     5.4
  Resetting Diis
 d= 0,ls=0.0,diis     2    -76.1147945175 -4.42D-07  5.64D-05  5.62D-08     5.5
 d= 0,ls=0.0,diis     3    -76.1147945959 -7.84D-08  1.34D-05  4.19D-09     5.6
 d= 0,ls=0.0,diis     4    -76.1147946018 -5.87D-09  8.66D-06  1.05D-09     5.7


         Total DFT energy =      -76.114794601777
      One electron energy =     -114.609570815583
           Coulomb energy =       42.555420363439
    Exchange-Corr. energy =       -8.927582059926
 Nuclear repulsion energy =        4.866937910294

 Numeric. integr. density =       10.000000206377

     Total iterative time =      0.5s



                       DFT Final Molecular Orbital Analysis
                       ------------------------------------

 Vector    1  Occ=2.000000D+00  E=-1.922503D+01
              MO Center=  9.4D-08,  1.9D-10, -4.0D-05, r^2= 1.5D-02
   Bfn.  Coefficient  Atom+Function         Bfn.  Coefficient  Atom+Function  
  ----- ------------  ---------------      ----- ------------  ---------------
     1      0.993138  1 O  s          

 Vector    2  Occ=2.000000D+00  E=-8.794227D-01
              MO Center=  9.1D-05,  3.9D-07, -3.8D-02, r^2= 4.9D-01
   Bfn.  Coefficient  Atom+Function         Bfn.  Coefficient  Atom+Function  
  ----- ------------  ---------------      ----- ------------  ---------------
     6      0.554012  1 O  s                  2      0.532532  1 O  s          
     1     -0.233413  1 O  s          

 Vector    3  Occ=2.000000D+00  E=-3.504937D-01
              MO Center=  1.1D-03,  7.4D-06, -4.6D-01, r^2= 1.8D+00
   Bfn.  Coefficient  Atom+Function         Bfn.  Coefficient  Atom+Function  
  ----- ------------  ---------------      ----- ------------  ---------------
     4      0.477191  1 O  py                 8      0.318397  1 O  py         
    17      0.272468  2 H  s                 19     -0.272465  3 H  s          
    16      0.183902  2 H  s                 18     -0.183900  3 H  s          

 Vector    4  Occ=2.000000D+00  E=-3.297368D-01
              MO Center=  1.0D-03, -1.1D-05, -4.2D-01, r^2= 1.7D+00
   Bfn.  Coefficient  Atom+Function         Bfn.  Coefficient  Atom+Function  
  ----- ------------  ---------------      ----- ------------  ---------------
     5      0.489189  1 O  pz                 9      0.332355  1 O  pz         
    17     -0.275550  2 H  s                 19     -0.275555  3 H  s          
    16     -0.176384  2 H  s                 18     -0.176387  3 H  s          

 Vector    5  Occ=2.000000D+00  E=-2.867455D-01
              MO Center=  9.4D-06,  2.5D-08, -4.1D-03, r^2= 5.6D-01
   Bfn.  Coefficient  Atom+Function         Bfn.  Coefficient  Atom+Function  
  ----- ------------  ---------------      ----- ------------  ---------------
     3      0.675657  1 O  px                 7      0.472471  1 O  px         

 Vector    6  Occ=0.000000D+00  E=-1.505286D-01
              MO Center=  1.6D-03, -4.9D-05, -6.8D-01, r^2= 2.4D+00
   Bfn.  Coefficient  Atom+Function         Bfn.  Coefficient  Atom+Function  
  ----- ------------  ---------------      ----- ------------  ---------------
     5      0.461603  1 O  pz                17      0.444762  2 H  s          
    19      0.444786  3 H  s                  9      0.378614  1 O  pz         
    16      0.215350  2 H  s                 18      0.215364  3 H  s          
     6     -0.194109  1 O  s          

 Vector    7  Occ=0.000000D+00  E=-1.223101D-01
              MO Center=  1.6D-03,  5.3D-05, -6.8D-01, r^2= 2.5D+00
   Bfn.  Coefficient  Atom+Function         Bfn.  Coefficient  Atom+Function  
  ----- ------------  ---------------      ----- ------------  ---------------
     4      0.485196  1 O  py                17     -0.460649  2 H  s          
    19      0.460620  3 H  s                  8      0.406514  1 O  py         
    16     -0.228437  2 H  s                 18      0.228425  3 H  s          

 Vector    8  Occ=0.000000D+00  E= 7.079104D-01
              MO Center=  2.3D-03,  4.5D-06, -9.6D-01, r^2= 3.5D+00
   Bfn.  Coefficient  Atom+Function         Bfn.  Coefficient  Atom+Function  
  ----- ------------  ---------------      ----- ------------  ---------------
    16      0.844025  2 H  s                 18      0.844023  3 H  s          
    17     -0.801517  2 H  s                 19     -0.801512  3 H  s          
     9     -0.370908  1 O  pz                 2      0.240434  1 O  s          
     5      0.226756  1 O  pz         

 Vector    9  Occ=0.000000D+00  E= 7.839341D-01
              MO Center=  2.9D-03,  5.3D-07, -1.2D+00, r^2= 3.8D+00
   Bfn.  Coefficient  Atom+Function         Bfn.  Coefficient  Atom+Function  
  ----- ------------  ---------------      ----- ------------  ---------------
    17     -0.981376  2 H  s                 19      0.981373  3 H  s          
    16      0.896015  2 H  s                 18     -0.896018  3 H  s          
     8      0.430827  1 O  py                 4     -0.177558  1 O  py         

 Vector   10  Occ=0.000000D+00  E= 8.447840D-01
              MO Center= -4.0D-04, -7.0D-06,  1.7D-01, r^2= 2.1D+00
   Bfn.  Coefficient  Atom+Function         Bfn.  Coefficient  Atom+Function  
  ----- ------------  ---------------      ----- ------------  ---------------
     6      2.262214  1 O  s                  2     -1.222612  1 O  s          
    17     -0.457207  2 H  s                 19     -0.457214  3 H  s          
    10     -0.406778  1 O  dxx               15     -0.403326  1 O  dzz        
    13     -0.399081  1 O  dyy                5     -0.368984  1 O  pz         
     9      0.300346  1 O  pz                16      0.286185  2 H  s          

 Vector   11  Occ=0.000000D+00  E= 8.939603D-01
              MO Center= -5.4D-06, -4.6D-09, -6.9D-04, r^2= 1.2D+00
   Bfn.  Coefficient  Atom+Function         Bfn.  Coefficient  Atom+Function  
  ----- ------------  ---------------      ----- ------------  ---------------
     7      1.054879  1 O  px                 3     -0.937825  1 O  px         

 Vector   12  Occ=0.000000D+00  E= 9.668351D-01
              MO Center=  1.1D-03, -5.5D-05, -4.7D-01, r^2= 1.2D+00
   Bfn.  Coefficient  Atom+Function         Bfn.  Coefficient  Atom+Function  
  ----- ------------  ---------------      ----- ------------  ---------------
     6      1.217399  1 O  s                  9     -1.040023  1 O  pz         
     5      0.846753  1 O  pz                 2     -0.678776  1 O  s          
    13     -0.229579  1 O  dyy               15     -0.200745  1 O  dzz        
    17     -0.199841  2 H  s                 19     -0.199867  3 H  s          
    10     -0.176473  1 O  dxx        

 Vector   13  Occ=0.000000D+00  E= 9.746929D-01
              MO Center= -5.5D-05,  5.7D-05,  2.3D-02, r^2= 1.3D+00
   Bfn.  Coefficient  Atom+Function         Bfn.  Coefficient  Atom+Function  
  ----- ------------  ---------------      ----- ------------  ---------------
     8      1.129602  1 O  py                 4     -0.936271  1 O  py         
    16     -0.207021  2 H  s                 18      0.206983  3 H  s          

 Vector   14  Occ=0.000000D+00  E= 1.795833D+00
              MO Center= -2.2D-05, -1.3D-07,  9.4D-03, r^2= 6.2D-01
   Bfn.  Coefficient  Atom+Function         Bfn.  Coefficient  Atom+Function  
  ----- ------------  ---------------      ----- ------------  ---------------
    15     -0.885769  1 O  dzz               13      0.844737  1 O  dyy        

 Vector   15  Occ=0.000000D+00  E= 1.815664D+00
              MO Center= -5.2D-05, -1.8D-07, -3.0D-07, r^2= 6.1D-01
   Bfn.  Coefficient  Atom+Function         Bfn.  Coefficient  Atom+Function  
  ----- ------------  ---------------      ----- ------------  ---------------
    11      1.732019  1 O  dxy        


 center of mass
 --------------
 x =   0.00055740 y =   0.00000000 z =  -0.23411776

 moments of inertia (a.u.)
 ------------------
          22.552844630886           0.027128603419           0.018650634212
           0.027128603419           7.833716565984           0.000000000000
           0.018650634212           0.000000000000          14.719316873413

     Multipole analysis of the density
     ---------------------------------

     L   x y z        total         alpha         beta         nuclear
     -   - - -        -----         -----         ----         -------
     0   0 0 0      0.000000     -5.000000     -5.000000     10.000000

     1   1 0 0      0.001663     -0.004149     -0.004149      0.009961
     1   0 1 0      0.000010      0.000005      0.000005      0.000000
     1   0 0 1     -0.697561      1.743146      1.743146     -4.183853

     2   2 0 0     -6.117588     -3.058844     -3.058844      0.000099
     2   1 1 0     -0.007000      0.009959      0.009959     -0.026918
     2   1 0 1     -0.005731      0.007554      0.007554     -0.020838
     2   0 2 0     -2.318770     -8.461855     -8.461855     14.604939
     2   0 1 1     -0.000022     -0.000011     -0.000011      0.000000
     2   0 0 2     -3.707864     -6.230089     -6.230089      8.752314

 Entering AOResponse driver routine


--------------------------------------------------------------------------------

          ****************
          *** RESPONSE ***
          ****************

 Response module for NWChem and dynamic CPKS solver
 developed by J. Autschbach and coworkers, SUNY Buffalo
 The methodology used in this program is described in 
 J. Chem. Phys. 123 (2005), 114103
 J. Chem. Phys. 122 (2005), 224115
 J. Chem. Phys. 122 (2005), 074105
 Comp. Lett. 3 (2007), 131-150 (contact JA for a copy)
 Please cite this work in publications based on results
 obtained with this code. Thank you!
 For updated response module please acknowledge:
 F. Aquino, Northwestern University, Schatz Rsrch Group
 (version June 9th,2012)
 ++++++++++++++++++++++++++++++++++++++++++++++++++++++

          -----------------------------------------------
          Solving response equations for perturbing field
          -----------------------------------------------

 number of frequencies:     1
 frequency in a.u.:  0.7215362E-01
 Perturbing field: electric
 Using Dipole Length Gauge

 Applying DAMPING constant of  0.004000 a.u.

 Setting up CPKS
 with frequency omega =      0.07215362 a.u.
 and a damping of            0.00400000 a.u.


                            NWChem Dynamic CPHF Module
                            --------------------------


    scftype = RHF 
    nclosed =    5
      nopen =    0
  variables =      280
  num. vecs =        3
  tolerance =   1.0D-06
  max. iter =   60

 SCF residual:   1.395033675941224E-004


Iterative solution of linear equations
  No. of variables      140
  No. of equations        3
  Maximum subspace       33
       Convergence  1.0D-06
        Start time      8.0


   iter   nsub   residual    time 
   ----  ------  --------  --------- 
 dft_CPHF2_read: failed to open./h2o_raman_5.aoresp_fiao_f1
File ./h2o_raman_5.aoresp_fiao_f1 does not exist, proceed to generate (z1,Az1)
     1      3    2.21D+01       8.6
     2      6    2.96D+00       9.2
     3      9    1.51D+00       9.8
     4     12    1.00D-01      10.4
     5     15    1.79D-02      11.0
     6     18    3.76D-03      11.6
     7     21    6.52D-05      12.1
     8     24    6.15D-06      12.7
     9     27    1.83D-05      13.3
    10     30    9.45D-07      13.9
 Electric Dipole Response Matrix (nonzero elements):

              1        2        3      
    1    2.0065  -0.0741  -0.0299
    2   -0.0741  42.1929   0.0000
    3   -0.0299   0.0000  14.5617

 DFT Linear Response polarizability / au 
 Frequency  =       0.0721536 / au
 Wavelength =     631.4769883 / nm
              X              Y              Z
 -----------------------------------------------
 X       2.0065204     -0.0740726     -0.0298995
 Y      -0.0740718     42.1929024      0.0000047
 Z      -0.0298993      0.0000047     14.5617055
 -----------------------------------------------
 Eigenvalues =       2.0063127     42.1930390     14.5617768
 Isotropic   =      19.5870428
 Anisotropic =      35.6096848
 -----------------------------------------------

 Imaginary part:

              1        2        3      
    1    0.0723  -0.0009  -0.0001
    2   -0.0009   0.5761   0.0000
    3   -0.0001   0.0000   0.1223

 average:    19.5870427872476       + I   0.256899900486464     

 Magnetic Dipole Response Matrix (nonzero elements):
 Optical rotation tensor Beta

              1        2        3      
    1   -0.0605  25.6381  -0.0008
    2    7.2272   0.0616   0.0190
    3   -0.0001   0.0631   0.0003

 Imaginary part:

              1        2        3      
    1    0.0141  -8.2532   0.0000
    2    0.6183  -0.0146   0.0021
    3    0.0000  -0.0203   0.0001
 average:   4.759985671221202E-004  + I  -1.491278689865696E-004

 Principal components and PAS (Real part)
               25.6387
              -25.6376
                0.0003
 ---------------------
 average:       0.0005

              1        2        3      
    1    0.7063   0.7079  -0.0007
    2    0.7079  -0.7063   0.0000
    3    0.0005   0.0005   1.0000
 Exiting AOResponse driver routine
 ramanpolfile=./h2o_raman_5.ramanpol_0001-2                                                                                                                                                                                                                                  
 ramanpol_read: failed to open ./h2o_raman_5.ramanpol_0001-2
                              NWChem Property Module
                              ----------------------


                                    h2o_raman_5


                                 NWChem DFT Module
                                 -----------------


                                    h2o_raman_5


  Caching 1-el integrals 

            General Information
            -------------------
          SCF calculation type: DFT
          Wavefunction type:  closed shell.
          No. of atoms     :     3
          No. of electrons :    10
           Alpha electrons :     5
            Beta electrons :     5
          Charge           :     0
          Spin multiplicity:     1
          Use of symmetry is: off; symmetry adaption is: off
          Maximum number of iterations: 100
          This is a Direct SCF calculation.
          AO basis - number of functions:    19
                     number of shells:    10
          Convergence on energy requested: 1.00D-08
          Convergence on density requested: 1.00D-05
          Convergence on gradient requested: 1.00D-04

              XC Information
              --------------
                         B3LYP Method XC Potential
                     Hartree-Fock (Exact) Exchange  0.200          
                        Slater Exchange Functional  0.800 local    
                    Becke 1988 Exchange Functional  0.720 non-local
              Lee-Yang-Parr Correlation Functional  0.810          
                  VWN I RPA Correlation Functional  0.190 local    

             Grid Information
             ----------------
          Grid used for XC integration:  fine      
          Radial quadrature: Mura-Knowles        
          Angular quadrature: Lebedev. 
          Tag              B.-S. Rad. Rad. Pts. Rad. Cut. Ang. Pts.
          ---              ---------- --------- --------- ---------
          O                   0.60       70           7.0       590
          H                   0.35       60           8.0       590
          Grid pruning is: on 
          Number of quadrature shells:   190
          Spatial weights used:  Erf1

          Convergence Information
          -----------------------
          Convergence aids based upon iterative change in 
          total energy or number of iterations. 
          Levelshifting, if invoked, occurs when the 
          HOMO/LUMO gap drops below (HL_TOL): 1.00D-02
          DIIS, if invoked, will attempt to extrapolate 
          using up to (NFOCK): 10 stored Fock matrices.

                    Damping( 0%)  Levelshifting(0.0)       DIIS
                  --------------- ------------------- ---------------
          dE  on:    start             N/A                start   
          dE off:    2 iters           N/A              100 iters 


      Screening Tolerance Information
      -------------------------------
          Density screening/tol_rho: 1.00D-11
          AO Gaussian exp screening on grid/accAOfunc:  18
          CD Gaussian exp screening on grid/accCDfunc:  20
          XC Gaussian exp screening on grid/accXCfunc:  20
          Schwarz screening/accCoul: 1.00D-09


 Loading old vectors from job with title :

h2o_raman_5

   Time after variat. SCF:     11.7
   Time prior to 1st pass:     11.7

 Grid_pts file          = ./h2o_raman_5.gridpts.0
 Record size in doubles =  12289        No. of grid_pts per rec  =   3070
 Max. records in memory =     12        Max. recs in file   =     36801


           Memory utilization after 1st SCF pass: 
           Heap Space remaining (MW):      130.92           130922971
          Stack Space remaining (MW):      131.07           131071642

   convergence    iter        energy       DeltaE   RMS-Dens  Diis-err    time
 ---------------- ----- ----------------- --------- --------- ---------  ------
 d= 0,ls=0.0,diis     1    -76.1147925065 -8.10D+01  2.28D-04  1.23D-06    11.8
  Resetting Diis
 d= 0,ls=0.0,diis     2    -76.1147942365 -1.73D-06  9.99D-05  4.44D-07    11.9
 d= 0,ls=0.0,diis     3    -76.1147940362  2.00D-07  2.77D-04  4.02D-06    12.0
 d= 0,ls=0.0,diis     4    -76.1147830181  1.10D-05  2.27D-04  9.43D-05    12.2
 d= 0,ls=0.0,diis     5    -76.1147945916 -1.16D-05  2.94D-05  7.28D-09    12.3
 d= 0,ls=0.0,diis     6    -76.1147946031 -1.15D-08  7.89D-07  6.52D-11    12.4
 d= 0,ls=0.0,diis     7    -76.1147946031 -2.26D-11  5.13D-07  1.99D-11    12.5


         Total DFT energy =      -76.114794603122
      One electron energy =     -114.609535522836
           Coulomb energy =       42.555381377092
    Exchange-Corr. energy =       -8.927578367672
 Nuclear repulsion energy =        4.866937910294

 Numeric. integr. density =       10.000000206436

     Total iterative time =      0.8s



                       DFT Final Molecular Orbital Analysis
                       ------------------------------------

 Vector    1  Occ=2.000000D+00  E=-1.922504D+01
              MO Center= -9.5D-08,  2.9D-10, -4.0D-05, r^2= 1.5D-02
   Bfn.  Coefficient  Atom+Function         Bfn.  Coefficient  Atom+Function  
  ----- ------------  ---------------      ----- ------------  ---------------
     1      0.993138  1 O  s          

 Vector    2  Occ=2.000000D+00  E=-8.794287D-01
              MO Center= -9.1D-05,  5.5D-07, -3.8D-02, r^2= 4.9D-01
   Bfn.  Coefficient  Atom+Function         Bfn.  Coefficient  Atom+Function  
  ----- ------------  ---------------      ----- ------------  ---------------
     6      0.554010  1 O  s                  2      0.532534  1 O  s          
     1     -0.233413  1 O  s          

 Vector    3  Occ=2.000000D+00  E=-3.504965D-01
              MO Center= -1.1D-03,  1.5D-05, -4.6D-01, r^2= 1.8D+00
   Bfn.  Coefficient  Atom+Function         Bfn.  Coefficient  Atom+Function  
  ----- ------------  ---------------      ----- ------------  ---------------
     4      0.477199  1 O  py                 8      0.318401  1 O  py         
    17      0.272464  2 H  s                 19     -0.272457  3 H  s          
    16      0.183900  2 H  s                 18     -0.183895  3 H  s          

 Vector    4  Occ=2.000000D+00  E=-3.297399D-01
              MO Center= -1.0D-03, -1.7D-05, -4.2D-01, r^2= 1.7D+00
   Bfn.  Coefficient  Atom+Function         Bfn.  Coefficient  Atom+Function  
  ----- ------------  ---------------      ----- ------------  ---------------
     5      0.489198  1 O  pz                 9      0.332360  1 O  pz         
    17     -0.275541  2 H  s                 19     -0.275550  3 H  s          
    16     -0.176379  2 H  s                 18     -0.176385  3 H  s          

 Vector    5  Occ=2.000000D+00  E=-2.867514D-01
              MO Center= -9.9D-06,  4.7D-08, -4.1D-03, r^2= 5.6D-01
   Bfn.  Coefficient  Atom+Function         Bfn.  Coefficient  Atom+Function  
  ----- ------------  ---------------      ----- ------------  ---------------
     3      0.675659  1 O  px                 7      0.472469  1 O  px         

 Vector    6  Occ=0.000000D+00  E=-1.505306D-01
              MO Center= -1.6D-03, -3.9D-05, -6.8D-01, r^2= 2.4D+00
   Bfn.  Coefficient  Atom+Function         Bfn.  Coefficient  Atom+Function  
  ----- ------------  ---------------      ----- ------------  ---------------
     5      0.461597  1 O  pz                17      0.444769  2 H  s          
    19      0.444788  3 H  s                  9      0.378606  1 O  pz         
    16      0.215354  2 H  s                 18      0.215365  3 H  s          
     6     -0.194110  1 O  s          

 Vector    7  Occ=0.000000D+00  E=-1.223123D-01
              MO Center= -1.6D-03,  4.1D-05, -6.8D-01, r^2= 2.5D+00
   Bfn.  Coefficient  Atom+Function         Bfn.  Coefficient  Atom+Function  
  ----- ------------  ---------------      ----- ------------  ---------------
     4      0.485191  1 O  py                17     -0.460649  2 H  s          
    19      0.460627  3 H  s                  8      0.406507  1 O  py         
    16     -0.228438  2 H  s                 18      0.228429  3 H  s          

 Vector    8  Occ=0.000000D+00  E= 7.079107D-01
              MO Center= -2.3D-03,  1.5D-05, -9.6D-01, r^2= 3.5D+00
   Bfn.  Coefficient  Atom+Function         Bfn.  Coefficient  Atom+Function  
  ----- ------------  ---------------      ----- ------------  ---------------
    16      0.844025  2 H  s                 18      0.844016  3 H  s          
    17     -0.801516  2 H  s                 19     -0.801503  3 H  s          
     9     -0.370915  1 O  pz                 2      0.240447  1 O  s          
     5      0.226762  1 O  pz         

 Vector    9  Occ=0.000000D+00  E= 7.839350D-01
              MO Center= -2.9D-03, -7.4D-06, -1.2D+00, r^2= 3.8D+00
   Bfn.  Coefficient  Atom+Function         Bfn.  Coefficient  Atom+Function  
  ----- ------------  ---------------      ----- ------------  ---------------
    17     -0.981374  2 H  s                 19      0.981375  3 H  s          
    16      0.896011  2 H  s                 18     -0.896020  3 H  s          
     8      0.430832  1 O  py                 4     -0.177562  1 O  py         

 Vector   10  Occ=0.000000D+00  E= 8.447809D-01
              MO Center=  4.0D-04, -8.9D-06,  1.7D-01, r^2= 2.1D+00
   Bfn.  Coefficient  Atom+Function         Bfn.  Coefficient  Atom+Function  
  ----- ------------  ---------------      ----- ------------  ---------------
     6      2.262204  1 O  s                  2     -1.222604  1 O  s          
    17     -0.457214  2 H  s                 19     -0.457224  3 H  s          
    10     -0.406776  1 O  dxx               15     -0.403323  1 O  dzz        
    13     -0.399078  1 O  dyy                5     -0.368986  1 O  pz         
     9      0.300348  1 O  pz                16      0.286194  2 H  s          

 Vector   11  Occ=0.000000D+00  E= 8.939558D-01
              MO Center= -2.2D-06,  1.7D-08, -6.9D-04, r^2= 1.2D+00
   Bfn.  Coefficient  Atom+Function         Bfn.  Coefficient  Atom+Function  
  ----- ------------  ---------------      ----- ------------  ---------------
     7      1.054880  1 O  px                 3     -0.937824  1 O  px         

 Vector   12  Occ=0.000000D+00  E= 9.668315D-01
              MO Center= -1.1D-03, -5.1D-05, -4.7D-01, r^2= 1.2D+00
   Bfn.  Coefficient  Atom+Function         Bfn.  Coefficient  Atom+Function  
  ----- ------------  ---------------      ----- ------------  ---------------
     6      1.217412  1 O  s                  9     -1.040021  1 O  pz         
     5      0.846749  1 O  pz                 2     -0.678784  1 O  s          
    13     -0.229581  1 O  dyy               15     -0.200747  1 O  dzz        
    17     -0.199843  2 H  s                 19     -0.199867  3 H  s          
    10     -0.176475  1 O  dxx        

 Vector   13  Occ=0.000000D+00  E= 9.746887D-01
              MO Center=  5.5D-05,  5.3D-05,  2.3D-02, r^2= 1.3D+00
   Bfn.  Coefficient  Atom+Function         Bfn.  Coefficient  Atom+Function  
  ----- ------------  ---------------      ----- ------------  ---------------
     8      1.129602  1 O  py                 4     -0.936269  1 O  py         
    16     -0.207024  2 H  s                 18      0.206988  3 H  s          

 Vector   14  Occ=0.000000D+00  E= 1.795828D+00
              MO Center=  2.2D-05, -1.5D-07,  9.4D-03, r^2= 6.2D-01
   Bfn.  Coefficient  Atom+Function         Bfn.  Coefficient  Atom+Function  
  ----- ------------  ---------------      ----- ------------  ---------------
    15     -0.885769  1 O  dzz               13      0.844736  1 O  dyy        

 Vector   15  Occ=0.000000D+00  E= 1.815659D+00
              MO Center=  6.2D-06, -1.2D-07, -1.7D-08, r^2= 6.1D-01
   Bfn.  Coefficient  Atom+Function         Bfn.  Coefficient  Atom+Function  
  ----- ------------  ---------------      ----- ------------  ---------------
    11      1.732033  1 O  dxy        


 center of mass
 --------------
 x =  -0.00055740 y =   0.00000000 z =  -0.23411776

 moments of inertia (a.u.)
 ------------------
          22.552844630886          -0.027128603419          -0.018650634212
          -0.027128603419           7.833716565984           0.000000000000
          -0.018650634212           0.000000000000          14.719316873413

     Multipole analysis of the density
     ---------------------------------

     L   x y z        total         alpha         beta         nuclear
     -   - - -        -----         -----         ----         -------
     0   0 0 0      0.000000     -5.000000     -5.000000     10.000000

     1   1 0 0     -0.001662      0.004150      0.004150     -0.009961
     1   0 1 0      0.000004      0.000002      0.000002      0.000000
     1   0 0 1     -0.697688      1.743082      1.743082     -4.183853

     2   2 0 0     -6.117539     -3.058819     -3.058819      0.000099
     2   1 1 0      0.007003     -0.009958     -0.009958      0.026918
     2   1 0 1      0.005737     -0.007550     -0.007550      0.020838
     2   0 2 0     -2.318303     -8.461621     -8.461621     14.604939
     2   0 1 1     -0.000010     -0.000005     -0.000005      0.000000
     2   0 0 2     -3.707576     -6.229945     -6.229945      8.752314

 Entering AOResponse driver routine


--------------------------------------------------------------------------------

          ****************
          *** RESPONSE ***
          ****************

 Response module for NWChem and dynamic CPKS solver
 developed by J. Autschbach and coworkers, SUNY Buffalo
 The methodology used in this program is described in 
 J. Chem. Phys. 123 (2005), 114103
 J. Chem. Phys. 122 (2005), 224115
 J. Chem. Phys. 122 (2005), 074105
 Comp. Lett. 3 (2007), 131-150 (contact JA for a copy)
 Please cite this work in publications based on results
 obtained with this code. Thank you!
 For updated response module please acknowledge:
 F. Aquino, Northwestern University, Schatz Rsrch Group
 (version June 9th,2012)
 ++++++++++++++++++++++++++++++++++++++++++++++++++++++

          -----------------------------------------------
          Solving response equations for perturbing field
          -----------------------------------------------

 number of frequencies:     1
 frequency in a.u.:  0.7215362E-01
 Perturbing field: electric
 Using Dipole Length Gauge

 Applying DAMPING constant of  0.004000 a.u.

 Setting up CPKS
 with frequency omega =      0.07215362 a.u.
 and a damping of            0.00400000 a.u.


                            NWChem Dynamic CPHF Module
                            --------------------------


    scftype = RHF 
    nclosed =    5
      nopen =    0
  variables =      280
  num. vecs =        3
  tolerance =   1.0D-06
  max. iter =   60

 SCF residual:   1.949026631913944E-006


Iterative solution of linear equations
  No. of variables      140
  No. of equations        3
  Maximum subspace       33
       Convergence  1.0D-06
        Start time     15.3


   iter   nsub   residual    time 
   ----  ------  --------  --------- 
 dft_CPHF2_read: failed to open./h2o_raman_5.aoresp_fiao_f1
File ./h2o_raman_5.aoresp_fiao_f1 does not exist, proceed to generate (z1,Az1)
     1      3    2.21D+01      15.9
     2      6    2.96D+00      16.4
     3      9    1.52D+00      17.0
     4     12    1.00D-01      17.6
     5     15    1.79D-02      18.2
     6     18    3.76D-03      18.8
     7     21    6.52D-05      19.4
     8     24    6.16D-06      20.0
     9     27    1.08D-05      20.5
    10     30    3.14D-07      21.1
 Electric Dipole Response Matrix (nonzero elements):

              1        2        3      
    1    2.0068   0.0741   0.0299
    2    0.0741  42.1934   0.0000
    3    0.0299   0.0000  14.5619

 DFT Linear Response polarizability / au 
 Frequency  =       0.0721536 / au
 Wavelength =     631.4769883 / nm
              X              Y              Z
 -----------------------------------------------
 X       2.0067641      0.0740660      0.0298931
 Y       0.0740660     42.1933695      0.0000045
 Z       0.0298931      0.0000045     14.5619045
 -----------------------------------------------
 Eigenvalues =       2.0065565     42.1935060     14.5619756
 Isotropic   =      19.5873460
 Anisotropic =      35.6099069
 -----------------------------------------------

 Imaginary part:

              1        2        3      
    1    0.0721   0.0009   0.0001
    2    0.0009   0.5762   0.0000
    3    0.0001   0.0000   0.1223

 average:    19.5873460465624       + I   0.256850842920429     

 Magnetic Dipole Response Matrix (nonzero elements):
 Optical rotation tensor Beta

              1        2        3      
    1    0.0605  25.6093  -0.0011
    2    7.2271  -0.0603  -0.0174
    3   -0.0002  -0.0612   0.0001

 Imaginary part:

              1        2        3      
    1   -0.0140  -8.2303   0.0001
    2    0.6183   0.0140  -0.0015
    3    0.0000   0.0197   0.0000
 average:   1.128583635993362E-004  + I  -1.908875799079407E-005

 Principal components and PAS (Real part)
               25.6096
              -25.6093
                0.0001
 ---------------------
 average:       0.0001

              1        2        3      
    1    0.7079  -0.7063   0.0007
    2    0.7063   0.7079   0.0000
    3   -0.0005   0.0005   1.0000
 Exiting AOResponse driver routine
 Stepsize :  1.003904875971822E-002

    0.00  REAL                     104.247826
    0.00  IMAGINARY                  0.014359
    0.00  TOTAL                    104.262186

 Writing mini:./h2o_raman_5.raman_0007-0009_nblock                                                                                                                                                                                                                           
Writing modecounter=    1
(ii,rminfo(ii,1))=(    8,     0.00000000)
 ramanpolfile=./h2o_raman_5.ramanpol_0002-1                                                                                                                                                                                                                                  
 ramanpol_read: failed to open ./h2o_raman_5.ramanpol_0002-1
                              NWChem Property Module
                              ----------------------


                                    h2o_raman_5


                                 NWChem DFT Module
                                 -----------------


                                    h2o_raman_5


  Caching 1-el integrals 

            General Information
            -------------------
          SCF calculation type: DFT
          Wavefunction type:  closed shell.
          No. of atoms     :     3
          No. of electrons :    10
           Alpha electrons :     5
            Beta electrons :     5
          Charge           :     0
          Spin multiplicity:     1
          Use of symmetry is: off; symmetry adaption is: off
          Maximum number of iterations: 100
          This is a Direct SCF calculation.
          AO basis - number of functions:    19
                     number of shells:    10
          Convergence on energy requested: 1.00D-08
          Convergence on density requested: 1.00D-05
          Convergence on gradient requested: 1.00D-04

              XC Information
              --------------
                         B3LYP Method XC Potential
                     Hartree-Fock (Exact) Exchange  0.200          
                        Slater Exchange Functional  0.800 local    
                    Becke 1988 Exchange Functional  0.720 non-local
              Lee-Yang-Parr Correlation Functional  0.810          
                  VWN I RPA Correlation Functional  0.190 local    

             Grid Information
             ----------------
          Grid used for XC integration:  fine      
          Radial quadrature: Mura-Knowles        
          Angular quadrature: Lebedev. 
          Tag              B.-S. Rad. Rad. Pts. Rad. Cut. Ang. Pts.
          ---              ---------- --------- --------- ---------
          O                   0.60       70           7.0       590
          H                   0.35       60           8.0       590
[...]
          Convergence on density requested: 1.00D-05
          Convergence on gradient requested: 1.00D-04

              XC Information
              --------------
                         B3LYP Method XC Potential
                     Hartree-Fock (Exact) Exchange  0.200          
                        Slater Exchange Functional  0.800 local    
                    Becke 1988 Exchange Functional  0.720 non-local
              Lee-Yang-Parr Correlation Functional  0.810          
                  VWN I RPA Correlation Functional  0.190 local    

             Grid Information
             ----------------
          Grid used for XC integration:  fine      
          Radial quadrature: Mura-Knowles        
          Angular quadrature: Lebedev. 
          Tag              B.-S. Rad. Rad. Pts. Rad. Cut. Ang. Pts.
          ---              ---------- --------- --------- ---------
          O                   0.60       70           7.0       590
          H                   0.35       60           8.0       590
          Grid pruning is: on 
          Number of quadrature shells:   190
          Spatial weights used:  Erf1

          Convergence Information
          -----------------------
          Convergence aids based upon iterative change in 
          total energy or number of iterations. 
          Levelshifting, if invoked, occurs when the 
          HOMO/LUMO gap drops below (HL_TOL): 1.00D-02
          DIIS, if invoked, will attempt to extrapolate 
          using up to (NFOCK): 10 stored Fock matrices.

                    Damping( 0%)  Levelshifting(0.0)       DIIS
                  --------------- ------------------- ---------------
          dE  on:    start             N/A                start   
          dE off:    2 iters           N/A              100 iters 


      Screening Tolerance Information
      -------------------------------
          Density screening/tol_rho: 1.00D-11
          AO Gaussian exp screening on grid/accAOfunc:  18
          CD Gaussian exp screening on grid/accCDfunc:  20
          XC Gaussian exp screening on grid/accXCfunc:  20
          Schwarz screening/accCoul: 1.00D-09


 Loading old vectors from job with title :

h2o_raman_5

   Time after variat. SCF:     38.0
   Time prior to 1st pass:     38.0

 Grid_pts file          = ./h2o_raman_5.gridpts.0
 Record size in doubles =  12289        No. of grid_pts per rec  =   3070
 Max. records in memory =     12        Max. recs in file   =     36801


           Memory utilization after 1st SCF pass: 
           Heap Space remaining (MW):      130.92           130922971
          Stack Space remaining (MW):      131.07           131071642

   convergence    iter        energy       DeltaE   RMS-Dens  Diis-err    time
 ---------------- ----- ----------------- --------- --------- ---------  ------
 d= 0,ls=0.0,diis     1    -76.1148296944 -8.10D+01  9.39D-05  8.01D-07    38.1
  Resetting Diis
 d= 0,ls=0.0,diis     2    -76.1148296830  1.14D-08  5.73D-05  2.75D-06    38.2
 d= 0,ls=0.0,diis     3    -76.1148299619 -2.79D-07  1.09D-04  6.53D-07    38.3
 d= 0,ls=0.0,diis     4    -76.1148282828  1.68D-06  9.03D-05  1.45D-05    38.4
 d= 0,ls=0.0,diis     5    -76.1148300475 -1.76D-06  5.79D-06  6.14D-09    38.6
 d= 0,ls=0.0,diis     6    -76.1148300488 -1.26D-09  1.61D-06  2.66D-09    38.7


         Total DFT energy =      -76.114830048780
      One electron energy =     -114.611421326801
           Coulomb energy =       42.556676844426
    Exchange-Corr. energy =       -8.927689815657
 Nuclear repulsion energy =        4.867604249253

 Numeric. integr. density =       10.000000171261

     Total iterative time =      0.7s



                       DFT Final Molecular Orbital Analysis
                       ------------------------------------

 Vector    1  Occ=2.000000D+00  E=-1.922497D+01
              MO Center= -7.6D-14,  4.0D-11, -4.1D-04, r^2= 1.5D-02
   Bfn.  Coefficient  Atom+Function         Bfn.  Coefficient  Atom+Function  
  ----- ------------  ---------------      ----- ------------  ---------------
     1      0.993138  1 O  s          

 Vector    2  Occ=2.000000D+00  E=-8.793928D-01
              MO Center= -2.3D-11,  7.7D-08, -3.9D-02, r^2= 4.9D-01
   Bfn.  Coefficient  Atom+Function         Bfn.  Coefficient  Atom+Function  
  ----- ------------  ---------------      ----- ------------  ---------------
     6      0.554014  1 O  s                  2      0.532511  1 O  s          
     1     -0.233409  1 O  s          

 Vector    3  Occ=2.000000D+00  E=-3.506477D-01
              MO Center= -4.0D-12,  3.7D-06, -4.6D-01, r^2= 1.8D+00
   Bfn.  Coefficient  Atom+Function         Bfn.  Coefficient  Atom+Function  
  ----- ------------  ---------------      ----- ------------  ---------------
     4      0.476967  1 O  py                 8      0.318217  1 O  py         
    17      0.272443  2 H  s                 19     -0.272441  3 H  s          
    16      0.183975  2 H  s                 18     -0.183974  3 H  s          

 Vector    4  Occ=2.000000D+00  E=-3.295447D-01
              MO Center= -1.0D-11, -3.0D-06, -4.2D-01, r^2= 1.7D+00
   Bfn.  Coefficient  Atom+Function         Bfn.  Coefficient  Atom+Function  
  ----- ------------  ---------------      ----- ------------  ---------------
     5      0.489469  1 O  pz                 9      0.332610  1 O  pz         
    17     -0.275480  2 H  s                 19     -0.275482  3 H  s          
    16     -0.176314  2 H  s                 18     -0.176315  3 H  s          

 Vector    5  Occ=2.000000D+00  E=-2.867087D-01
              MO Center=  1.3D-11,  1.0D-08, -4.5D-03, r^2= 5.6D-01
   Bfn.  Coefficient  Atom+Function         Bfn.  Coefficient  Atom+Function  
  ----- ------------  ---------------      ----- ------------  ---------------
     3      0.675642  1 O  px                 7      0.472493  1 O  px         

 Vector    6  Occ=0.000000D+00  E=-1.505978D-01
              MO Center=  1.1D-11,  4.8D-06, -6.8D-01, r^2= 2.4D+00
   Bfn.  Coefficient  Atom+Function         Bfn.  Coefficient  Atom+Function  
  ----- ------------  ---------------      ----- ------------  ---------------
     5      0.461254  1 O  pz                17      0.444897  2 H  s          
    19      0.444894  3 H  s                  9      0.378283  1 O  pz         
    16      0.215482  2 H  s                 18      0.215481  3 H  s          
     6     -0.194302  1 O  s          

 Vector    7  Occ=0.000000D+00  E=-1.221222D-01
              MO Center= -1.3D-12, -5.6D-06, -6.8D-01, r^2= 2.5D+00
   Bfn.  Coefficient  Atom+Function         Bfn.  Coefficient  Atom+Function  
  ----- ------------  ---------------      ----- ------------  ---------------
     4      0.485443  1 O  py                17     -0.460684  2 H  s          
    19      0.460687  3 H  s                  8      0.406895  1 O  py         
    16     -0.228315  2 H  s                 18      0.228316  3 H  s          

 Vector    8  Occ=0.000000D+00  E= 7.080836D-01
              MO Center= -7.7D-12,  5.0D-06, -9.6D-01, r^2= 3.5D+00
   Bfn.  Coefficient  Atom+Function         Bfn.  Coefficient  Atom+Function  
  ----- ------------  ---------------      ----- ------------  ---------------
    16      0.844103  2 H  s                 18      0.844100  3 H  s          
    17     -0.801609  2 H  s                 19     -0.801606  3 H  s          
     9     -0.370282  1 O  pz                 2      0.240791  1 O  s          
     5      0.226518  1 O  pz         

 Vector    9  Occ=0.000000D+00  E= 7.835844D-01
              MO Center= -1.8D-15, -3.8D-06, -1.2D+00, r^2= 3.8D+00
   Bfn.  Coefficient  Atom+Function         Bfn.  Coefficient  Atom+Function  
  ----- ------------  ---------------      ----- ------------  ---------------
    17     -0.981162  2 H  s                 19      0.981164  3 H  s          
    16      0.895683  2 H  s                 18     -0.895686  3 H  s          
     8      0.432044  1 O  py                 4     -0.178409  1 O  py         

 Vector   10  Occ=0.000000D+00  E= 8.449627D-01
              MO Center= -7.0D-11, -8.9D-07,  1.7D-01, r^2= 2.1D+00
   Bfn.  Coefficient  Atom+Function         Bfn.  Coefficient  Atom+Function  
  ----- ------------  ---------------      ----- ------------  ---------------
     6      2.261997  1 O  s                  2     -1.222343  1 O  s          
    17     -0.457659  2 H  s                 19     -0.457660  3 H  s          
    10     -0.406695  1 O  dxx               15     -0.403246  1 O  dzz        
    13     -0.398951  1 O  dyy                5     -0.369434  1 O  pz         
     9      0.301009  1 O  pz                16      0.286364  2 H  s          

 Vector   11  Occ=0.000000D+00  E= 8.939826D-01
              MO Center= -3.7D-11,  3.3D-09, -1.1D-03, r^2= 1.2D+00
   Bfn.  Coefficient  Atom+Function         Bfn.  Coefficient  Atom+Function  
  ----- ------------  ---------------      ----- ------------  ---------------
     7      1.054874  1 O  px                 3     -0.937842  1 O  px         

 Vector   12  Occ=0.000000D+00  E= 9.665374D-01
              MO Center=  1.1D-10,  1.8D-06, -4.7D-01, r^2= 1.2D+00
   Bfn.  Coefficient  Atom+Function         Bfn.  Coefficient  Atom+Function  
  ----- ------------  ---------------      ----- ------------  ---------------
     6      1.218435  1 O  s                  9     -1.039576  1 O  pz         
     5      0.846587  1 O  pz                 2     -0.679275  1 O  s          
    13     -0.229921  1 O  dyy               15     -0.200771  1 O  dzz        
    17     -0.200045  2 H  s                 19     -0.200045  3 H  s          
    10     -0.176713  1 O  dxx        

 Vector   13  Occ=0.000000D+00  E= 9.750976D-01
              MO Center=  1.3D-12, -2.1D-06,  2.3D-02, r^2= 1.3D+00
   Bfn.  Coefficient  Atom+Function         Bfn.  Coefficient  Atom+Function  
  ----- ------------  ---------------      ----- ------------  ---------------
     8      1.129707  1 O  py                 4     -0.936171  1 O  py         
    16     -0.207944  2 H  s                 18      0.207945  3 H  s          

 Vector   14  Occ=0.000000D+00  E= 1.795909D+00
              MO Center=  1.1D-11, -1.1D-08,  9.1D-03, r^2= 6.2D-01
   Bfn.  Coefficient  Atom+Function         Bfn.  Coefficient  Atom+Function  
  ----- ------------  ---------------      ----- ------------  ---------------
    15     -0.885903  1 O  dzz               13      0.844592  1 O  dyy        

 Vector   15  Occ=0.000000D+00  E= 1.815648D+00
              MO Center= -1.5D-09, -8.7D-09, -3.7D-04, r^2= 6.1D-01
   Bfn.  Coefficient  Atom+Function         Bfn.  Coefficient  Atom+Function  
  ----- ------------  ---------------      ----- ------------  ---------------
    11      1.732051  1 O  dxy        


 center of mass
 --------------
 x =   0.00000000 y =   0.00000000 z =  -0.23411776

 moments of inertia (a.u.)
 ------------------
          22.549386509200           0.000000000000           0.000000000000
           0.000000000000           7.787264451536           0.000000001317
           0.000000000000           0.000000001317          14.762122057664

     Multipole analysis of the density
     ---------------------------------

     L   x y z        total         alpha         beta         nuclear
     -   - - -        -----         -----         ----         -------
     0   0 0 0      0.000000     -5.000000     -5.000000     10.000000

     1   1 0 0      0.000000      0.000000      0.000000      0.000000
     1   0 1 0     -0.000003     -0.000001     -0.000001      0.000000
     1   0 0 1     -0.695865      1.741264      1.741264     -4.178393

     2   2 0 0     -6.117395     -3.058698     -3.058698      0.000000
     2   1 1 0      0.000000      0.000000      0.000000      0.000000
     2   1 0 1      0.000000      0.000000      0.000000      0.000000
     2   0 2 0     -2.306182     -8.476844     -8.476844     14.647505
     2   0 1 1      0.000005      0.000003      0.000003      0.000000
     2   0 0 2     -3.718262     -6.212288     -6.212288      8.706313

 Entering AOResponse driver routine


--------------------------------------------------------------------------------

          ****************
          *** RESPONSE ***
          ****************

 Response module for NWChem and dynamic CPKS solver
 developed by J. Autschbach and coworkers, SUNY Buffalo
 The methodology used in this program is described in 
 J. Chem. Phys. 123 (2005), 114103
 J. Chem. Phys. 122 (2005), 224115
 J. Chem. Phys. 122 (2005), 074105
 Comp. Lett. 3 (2007), 131-150 (contact JA for a copy)
 Please cite this work in publications based on results
 obtained with this code. Thank you!
 For updated response module please acknowledge:
 F. Aquino, Northwestern University, Schatz Rsrch Group
 (version June 9th,2012)
 ++++++++++++++++++++++++++++++++++++++++++++++++++++++

          -----------------------------------------------
          Solving response equations for perturbing field
          -----------------------------------------------

 number of frequencies:     1
 frequency in a.u.:  0.7215362E-01
 Perturbing field: electric
 Using Dipole Length Gauge

 Applying DAMPING constant of  0.004000 a.u.

 Setting up CPKS
 with frequency omega =      0.07215362 a.u.
 and a damping of            0.00400000 a.u.


                            NWChem Dynamic CPHF Module
                            --------------------------


    scftype = RHF 
    nclosed =    5
      nopen =    0
  variables =      280
  num. vecs =        3
  tolerance =   1.0D-06
  max. iter =   60

 SCF residual:   7.036731268522188E-006


Iterative solution of linear equations
  No. of variables      140
  No. of equations        3
  Maximum subspace       33
       Convergence  1.0D-06
        Start time     43.4


   iter   nsub   residual    time 
   ----  ------  --------  --------- 
 dft_CPHF2_read: failed to open./h2o_raman_5.aoresp_fiao_f1
File ./h2o_raman_5.aoresp_fiao_f1 does not exist, proceed to generate (z1,Az1)
     1      3    2.21D+01      44.0
     2      6    2.96D+00      44.6
     3      9    1.53D+00      45.2
     4     12    9.97D-02      45.8
     5     15    1.79D-02      46.3
     6     18    3.74D-03      46.9
     7     21    6.49D-05      47.5
     8     24    6.15D-06      48.1
     9     27    9.69D-07      48.7
 Electric Dipole Response Matrix (nonzero elements):

              1        2        3      
    1    2.0077   0.0000   0.0000
    2    0.0000  42.2728   0.0000
    3    0.0000   0.0000  14.5012

 DFT Linear Response polarizability / au 
 Frequency  =       0.0721536 / au
 Wavelength =     631.4769883 / nm
              X              Y              Z
 -----------------------------------------------
 X       2.0076655      0.0000000      0.0000000
 Y       0.0000000     42.2727600     -0.0000001
 Z       0.0000000     -0.0000001     14.5011723
 -----------------------------------------------
 Eigenvalues =       2.0076655     42.2727600     14.5011723
 Isotropic   =      19.5938659
 Anisotropic =      35.6975254
 -----------------------------------------------

 Imaginary part:

              1        2        3      
    1    0.0713   0.0000   0.0000
    2    0.0000   0.5766   0.0000
    3    0.0000   0.0000   0.1221

 average:    19.5938659203020       + I   0.256667374993398     

 Magnetic Dipole Response Matrix (nonzero elements):
 Optical rotation tensor Beta

              1        2        3      
    1    0.0000  25.4774  -0.0001
    2    7.1588   0.0000   0.0000
    3    0.0000   0.0000   0.0000

 Imaginary part:

              1        2        3      
    1    0.0000  -8.1254   0.0000
    2    0.6093   0.0000   0.0000
    3    0.0000   0.0000   0.0000
 average:  -1.621600560338166E-007  + I  -7.562860594157113E-008

 Exiting AOResponse driver routine
 Stepsize :  1.042196574259340E-002

 1021.03  REAL                      76.086945
 1021.03  IMAGINARY                  0.006302
 1021.03  TOTAL                     76.093246

 Writing mini:./h2o_raman_5.raman_0007-0009_nblock                                                                                                                                                                                                                           
Writing modecounter=    3
 Showing rminfo:
(start,last,rmmodes,nfreq,plot,width)=(   1,   9,   3,   1,normal          ,    20.00000000)
rminfo(   1)=(     0.00000000,   104.24782625,     0.01435929,   104.26218554)
rminfo(   2)=(     0.00000934,     5.02244273,     0.00137156,     5.02381429)
rminfo(   3)=(  1021.03012898,    76.08694456,     0.00630165,    76.09324621)

 Raman scattering data written to ./h2o_raman_5.normal


 Task  times  cpu:       44.0s     wall:       47.5s


                                NWChem Input Module
                                -------------------


 Summary of allocated global arrays
-----------------------------------
  No active global arrays



                         GA Statistics for process    0
                         ------------------------------

       create   destroy   get      put      acc     scatter   gather  read&inc
calls: 8803     8803     4.95e+05 4.49e+05 1.58e+05 6434        0        0     
number of processes/call 1.06e+00 1.05e+00 1.47e+00 1.60e+00 0.00e+00
bytes total:             1.13e+08 1.67e+07 6.72e+07 2.37e+06 0.00e+00 0.00e+00
bytes remote:            4.93e+07 4.50e+06 4.59e+07 -1.38e+06 0.00e+00 0.00e+00
Max memory consumed for GA by this process: 138456 bytes

MA_summarize_allocated_blocks: starting scan ...
MA_summarize_allocated_blocks: scan completed: 0 heap blocks, 0 stack blocks
MA usage statistics:

	allocation statistics:
					      heap	     stack
					      ----	     -----
	current number of blocks	         0	         0
	maximum number of blocks	        24	        52
	current total bytes		         0	         0
	maximum total bytes		   1192104	  65540704
	maximum total K-bytes		      1193	     65541
	maximum total M-bytes		         2	        66


                                     CITATION
                                     --------
                Please cite the following reference when publishing
                           results obtained with NWChem:

                 M. Valiev, E.J. Bylaska, N. Govind, K. Kowalski,
              T.P. Straatsma, H.J.J. van Dam, D. Wang, J. Nieplocha,
                        E. Apra, T.L. Windus, W.A. de Jong
                 "NWChem: a comprehensive and scalable open-source
                  solution for large scale molecular simulations"
                      Comput. Phys. Commun. 181, 1477 (2010)
                           doi:10.1016/j.cpc.2010.04.018

                              AUTHORS & CONTRIBUTORS
                              ----------------------
          E. Apra, E. J. Bylaska, W. A. de Jong, N. Govind, K. Kowalski,
       T. P. Straatsma, M. Valiev, H. J. J. van Dam, D. Wang, T. L. Windus,
    J. Hammond, J. Autschbach, F. Aquino, S. Hirata, M. T. Hackler, K. Lopata,
      J. Mullin, P. Nichols, R. Peverati, Y. Zhao, P.-D. Fan, R. J. Harrison,
        M. Dupuis, D. M. A. Smith, J. Nieplocha, V. Tipparaju, M. Krishnan,
       B. E. Van Kuiken, A. Vazquez-Mayagoitia, L. Jensen, M. Swart, Q. Wu,
   T. Van Voorhis, A. A. Auer, M. Nooijen, L. D. Crosby, E. Brown, G. Cisneros,
      G. I. Fann, H. Fruchtl, J. Garza, K. Hirao, R. Kendall, J. A. Nichols,
        K. Tsemekhman, K. Wolinski, J. Anchell, D. Bernholdt, P. Borowski,
  T. Clark, D. Clerc, H. Dachsel, M. Deegan, K. Dyall, D. Elwood, E. Glendening,
         M. Gutowski, A. Hess, J. Jaffe, B. Johnson, J. Ju, R. Kobayashi,
     R. Kutteh, Z. Lin, R. Littlefield, X. Long, B. Meng, T. Nakajima, S. Niu,
      L. Pollack, M. Rosing, K. Glaesemann, G. Sandrone, M. Stave, H. Taylor,
                  G. Thomas, J. H. van Lenthe, A. Wong, Z. Zhang.

 Total times  cpu:       44.0s     wall:       48.7s
