All connections between all procs tested: SUCCESS
 argument  1 = nwxc_nwdft_4p.nw



============================== echo of input deck ==============================
# $Id: nwxc_nwdft_4p.nw 23458 2013-01-16 22:48:03Z d3y133 $
echo
start nwxc_dat

geometry
  P 0.0 0.0 0.0
end

# Basis set by N Godbout, DR Salahub, J Andzelm, E Wimmer,
# Can J Chem 70, 560 (1992), DOI: 10.1139/v92-079.
basis
P    S
  20024.9360000             -0.0017787
   2999.4410000             -0.0136541
    679.0868000             -0.0681442
    189.9438900             -0.2336137
     60.6834770             -0.4757401
     20.3982250             -0.3535470
P    S
     40.5941630             -0.0922427
      4.1972196              0.5774677
      1.5192955              0.4983773
P    S
      2.4458587              0.1631695
      0.3116158             -0.6787174
P    S
      0.1120101              1.0000000
P    P
    195.3993700             -0.0116298
     45.6667490             -0.0811413
     14.0730670             -0.2837706
      4.7572427             -0.5004074
      1.6035065             -0.3357758
P    P
      0.7039432             -0.2471697
      0.2451145             -0.5552025
P    P
      0.0831324              1.0000000
P    D
      0.5500000              1.0000000
end

# LDA exchange

dft
  mult 4
  odft
  vectors input atomic
  xc slater
end
task dft energy

# GGA exchange

dft
  mult 4
  odft
  vectors input atomic
  xc xpbe96
end
task dft energy

# meta-GGA exchange

dft
  mult 4
  odft
  vectors input atomic
  xc xvs98
end
task dft energy

# Hartree-Fock exchange + LDA(PW91) correlation

dft
  mult 4
  odft
  vectors input atomic
  xc hfexch pw91lda
end
task dft energy

# Hartree-Fock exchange + GGA correlation

dft
  mult 4
  odft
  vectors input atomic
  xc hfexch cpbe96
end
task dft energy

# Hartree-Fock exchange + meta-GGA correlation

dft
  mult 4
  odft
  vectors input atomic
  xc hfexch cvs98
end
task dft energy

# GGA exchange-correlation

dft
  mult 4
  odft
  vectors input atomic
  xc revpbe
end
task dft energy

dft
  mult 4
  odft
  vectors input atomic
  xc rpbe
end
task dft energy
================================================================================


                                         
                                         


             Northwest Computational Chemistry Package (NWChem) 6.1.1
             --------------------------------------------------------


                    Environmental Molecular Sciences Laboratory
                       Pacific Northwest National Laboratory
                                Richland, WA 99352

                              Copyright (c) 1994-2012
                       Pacific Northwest National Laboratory
                            Battelle Memorial Institute

             NWChem is an open-source computational chemistry package
                        distributed under the terms of the
                      Educational Community License (ECL) 2.0
             A copy of the license is included with this distribution
                              in the LICENSE.TXT file

                                  ACKNOWLEDGMENT
                                  --------------

            This software and its documentation were developed at the
            EMSL at Pacific Northwest National Laboratory, a multiprogram
            national laboratory, operated for the U.S. Department of Energy
            by Battelle under Contract Number DE-AC05-76RL01830. Support
            for this work was provided by the Department of Energy Office
            of Biological and Environmental Research, Office of Basic
            Energy Sciences, and the Office of Advanced Scientific Computing.


           Job information
           ---------------

    hostname        = arcen
    program         = /home/d3y133/nwchem-dev/nwchem-ref/QA/../bin/LINUX64/nwchem
    date            = Wed Feb 20 15:29:31 2013

    compiled        = Sun_Feb_03_17:58:08_2013
    source          = /home/d3y133/nwchem-dev/nwchem-ref
    nwchem branch   = Development
    nwchem revision = 23457
    ga revision     = 10183
    input           = nwxc_nwdft_4p.nw
    prefix          = nwxc_dat.
    data base       = /home/d3y133/nwchem-dev/nwchem-ref/QA/scratchdir/nwxc_dat.db
    status          = startup
    nproc           =        4
    time left       =     -1s



           Memory information
           ------------------

    heap     =   13107201 doubles =    100.0 Mbytes
    stack    =   13107201 doubles =    100.0 Mbytes
    global   =   26214400 doubles =    200.0 Mbytes (distinct from heap & stack)
    total    =   52428802 doubles =    400.0 Mbytes
    verify   = yes
    hardfail = no 


           Directory information
           ---------------------

  0 permanent = /home/d3y133/nwchem-dev/nwchem-ref/QA/scratchdir
  0 scratch   = /home/d3y133/nwchem-dev/nwchem-ref/QA/scratchdir




                                NWChem Input Module
                                -------------------



 Scaling coordinates for geometry "geometry" by  1.889725989
 (inverse scale =  0.529177249)



                             Geometry "geometry" -> ""
                             -------------------------

 Output coordinates in angstroms (scale by  1.889725989 to convert to a.u.)

  No.       Tag          Charge          X              Y              Z
 ---- ---------------- ---------- -------------- -------------- --------------
    1 P                   15.0000     0.00000000     0.00000000     0.00000000

      Atomic Mass 
      ----------- 

      P                 30.973760


 Effective nuclear repulsion energy (a.u.)       0.0000000000

            Nuclear Dipole moment (a.u.) 
            ----------------------------
        X                 Y               Z
 ---------------- ---------------- ----------------
     0.0000000000     0.0000000000     0.0000000000


            XYZ format geometry
            -------------------
     1
 geometry
 P                     0.00000000     0.00000000     0.00000000

  library name resolved from: environment
  library file name is: </home/d3y133/nwchem-dev/nwchem-ref/QA/../src/basis/libraries/>
  
                      Basis "ao basis" -> "" (cartesian)
                      -----
  P (Phosphorous)
  ---------------
            Exponent  Coefficients 
       -------------- ---------------------------------------------------------
  1 S  2.00249360E+04 -0.001779
  1 S  2.99944100E+03 -0.013654
  1 S  6.79086800E+02 -0.068144
  1 S  1.89943890E+02 -0.233614
  1 S  6.06834770E+01 -0.475740
  1 S  2.03982250E+01 -0.353547

  2 S  4.05941630E+01 -0.092243
  2 S  4.19721960E+00  0.577468
  2 S  1.51929550E+00  0.498377

  3 S  2.44585870E+00  0.163170
  3 S  3.11615800E-01 -0.678717

  4 S  1.12010100E-01  1.000000

  5 P  1.95399370E+02 -0.011630
  5 P  4.56667490E+01 -0.081141
  5 P  1.40730670E+01 -0.283771
  5 P  4.75724270E+00 -0.500407
  5 P  1.60350650E+00 -0.335776

  6 P  7.03943200E-01 -0.247170
  6 P  2.45114500E-01 -0.555203

  7 P  8.31324000E-02  1.000000

  8 D  5.50000000E-01  1.000000



 Summary of "ao basis" -> "" (cartesian)
 ------------------------------------------------------------------------------
       Tag                 Description            Shells   Functions and Types
 ---------------- ------------------------------  ------  ---------------------
 P                       user specified              8       19   4s3p1d



                                 NWChem DFT Module
                                 -----------------


  Caching 1-el integrals 

            General Information
            -------------------
          SCF calculation type: DFT
          Wavefunction type:  spin polarized.
          No. of atoms     :     1
          No. of electrons :    15
           Alpha electrons :     9
            Beta electrons :     6
          Charge           :     0
          Spin multiplicity:     4
          Use of symmetry is: off; symmetry adaption is: off
          Maximum number of iterations:  30
          AO basis - number of functions:    19
                     number of shells:     8
          Convergence on energy requested: 1.00D-06
          Convergence on density requested: 1.00D-05
          Convergence on gradient requested: 5.00D-04

              XC Information
              --------------
                        Slater Exchange Functional  1.000 local    

             Grid Information
             ----------------
          Grid used for XC integration:  medium    
          Radial quadrature: Mura-Knowles        
          Angular quadrature: Lebedev. 
          Tag              B.-S. Rad. Rad. Pts. Rad. Cut. Ang. Pts.
          ---              ---------- --------- --------- ---------
          P                   1.00       88           6.0       590
          Grid pruning is: on 
          Number of quadrature shells:    88
          Spatial weights used:  Erf1

          Convergence Information
          -----------------------
          Convergence aids based upon iterative change in 
          total energy or number of iterations. 
          Levelshifting, if invoked, occurs when the 
          HOMO/LUMO gap drops below (HL_TOL): 1.00D-02
          DIIS, if invoked, will attempt to extrapolate 
          using up to (NFOCK): 10 stored Fock matrices.

                    Damping( 0%)  Levelshifting(0.5)       DIIS
                  --------------- ------------------- ---------------
          dE  on:    start            ASAP                start   
          dE off:    2 iters         30 iters            30 iters 


      Screening Tolerance Information
      -------------------------------
          Density screening/tol_rho: 1.00D-10
          AO Gaussian exp screening on grid/accAOfunc:  14
          CD Gaussian exp screening on grid/accCDfunc:  20
          XC Gaussian exp screening on grid/accXCfunc:  20
          Schwarz screening/accCoul: 1.00D-08


      Superposition of Atomic Density Guess
      -------------------------------------

 Sum of atomic energies:        -340.59105084

      Non-variational initial energy
      ------------------------------

 Total energy =    -340.302856
 1-e energy   =    -471.084403
 2-e energy   =     130.781547
 HOMO         =      -0.168362
 LUMO         =      -0.168362

   Time after variat. SCF:      0.1
   Time prior to 1st pass:      0.1

 #quartets = 6.660D+02 #integrals = 3.754D+03 #direct =  0.0% #cached =100.0%


 Integral file          = /home/d3y133/nwchem-dev/nwchem-ref/QA/scratchdir/nwxc_dat.aoints.0
 Record size in doubles =  65536        No. of integs per rec  =  43688
 Max. records in memory =      2        Max. records in file   =   1477
 No. of bits per label  =      8        No. of bits per value  =     64


File balance: exchanges=     0  moved=     0  time=   0.0


 Grid_pts file          = /home/d3y133/nwchem-dev/nwchem-ref/QA/scratchdir/nwxc_dat.gridpts.0
 Record size in doubles =  12289        No. of grid_pts per rec  =   3070
 Max. records in memory =      6        Max. recs in file   =      7883


           Memory utilization after 1st SCF pass: 
           Heap Space remaining (MW):       12.90            12899962
          Stack Space remaining (MW):       13.11            13106944

   convergence    iter        energy       DeltaE   RMS-Dens  Diis-err    time
 ---------------- ----- ----------------- --------- --------- ---------  ------
 d= 0,ls=0.0,diis     1   -338.8200760348 -3.39D+02  2.24D-02  8.72D-02     0.1
                                                     9.32D-03  7.46D-02
  Resetting Diis
 d= 0,ls=0.0,diis     2   -338.8333497397 -1.33D-02  1.16D-02  4.41D-03     0.2
                                                     6.94D-03  2.03D-03
 d= 0,ls=0.0,diis     3   -338.8357620971 -2.41D-03  7.16D-03  1.68D-03     0.2
                                                     4.14D-03  8.96D-04
 d= 0,ls=0.0,diis     4   -338.8362905046 -5.28D-04  2.93D-03  8.02D-04     0.2
                                                     1.77D-03  4.61D-04
 d= 0,ls=0.0,diis     5   -338.8367834972 -4.93D-04  1.80D-05  2.41D-08     0.3
                                                     1.59D-05  2.03D-08
 d= 0,ls=0.0,diis     6   -338.8367835213 -2.41D-08  2.11D-06  2.63D-10     0.3
                                                     7.40D-07  4.32D-11


         Total DFT energy =     -338.836783521260
      One electron energy =     -470.950819746182
           Coulomb energy =      152.811569961923
    Exchange-Corr. energy =      -20.697533737002
 Nuclear repulsion energy =        0.000000000000

 Numeric. integr. density =       14.999999987782

     Total iterative time =      0.2s



                    DFT Final Alpha Molecular Orbital Analysis
                    ------------------------------------------

 Vector    1  Occ=1.000000D+00  E=-7.597447D+01
              MO Center=  5.8D-18,  3.6D-18,  7.9D-18, r^2= 4.1D-03
   Bfn.  Coefficient  Atom+Function         Bfn.  Coefficient  Atom+Function  
  ----- ------------  ---------------      ----- ------------  ---------------
     1      0.996136  1 P  s          

 Vector    2  Occ=1.000000D+00  E=-6.257637D+00
              MO Center=  1.8D-16, -3.8D-17,  1.0D-16, r^2= 9.2D-02
   Bfn.  Coefficient  Atom+Function         Bfn.  Coefficient  Atom+Function  
  ----- ------------  ---------------      ----- ------------  ---------------
     2      1.037347  1 P  s                  1      0.297489  1 P  s          

 Vector    3  Occ=1.000000D+00  E=-4.508787D+00
              MO Center= -1.3D-16, -4.9D-17, -8.5D-17, r^2= 8.4D-02
   Bfn.  Coefficient  Atom+Function         Bfn.  Coefficient  Atom+Function  
  ----- ------------  ---------------      ----- ------------  ---------------
     5      0.708339  1 P  px                 7      0.571428  1 P  pz         
     6      0.399065  1 P  py         

 Vector    4  Occ=1.000000D+00  E=-4.508787D+00
              MO Center= -2.5D-17, -2.5D-17, -3.5D-17, r^2= 8.4D-02
   Bfn.  Coefficient  Atom+Function         Bfn.  Coefficient  Atom+Function  
  ----- ------------  ---------------      ----- ------------  ---------------
     7      0.770920  1 P  pz                 5     -0.627000  1 P  px         

 Vector    5  Occ=1.000000D+00  E=-4.508787D+00
              MO Center= -8.8D-18,  4.4D-17,  1.1D-17, r^2= 8.4D-02
   Bfn.  Coefficient  Atom+Function         Bfn.  Coefficient  Atom+Function  
  ----- ------------  ---------------      ----- ------------  ---------------
     6      0.910051  1 P  py                 5     -0.304391  1 P  px         
     7     -0.258225  1 P  pz         

 Vector    6  Occ=1.000000D+00  E=-5.071006D-01
              MO Center= -1.8D-15, -1.6D-15, -1.3D-15, r^2= 1.2D+00
   Bfn.  Coefficient  Atom+Function         Bfn.  Coefficient  Atom+Function  
  ----- ------------  ---------------      ----- ------------  ---------------
     3      0.624032  1 P  s                  4     -0.447679  1 P  s          
     2      0.365468  1 P  s          

 Vector    7  Occ=1.000000D+00  E=-2.019091D-01
              MO Center= -2.7D-16, -5.1D-16, -1.6D-16, r^2= 1.9D+00
   Bfn.  Coefficient  Atom+Function         Bfn.  Coefficient  Atom+Function  
  ----- ------------  ---------------      ----- ------------  ---------------
    10      0.636804  1 P  pz                 9     -0.409794  1 P  py         
    13     -0.314883  1 P  pz                 7     -0.228587  1 P  pz         
    12      0.202633  1 P  py         

 Vector    8  Occ=1.000000D+00  E=-2.019091D-01
              MO Center=  1.7D-15,  7.6D-16,  2.8D-16, r^2= 1.9D+00
   Bfn.  Coefficient  Atom+Function         Bfn.  Coefficient  Atom+Function  
  ----- ------------  ---------------      ----- ------------  ---------------
     8      0.627265  1 P  px                 9      0.370907  1 P  py         
    11     -0.310167  1 P  px                 5     -0.225162  1 P  px         
    10      0.208258  1 P  pz                12     -0.183404  1 P  py         

 Vector    9  Occ=1.000000D+00  E=-2.019091D-01
              MO Center= -7.2D-16,  1.1D-16, -6.7D-17, r^2= 1.9D+00
   Bfn.  Coefficient  Atom+Function         Bfn.  Coefficient  Atom+Function  
  ----- ------------  ---------------      ----- ------------  ---------------
     9      0.518557  1 P  py                 8     -0.424251  1 P  px         
    10      0.354280  1 P  pz                12     -0.256413  1 P  py         
    11      0.209781  1 P  px                 6     -0.186141  1 P  py         
    13     -0.175182  1 P  pz                 5      0.152289  1 P  px         

 Vector   10  Occ=0.000000D+00  E= 2.108470D-01
              MO Center=  1.2D-16, -3.8D-16, -5.5D-15, r^2= 4.5D+00
   Bfn.  Coefficient  Atom+Function         Bfn.  Coefficient  Atom+Function  
  ----- ------------  ---------------      ----- ------------  ---------------
    13      1.233768  1 P  pz                10      1.121404  1 P  pz         
     7     -0.278881  1 P  pz         

 Vector   11  Occ=0.000000D+00  E= 2.108470D-01
              MO Center=  1.7D-15, -2.3D-15, -1.8D-16, r^2= 4.5D+00
   Bfn.  Coefficient  Atom+Function         Bfn.  Coefficient  Atom+Function  
  ----- ------------  ---------------      ----- ------------  ---------------
    12      0.935765  1 P  py                 9      0.850541  1 P  py         
    11     -0.804339  1 P  px                 8     -0.731084  1 P  px         
     6     -0.211520  1 P  py                 5      0.181813  1 P  px         

 Vector   12  Occ=0.000000D+00  E= 2.108470D-01
              MO Center= -6.8D-15, -6.0D-15, -3.3D-16, r^2= 4.5D+00
   Bfn.  Coefficient  Atom+Function         Bfn.  Coefficient  Atom+Function  
  ----- ------------  ---------------      ----- ------------  ---------------
    11      0.936282  1 P  px                 8      0.851011  1 P  px         
    12      0.806278  1 P  py                 9      0.732847  1 P  py         
     5     -0.211637  1 P  px                 6     -0.182251  1 P  py         

 Vector   13  Occ=0.000000D+00  E= 2.483407D-01
              MO Center=  4.7D-15,  8.0D-15,  5.2D-15, r^2= 3.0D+00
   Bfn.  Coefficient  Atom+Function         Bfn.  Coefficient  Atom+Function  
  ----- ------------  ---------------      ----- ------------  ---------------
     4      1.837846  1 P  s                  3      1.521101  1 P  s          

 Vector   14  Occ=0.000000D+00  E= 5.964592D-01
              MO Center= -4.7D-17,  5.6D-16,  3.9D-16, r^2= 8.9D-01
   Bfn.  Coefficient  Atom+Function         Bfn.  Coefficient  Atom+Function  
  ----- ------------  ---------------      ----- ------------  ---------------
    17      0.871538  1 P  dyy               19     -0.843359  1 P  dzz        
    18     -0.179656  1 P  dyz               15     -0.155477  1 P  dxy        

 Vector   15  Occ=0.000000D+00  E= 5.964592D-01
              MO Center=  7.7D-16,  6.0D-16,  5.0D-16, r^2= 8.9D-01
   Bfn.  Coefficient  Atom+Function         Bfn.  Coefficient  Atom+Function  
  ----- ------------  ---------------      ----- ------------  ---------------
    16      1.424993  1 P  dxz               18      0.961972  1 P  dyz        
    15      0.155082  1 P  dxy        

 Vector   16  Occ=0.000000D+00  E= 5.964592D-01
              MO Center= -2.5D-16,  4.3D-16,  4.5D-16, r^2= 8.9D-01
   Bfn.  Coefficient  Atom+Function         Bfn.  Coefficient  Atom+Function  
  ----- ------------  ---------------      ----- ------------  ---------------
    18      1.422963  1 P  dyz               16     -0.945702  1 P  dxz        
    15     -0.247182  1 P  dxy        

 Vector   17  Occ=0.000000D+00  E= 5.964592D-01
              MO Center=  7.9D-16,  6.1D-16, -2.2D-17, r^2= 8.9D-01
   Bfn.  Coefficient  Atom+Function         Bfn.  Coefficient  Atom+Function  
  ----- ------------  ---------------      ----- ------------  ---------------
    15      1.700104  1 P  dxy               16     -0.265201  1 P  dxz        

 Vector   18  Occ=0.000000D+00  E= 5.964592D-01
              MO Center=  3.8D-16,  1.4D-16,  1.7D-16, r^2= 8.9D-01
   Bfn.  Coefficient  Atom+Function         Bfn.  Coefficient  Atom+Function  
  ----- ------------  ---------------      ----- ------------  ---------------
    14      0.997564  1 P  dxx               19     -0.526534  1 P  dzz        
    17     -0.471030  1 P  dyy        

 Vector   19  Occ=0.000000D+00  E= 3.159280D+00
              MO Center=  2.1D-17,  9.7D-17,  9.6D-17, r^2= 7.5D-01
   Bfn.  Coefficient  Atom+Function         Bfn.  Coefficient  Atom+Function  
  ----- ------------  ---------------      ----- ------------  ---------------
     3      5.882530  1 P  s                 14      2.590509  1 P  dxx        
    17      2.590509  1 P  dyy               19      2.590509  1 P  dzz        
     2      0.636218  1 P  s                  1      0.205856  1 P  s          


                     DFT Final Beta Molecular Orbital Analysis
                     -----------------------------------------

 Vector    1  Occ=1.000000D+00  E=-7.596170D+01
              MO Center= -3.5D-19, -1.3D-18,  4.0D-19, r^2= 4.1D-03
   Bfn.  Coefficient  Atom+Function         Bfn.  Coefficient  Atom+Function  
  ----- ------------  ---------------      ----- ------------  ---------------
     1      0.996157  1 P  s          

 Vector    2  Occ=1.000000D+00  E=-6.241617D+00
              MO Center= -5.1D-18,  5.1D-18, -9.4D-17, r^2= 9.2D-02
   Bfn.  Coefficient  Atom+Function         Bfn.  Coefficient  Atom+Function  
  ----- ------------  ---------------      ----- ------------  ---------------
     2      1.038472  1 P  s                  1      0.297826  1 P  s          

 Vector    3  Occ=1.000000D+00  E=-4.489072D+00
              MO Center=  2.2D-18,  3.6D-18,  4.0D-17, r^2= 8.4D-02
   Bfn.  Coefficient  Atom+Function         Bfn.  Coefficient  Atom+Function  
  ----- ------------  ---------------      ----- ------------  ---------------
     5      0.720699  1 P  px                 6      0.668909  1 P  py         
     7     -0.151083  1 P  pz         

 Vector    4  Occ=1.000000D+00  E=-4.489072D+00
              MO Center=  2.2D-17,  9.4D-17,  9.2D-17, r^2= 8.4D-02
   Bfn.  Coefficient  Atom+Function         Bfn.  Coefficient  Atom+Function  
  ----- ------------  ---------------      ----- ------------  ---------------
     7      0.980275  1 P  pz                 6      0.159464  1 P  py         

 Vector    5  Occ=1.000000D+00  E=-4.489072D+00
              MO Center=  1.6D-17, -1.0D-17,  3.5D-17, r^2= 8.4D-02
   Bfn.  Coefficient  Atom+Function         Bfn.  Coefficient  Atom+Function  
  ----- ------------  ---------------      ----- ------------  ---------------
     6     -0.718891  1 P  py                 5      0.683345  1 P  px         

 Vector    6  Occ=1.000000D+00  E=-3.824280D-01
              MO Center=  1.5D-15,  1.3D-15,  1.7D-15, r^2= 1.2D+00
   Bfn.  Coefficient  Atom+Function         Bfn.  Coefficient  Atom+Function  
  ----- ------------  ---------------      ----- ------------  ---------------
     3      0.658696  1 P  s                  4     -0.463623  1 P  s          
     2      0.368036  1 P  s          

 Vector    7  Occ=0.000000D+00  E=-8.406355D-02
              MO Center= -4.9D-17,  5.3D-16, -1.1D-15, r^2= 2.0D+00
   Bfn.  Coefficient  Atom+Function         Bfn.  Coefficient  Atom+Function  
  ----- ------------  ---------------      ----- ------------  ---------------
    10      0.665708  1 P  pz                13     -0.418369  1 P  pz         
     7     -0.243058  1 P  pz                 8      0.180320  1 P  px         

 Vector    8  Occ=0.000000D+00  E=-8.406355D-02
              MO Center= -6.4D-16,  2.1D-16,  6.6D-16, r^2= 2.0D+00
   Bfn.  Coefficient  Atom+Function         Bfn.  Coefficient  Atom+Function  
  ----- ------------  ---------------      ----- ------------  ---------------
     8      0.665487  1 P  px                11     -0.418230  1 P  px         
     5     -0.242978  1 P  px                10     -0.193949  1 P  pz         

 Vector    9  Occ=0.000000D+00  E=-8.406355D-02
              MO Center=  7.1D-17, -1.2D-15,  1.5D-16, r^2= 2.0D+00
   Bfn.  Coefficient  Atom+Function         Bfn.  Coefficient  Atom+Function  
  ----- ------------  ---------------      ----- ------------  ---------------
     9      0.684589  1 P  py                12     -0.430235  1 P  py         
     6     -0.249952  1 P  py         

 Vector   10  Occ=0.000000D+00  E= 2.917870D-01
              MO Center=  1.2D-15,  1.8D-16, -8.5D-16, r^2= 4.3D+00
   Bfn.  Coefficient  Atom+Function         Bfn.  Coefficient  Atom+Function  
  ----- ------------  ---------------      ----- ------------  ---------------
    13     -0.865261  1 P  pz                11      0.852078  1 P  px         
    10     -0.827365  1 P  pz                 8      0.814759  1 P  px         
     7      0.207595  1 P  pz                 5     -0.204432  1 P  px         

 Vector   11  Occ=0.000000D+00  E= 2.917870D-01
              MO Center=  1.0D-15, -1.5D-15,  9.7D-16, r^2= 4.3D+00
   Bfn.  Coefficient  Atom+Function         Bfn.  Coefficient  Atom+Function  
  ----- ------------  ---------------      ----- ------------  ---------------
    12      0.962987  1 P  py                 9      0.920811  1 P  py         
    11     -0.537405  1 P  px                 8     -0.513869  1 P  px         
    13     -0.508821  1 P  pz                10     -0.486536  1 P  pz         
     6     -0.231041  1 P  py         

 Vector   12  Occ=0.000000D+00  E= 2.917870D-01
              MO Center=  2.4D-15,  2.6D-15,  2.7D-15, r^2= 4.3D+00
   Bfn.  Coefficient  Atom+Function         Bfn.  Coefficient  Atom+Function  
  ----- ------------  ---------------      ----- ------------  ---------------
    12      0.739843  1 P  py                 9      0.707440  1 P  py         
    13      0.683720  1 P  pz                11      0.678386  1 P  px         
    10      0.653775  1 P  pz                 8      0.648675  1 P  px         
     6     -0.177504  1 P  py                 7     -0.164039  1 P  pz         
     5     -0.162759  1 P  px         

 Vector   13  Occ=0.000000D+00  E= 3.428814D-01
              MO Center= -4.3D-15, -9.6D-16, -2.1D-15, r^2= 3.0D+00
   Bfn.  Coefficient  Atom+Function         Bfn.  Coefficient  Atom+Function  
  ----- ------------  ---------------      ----- ------------  ---------------
     4      1.833862  1 P  s                  3      1.548965  1 P  s          

 Vector   14  Occ=0.000000D+00  E= 7.302930D-01
              MO Center=  4.0D-16, -3.0D-16, -4.0D-16, r^2= 8.9D-01
   Bfn.  Coefficient  Atom+Function         Bfn.  Coefficient  Atom+Function  
  ----- ------------  ---------------      ----- ------------  ---------------
    14      0.983641  1 P  dxx               19     -0.521142  1 P  dzz        
    17     -0.462498  1 P  dyy               15     -0.301131  1 P  dxy        

 Vector   15  Occ=0.000000D+00  E= 7.302930D-01
              MO Center= -9.9D-17, -2.5D-16, -8.7D-16, r^2= 8.9D-01
   Bfn.  Coefficient  Atom+Function         Bfn.  Coefficient  Atom+Function  
  ----- ------------  ---------------      ----- ------------  ---------------
    18      1.627612  1 P  dyz               16     -0.462942  1 P  dxz        
    15      0.364658  1 P  dxy        

 Vector   16  Occ=0.000000D+00  E= 7.302930D-01
              MO Center= -6.4D-16, -2.9D-16, -2.4D-16, r^2= 8.9D-01
   Bfn.  Coefficient  Atom+Function         Bfn.  Coefficient  Atom+Function  
  ----- ------------  ---------------      ----- ------------  ---------------
    16      1.388037  1 P  dxz               15     -0.831939  1 P  dxy        
    18      0.581427  1 P  dyz        

 Vector   17  Occ=0.000000D+00  E= 7.302930D-01
              MO Center= -5.0D-16, -8.2D-16, -5.5D-16, r^2= 8.9D-01
   Bfn.  Coefficient  Atom+Function         Bfn.  Coefficient  Atom+Function  
  ----- ------------  ---------------      ----- ------------  ---------------
    15      1.442292  1 P  dxy               16      0.925654  1 P  dxz        

 Vector   18  Occ=0.000000D+00  E= 7.302930D-01
              MO Center=  2.3D-17, -3.2D-16, -2.9D-16, r^2= 8.9D-01
   Bfn.  Coefficient  Atom+Function         Bfn.  Coefficient  Atom+Function  
  ----- ------------  ---------------      ----- ------------  ---------------
    17      0.884763  1 P  dyy               19     -0.842284  1 P  dzz        

 Vector   19  Occ=0.000000D+00  E= 3.246390D+00
              MO Center= -8.4D-17, -8.9D-17, -7.0D-17, r^2= 7.6D-01
   Bfn.  Coefficient  Atom+Function         Bfn.  Coefficient  Atom+Function  
  ----- ------------  ---------------      ----- ------------  ---------------
     3      5.871469  1 P  s                 14      2.590973  1 P  dxx        
    17      2.590973  1 P  dyy               19      2.590973  1 P  dzz        
     2      0.632471  1 P  s                  1      0.204636  1 P  s          


   alpha - beta orbital overlaps 
   ----------------------------- 


   alpha      1      2      3      4      5      6      7      8      9     10
    beta      1      2      3      4      5      6      7      8      8     10
 overlap   1.000  1.000  0.699  0.729  0.892  1.000  0.895  0.653  0.744  0.744


   alpha     11     12     13     14     15     16     17     18     19
    beta     11     12     13     18     16     15     17     14     19
 overlap   0.910  0.829  1.000  0.987  0.806  0.885  0.737  0.986  1.000

     --------------------------
     Expectation value of S2:  
     --------------------------
      <S2> =      3.7502 (Exact =     3.7500)


 Parallel integral file used       4 records with       0 large values


 Task  times  cpu:        0.3s     wall:        0.5s


                                NWChem Input Module
                                -------------------



                                 NWChem DFT Module
                                 -----------------


  Caching 1-el integrals 

            General Information
            -------------------
          SCF calculation type: DFT
          Wavefunction type:  spin polarized.
          No. of atoms     :     1
          No. of electrons :    15
           Alpha electrons :     9
            Beta electrons :     6
          Charge           :     0
          Spin multiplicity:     4
          Use of symmetry is: off; symmetry adaption is: off
          Maximum number of iterations:  30
          AO basis - number of functions:    19
                     number of shells:     8
          Convergence on energy requested: 1.00D-06
          Convergence on density requested: 1.00D-05
          Convergence on gradient requested: 5.00D-04

              XC Information
              --------------
          PerdewBurkeErnzerhof Exchange Functional  1.000          

             Grid Information
             ----------------
          Grid used for XC integration:  medium    
          Radial quadrature: Mura-Knowles        
          Angular quadrature: Lebedev. 
          Tag              B.-S. Rad. Rad. Pts. Rad. Cut. Ang. Pts.
          ---              ---------- --------- --------- ---------
          P                   1.00       88           6.0       590
          Grid pruning is: on 
          Number of quadrature shells:    88
          Spatial weights used:  Erf1

          Convergence Information
          -----------------------
          Convergence aids based upon iterative change in 
          total energy or number of iterations. 
          Levelshifting, if invoked, occurs when the 
          HOMO/LUMO gap drops below (HL_TOL): 1.00D-02
          DIIS, if invoked, will attempt to extrapolate 
          using up to (NFOCK): 10 stored Fock matrices.

                    Damping( 0%)  Levelshifting(0.5)       DIIS
                  --------------- ------------------- ---------------
          dE  on:    start            ASAP                start   
          dE off:    2 iters         30 iters            30 iters 


      Screening Tolerance Information
      -------------------------------
          Density screening/tol_rho: 1.00D-10
          AO Gaussian exp screening on grid/accAOfunc:  14
          CD Gaussian exp screening on grid/accCDfunc:  20
          XC Gaussian exp screening on grid/accXCfunc:  20
          Schwarz screening/accCoul: 1.00D-08


      Superposition of Atomic Density Guess
      -------------------------------------

 Sum of atomic energies:        -340.59105084

      Non-variational initial energy
      ------------------------------

 Total energy =    -340.302856
 1-e energy   =    -471.084403
 2-e energy   =     130.781547
 HOMO         =      -0.168362
 LUMO         =      -0.168362

   Time after variat. SCF:      0.3
   Time prior to 1st pass:      0.3

 #quartets = 6.660D+02 #integrals = 3.754D+03 #direct =  0.0% #cached =100.0%


 Integral file          = /home/d3y133/nwchem-dev/nwchem-ref/QA/scratchdir/nwxc_dat.aoints.0
 Record size in doubles =  65536        No. of integs per rec  =  43688
 Max. records in memory =      2        Max. records in file   =   1477
 No. of bits per label  =      8        No. of bits per value  =     64


File balance: exchanges=     0  moved=     0  time=   0.0


 Grid_pts file          = /home/d3y133/nwchem-dev/nwchem-ref/QA/scratchdir/nwxc_dat.gridpts.0
 Record size in doubles =  12289        No. of grid_pts per rec  =   3070
 Max. records in memory =      6        Max. recs in file   =      7883


           Memory utilization after 1st SCF pass: 
           Heap Space remaining (MW):       12.90            12899962
          Stack Space remaining (MW):       13.11            13106944

   convergence    iter        energy       DeltaE   RMS-Dens  Diis-err    time
 ---------------- ----- ----------------- --------- --------- ---------  ------
 d= 0,ls=0.0,diis     1   -340.5196993010 -3.41D+02  2.38D-02  4.33D-02     0.4
                                                     1.03D-02  3.39D-02
  Resetting Diis
 d= 0,ls=0.0,diis     2   -340.5313737175 -1.17D-02  1.19D-02  5.75D-03     0.5
                                                     7.56D-03  2.87D-03
 d= 0,ls=0.0,diis     3   -340.5350208700 -3.65D-03  6.04D-03  1.21D-03     0.6
                                                     3.65D-03  6.92D-04
 d= 0,ls=0.0,diis     4   -340.5353925858 -3.72D-04  2.50D-03  5.70D-04     0.6
                                                     1.58D-03  3.35D-04
 d= 0,ls=0.0,diis     5   -340.5357550762 -3.62D-04  2.20D-05  2.86D-08     0.7
                                                     3.92D-06  3.89D-09
 d= 0,ls=0.0,diis     6   -340.5357550954 -1.92D-08  1.56D-06  2.72D-10     0.8
                                                     2.31D-06  3.28D-10


         Total DFT energy =     -340.535755095376
      One electron energy =     -471.142735108586
           Coulomb energy =      153.026531456718
    Exchange-Corr. energy =      -22.419551443509
 Nuclear repulsion energy =        0.000000000000

 Numeric. integr. density =       14.999999988214

     Total iterative time =      0.4s



                    DFT Final Alpha Molecular Orbital Analysis
                    ------------------------------------------

 Vector    1  Occ=1.000000D+00  E=-7.637016D+01
              MO Center=  3.4D-18, -2.6D-18, -1.9D-18, r^2= 4.1D-03
   Bfn.  Coefficient  Atom+Function         Bfn.  Coefficient  Atom+Function  
  ----- ------------  ---------------      ----- ------------  ---------------
     1      0.996761  1 P  s          

 Vector    2  Occ=1.000000D+00  E=-6.308168D+00
              MO Center=  8.9D-18,  7.2D-17,  1.6D-16, r^2= 9.1D-02
   Bfn.  Coefficient  Atom+Function         Bfn.  Coefficient  Atom+Function  
  ----- ------------  ---------------      ----- ------------  ---------------
     2      1.041161  1 P  s                  1      0.297404  1 P  s          

 Vector    3  Occ=1.000000D+00  E=-4.533829D+00
              MO Center= -2.1D-17,  4.2D-17, -1.0D-16, r^2= 8.4D-02
   Bfn.  Coefficient  Atom+Function         Bfn.  Coefficient  Atom+Function  
  ----- ------------  ---------------      ----- ------------  ---------------
     7      0.767551  1 P  pz                 5      0.600343  1 P  px         
     6     -0.199646  1 P  py         

 Vector    4  Occ=1.000000D+00  E=-4.533829D+00
              MO Center=  9.3D-18, -9.7D-17, -3.9D-17, r^2= 8.4D-02
   Bfn.  Coefficient  Atom+Function         Bfn.  Coefficient  Atom+Function  
  ----- ------------  ---------------      ----- ------------  ---------------
     6      0.858882  1 P  py                 7      0.428077  1 P  pz         
     5     -0.261681  1 P  px         

 Vector    5  Occ=1.000000D+00  E=-4.533829D+00
              MO Center=  4.4D-17,  1.7D-17, -3.0D-17, r^2= 8.4D-02
   Bfn.  Coefficient  Atom+Function         Bfn.  Coefficient  Atom+Function  
  ----- ------------  ---------------      ----- ------------  ---------------
     5      0.748676  1 P  px                 7     -0.465854  1 P  pz         
     6      0.460291  1 P  py         

 Vector    6  Occ=1.000000D+00  E=-5.161923D-01
              MO Center=  1.9D-17, -1.2D-16, -9.6D-18, r^2= 1.2D+00
   Bfn.  Coefficient  Atom+Function         Bfn.  Coefficient  Atom+Function  
  ----- ------------  ---------------      ----- ------------  ---------------
     3      0.616165  1 P  s                  4     -0.439868  1 P  s          
     2      0.360930  1 P  s          

 Vector    7  Occ=1.000000D+00  E=-2.081570D-01
              MO Center=  1.1D-16,  2.4D-16, -1.0D-16, r^2= 1.8D+00
   Bfn.  Coefficient  Atom+Function         Bfn.  Coefficient  Atom+Function  
  ----- ------------  ---------------      ----- ------------  ---------------
    10      0.506177  1 P  pz                 8      0.432439  1 P  px         
     9      0.374337  1 P  py                13     -0.244090  1 P  pz         
    11     -0.208532  1 P  px                 7     -0.180082  1 P  pz         
    12     -0.180514  1 P  py                 5     -0.153848  1 P  px         

 Vector    8  Occ=1.000000D+00  E=-2.081570D-01
              MO Center= -7.1D-17,  3.3D-17, -3.1D-17, r^2= 1.8D+00
   Bfn.  Coefficient  Atom+Function         Bfn.  Coefficient  Atom+Function  
  ----- ------------  ---------------      ----- ------------  ---------------
     9      0.581779  1 P  py                10     -0.489902  1 P  pz         
    12     -0.280547  1 P  py                13      0.236242  1 P  pz         
     6     -0.206979  1 P  py                 7      0.174292  1 P  pz         

 Vector    9  Occ=1.000000D+00  E=-2.081570D-01
              MO Center= -1.0D-16,  9.5D-17, -2.3D-17, r^2= 1.8D+00
   Bfn.  Coefficient  Atom+Function         Bfn.  Coefficient  Atom+Function  
  ----- ------------  ---------------      ----- ------------  ---------------
     8      0.625674  1 P  px                 9     -0.323653  1 P  py         
    11     -0.301714  1 P  px                10     -0.295175  1 P  pz         
     5     -0.222595  1 P  px                12      0.156073  1 P  py         

 Vector   10  Occ=0.000000D+00  E= 2.049050D-01
              MO Center= -3.9D-16,  6.0D-16,  7.9D-17, r^2= 4.5D+00
   Bfn.  Coefficient  Atom+Function         Bfn.  Coefficient  Atom+Function  
  ----- ------------  ---------------      ----- ------------  ---------------
    12     -0.884144  1 P  py                11      0.830045  1 P  px         
     9     -0.799551  1 P  py                 8      0.750628  1 P  px         
    13     -0.247508  1 P  pz                10     -0.223827  1 P  pz         
     6      0.197355  1 P  py                 5     -0.185280  1 P  px         

 Vector   11  Occ=0.000000D+00  E= 2.049050D-01
              MO Center= -3.0D-17, -1.0D-16,  4.4D-16, r^2= 4.5D+00
   Bfn.  Coefficient  Atom+Function         Bfn.  Coefficient  Atom+Function  
  ----- ------------  ---------------      ----- ------------  ---------------
    13      1.159428  1 P  pz                10      1.048496  1 P  pz         
    12     -0.420888  1 P  py                 9     -0.380619  1 P  py         
     7     -0.258803  1 P  pz         

 Vector   12  Occ=0.000000D+00  E= 2.049050D-01
              MO Center=  1.5D-15,  1.2D-15,  4.6D-16, r^2= 4.5D+00
   Bfn.  Coefficient  Atom+Function         Bfn.  Coefficient  Atom+Function  
  ----- ------------  ---------------      ----- ------------  ---------------
    11      0.912384  1 P  px                 8      0.825089  1 P  px         
    12      0.757026  1 P  py                 9      0.684595  1 P  py         
    13      0.355545  1 P  pz                10      0.321527  1 P  pz         
     5     -0.203659  1 P  px                 6     -0.168980  1 P  py         

 Vector   13  Occ=0.000000D+00  E= 2.481684D-01
              MO Center= -8.8D-16, -1.6D-15, -9.0D-16, r^2= 3.0D+00
   Bfn.  Coefficient  Atom+Function         Bfn.  Coefficient  Atom+Function  
  ----- ------------  ---------------      ----- ------------  ---------------
     4      1.839741  1 P  s                  3      1.512560  1 P  s          

 Vector   14  Occ=0.000000D+00  E= 5.882896D-01
              MO Center= -1.2D-17, -1.2D-17,  9.1D-17, r^2= 8.9D-01
   Bfn.  Coefficient  Atom+Function         Bfn.  Coefficient  Atom+Function  
  ----- ------------  ---------------      ----- ------------  ---------------
    16      1.597840  1 P  dxz               18      0.637607  1 P  dyz        
    15     -0.192327  1 P  dxy        

 Vector   15  Occ=0.000000D+00  E= 5.882896D-01
              MO Center= -5.3D-18,  8.7D-18,  6.8D-17, r^2= 8.9D-01
   Bfn.  Coefficient  Atom+Function         Bfn.  Coefficient  Atom+Function  
  ----- ------------  ---------------      ----- ------------  ---------------
    18      1.482887  1 P  dyz               16     -0.659649  1 P  dxz        
    15     -0.595211  1 P  dxy        

 Vector   16  Occ=0.000000D+00  E= 5.882896D-01
              MO Center=  5.2D-16,  2.5D-16,  2.0D-16, r^2= 8.9D-01
   Bfn.  Coefficient  Atom+Function         Bfn.  Coefficient  Atom+Function  
  ----- ------------  ---------------      ----- ------------  ---------------
    15      1.597830  1 P  dxy               18      0.619779  1 P  dyz        

 Vector   17  Occ=0.000000D+00  E= 5.882896D-01
              MO Center= -3.0D-16, -2.2D-16,  3.0D-17, r^2= 8.9D-01
   Bfn.  Coefficient  Atom+Function         Bfn.  Coefficient  Atom+Function  
  ----- ------------  ---------------      ----- ------------  ---------------
    14      0.984408  1 P  dxx               17     -0.597359  1 P  dyy        
    19     -0.387049  1 P  dzz               15     -0.215701  1 P  dxy        

 Vector   18  Occ=0.000000D+00  E= 5.882896D-01
              MO Center= -6.4D-17,  1.0D-16, -6.6D-16, r^2= 8.9D-01
   Bfn.  Coefficient  Atom+Function         Bfn.  Coefficient  Atom+Function  
  ----- ------------  ---------------      ----- ------------  ---------------
    19      0.919251  1 P  dzz               17     -0.790738  1 P  dyy        

 Vector   19  Occ=0.000000D+00  E= 3.153796D+00
              MO Center=  3.7D-17, -8.1D-17,  6.2D-17, r^2= 7.5D-01
   Bfn.  Coefficient  Atom+Function         Bfn.  Coefficient  Atom+Function  
  ----- ------------  ---------------      ----- ------------  ---------------
     3      5.885518  1 P  s                 14      2.590304  1 P  dxx        
    17      2.590304  1 P  dyy               19      2.590304  1 P  dzz        
     2      0.633022  1 P  s                  1      0.204186  1 P  s          


                     DFT Final Beta Molecular Orbital Analysis
                     -----------------------------------------

 Vector    1  Occ=1.000000D+00  E=-7.635894D+01
              MO Center=  2.3D-18, -6.3D-18,  5.0D-19, r^2= 4.1D-03
   Bfn.  Coefficient  Atom+Function         Bfn.  Coefficient  Atom+Function  
  ----- ------------  ---------------      ----- ------------  ---------------
     1      0.996786  1 P  s          

 Vector    2  Occ=1.000000D+00  E=-6.295590D+00
              MO Center=  6.2D-17, -1.8D-16, -5.7D-17, r^2= 9.1D-02
   Bfn.  Coefficient  Atom+Function         Bfn.  Coefficient  Atom+Function  
  ----- ------------  ---------------      ----- ------------  ---------------
     2      1.041466  1 P  s                  1      0.297453  1 P  s          

 Vector    3  Occ=1.000000D+00  E=-4.517036D+00
              MO Center=  6.3D-17,  1.0D-16,  5.3D-17, r^2= 8.3D-02
   Bfn.  Coefficient  Atom+Function         Bfn.  Coefficient  Atom+Function  
  ----- ------------  ---------------      ----- ------------  ---------------
     5      0.715865  1 P  px                 7      0.506655  1 P  pz         
     6      0.470829  1 P  py         

 Vector    4  Occ=1.000000D+00  E=-4.517036D+00
              MO Center=  3.1D-17,  1.9D-17, -3.9D-17, r^2= 8.3D-02
   Bfn.  Coefficient  Atom+Function         Bfn.  Coefficient  Atom+Function  
  ----- ------------  ---------------      ----- ------------  ---------------
     7      0.748195  1 P  pz                 6     -0.648399  1 P  py         

 Vector    5  Occ=1.000000D+00  E=-4.517036D+00
              MO Center= -1.6D-16,  1.1D-16,  3.6D-17, r^2= 8.3D-02
   Bfn.  Coefficient  Atom+Function         Bfn.  Coefficient  Atom+Function  
  ----- ------------  ---------------      ----- ------------  ---------------
     5      0.683925  1 P  px                 6     -0.590543  1 P  py         
     7     -0.417549  1 P  pz         

 Vector    6  Occ=1.000000D+00  E=-3.908056D-01
              MO Center= -2.1D-16, -9.7D-17, -4.2D-16, r^2= 1.2D+00
   Bfn.  Coefficient  Atom+Function         Bfn.  Coefficient  Atom+Function  
  ----- ------------  ---------------      ----- ------------  ---------------
     3      0.672657  1 P  s                  4     -0.464061  1 P  s          
     2      0.366998  1 P  s          

 Vector    7  Occ=0.000000D+00  E=-9.252589D-02
              MO Center=  3.2D-16,  1.9D-16,  4.4D-16, r^2= 2.1D+00
   Bfn.  Coefficient  Atom+Function         Bfn.  Coefficient  Atom+Function  
  ----- ------------  ---------------      ----- ------------  ---------------
    10      0.557522  1 P  pz                13     -0.378798  1 P  pz         
     8      0.340456  1 P  px                11     -0.231316  1 P  px         
     7     -0.204628  1 P  pz                 9      0.179590  1 P  py         

 Vector    8  Occ=0.000000D+00  E=-9.252589D-02
              MO Center=  2.0D-16,  2.4D-16, -4.8D-16, r^2= 2.1D+00
   Bfn.  Coefficient  Atom+Function         Bfn.  Coefficient  Atom+Function  
  ----- ------------  ---------------      ----- ------------  ---------------
     9      0.651668  1 P  py                12     -0.442763  1 P  py         
     6     -0.239183  1 P  py         

 Vector    9  Occ=0.000000D+00  E=-9.252589D-02
              MO Center=  2.1D-16, -3.7D-17, -1.9D-16, r^2= 2.1D+00
   Bfn.  Coefficient  Atom+Function         Bfn.  Coefficient  Atom+Function  
  ----- ------------  ---------------      ----- ------------  ---------------
     8      0.570283  1 P  px                11     -0.387468  1 P  px         
    10     -0.362907  1 P  pz                13      0.246570  1 P  pz         
     5     -0.209312  1 P  px         

 Vector   10  Occ=0.000000D+00  E= 2.742905D-01
              MO Center= -8.2D-16,  1.3D-15,  6.4D-16, r^2= 4.2D+00
   Bfn.  Coefficient  Atom+Function         Bfn.  Coefficient  Atom+Function  
  ----- ------------  ---------------      ----- ------------  ---------------
    12      0.974041  1 P  py                 9      0.947427  1 P  py         
    11     -0.611512  1 P  px                 8     -0.594803  1 P  px         
    13      0.364710  1 P  pz                10      0.354745  1 P  pz         
     6     -0.237978  1 P  py         

 Vector   11  Occ=0.000000D+00  E= 2.742905D-01
              MO Center= -5.4D-15, -3.1D-15, -8.7D-16, r^2= 4.2D+00
   Bfn.  Coefficient  Atom+Function         Bfn.  Coefficient  Atom+Function  
  ----- ------------  ---------------      ----- ------------  ---------------
    11      1.039167  1 P  px                 8      1.010773  1 P  px         
    12      0.589920  1 P  py                 9      0.573801  1 P  py         
     5     -0.253889  1 P  px                13      0.166862  1 P  pz         
    10      0.162303  1 P  pz         

 Vector   12  Occ=0.000000D+00  E= 2.742905D-01
              MO Center= -1.4D-16,  6.8D-16, -2.0D-15, r^2= 4.2D+00
   Bfn.  Coefficient  Atom+Function         Bfn.  Coefficient  Atom+Function  
  ----- ------------  ---------------      ----- ------------  ---------------
    13      1.137919  1 P  pz                10      1.106827  1 P  pz         
    12     -0.398691  1 P  py                 9     -0.387798  1 P  py         
     7     -0.278016  1 P  pz         

 Vector   13  Occ=0.000000D+00  E= 3.248257D-01
              MO Center=  6.1D-15,  1.1D-15,  2.3D-15, r^2= 3.0D+00
   Bfn.  Coefficient  Atom+Function         Bfn.  Coefficient  Atom+Function  
  ----- ------------  ---------------      ----- ------------  ---------------
     4      1.833754  1 P  s                  3      1.552384  1 P  s          

 Vector   14  Occ=0.000000D+00  E= 7.267782D-01
              MO Center= -1.8D-16,  3.0D-17, -3.8D-17, r^2= 8.9D-01
   Bfn.  Coefficient  Atom+Function         Bfn.  Coefficient  Atom+Function  
  ----- ------------  ---------------      ----- ------------  ---------------
    14      0.947857  1 P  dxx               17     -0.707425  1 P  dyy        
    19     -0.240433  1 P  dzz               18     -0.198859  1 P  dyz        
    16      0.180916  1 P  dxz        

 Vector   15  Occ=0.000000D+00  E= 7.267782D-01
              MO Center= -3.4D-17,  5.3D-17, -1.2D-16, r^2= 8.9D-01
   Bfn.  Coefficient  Atom+Function         Bfn.  Coefficient  Atom+Function  
  ----- ------------  ---------------      ----- ------------  ---------------
    16      1.654032  1 P  dxz               15     -0.460890  1 P  dxy        

 Vector   16  Occ=0.000000D+00  E= 7.267782D-01
              MO Center=  6.5D-17, -2.1D-16,  4.4D-16, r^2= 8.9D-01
   Bfn.  Coefficient  Atom+Function         Bfn.  Coefficient  Atom+Function  
  ----- ------------  ---------------      ----- ------------  ---------------
    18      1.671402  1 P  dyz               15      0.348782  1 P  dxy        
    16      0.186415  1 P  dxz        

 Vector   17  Occ=0.000000D+00  E= 7.267782D-01
              MO Center= -3.7D-16, -8.0D-18,  9.4D-17, r^2= 8.9D-01
   Bfn.  Coefficient  Atom+Function         Bfn.  Coefficient  Atom+Function  
  ----- ------------  ---------------      ----- ------------  ---------------
    15      1.627557  1 P  dxy               16      0.442631  1 P  dxz        
    18     -0.392778  1 P  dyz        

 Vector   18  Occ=0.000000D+00  E= 7.267782D-01
              MO Center= -5.0D-17,  1.2D-16, -1.8D-16, r^2= 8.9D-01
   Bfn.  Coefficient  Atom+Function         Bfn.  Coefficient  Atom+Function  
  ----- ------------  ---------------      ----- ------------  ---------------
    19      0.970200  1 P  dzz               17     -0.687402  1 P  dyy        
    14     -0.282798  1 P  dxx        

 Vector   19  Occ=0.000000D+00  E= 3.226266D+00
              MO Center= -9.3D-17, -1.6D-17, -1.0D-17, r^2= 7.6D-01
   Bfn.  Coefficient  Atom+Function         Bfn.  Coefficient  Atom+Function  
  ----- ------------  ---------------      ----- ------------  ---------------
     3      5.868941  1 P  s                 14      2.590973  1 P  dxx        
    17      2.590973  1 P  dyy               19      2.590973  1 P  dzz        
     2      0.628319  1 P  s                  1      0.202670  1 P  s          


   alpha - beta orbital overlaps 
   ----------------------------- 


   alpha      1      2      3      4      5      6      7      8      9     10
    beta      1      2      3      5      4      6      7      8      9     10
 overlap   1.000  1.000  0.732  0.874  0.731  1.000  0.957  0.834  0.866  0.974


   alpha     11     12     13     14     15     16     17     18     19
    beta     12     11     13     15     16     17     14     18     19
 overlap   0.990  0.971  1.000  0.898  0.716  0.780  0.974  0.987  1.000

     --------------------------
     Expectation value of S2:  
     --------------------------
      <S2> =      3.7503 (Exact =     3.7500)


 Parallel integral file used       4 records with       0 large values


 Task  times  cpu:        0.5s     wall:        0.8s


                                NWChem Input Module
                                -------------------



                                 NWChem DFT Module
                                 -----------------


  Caching 1-el integrals 

            General Information
            -------------------
          SCF calculation type: DFT
          Wavefunction type:  spin polarized.
          No. of atoms     :     1
          No. of electrons :    15
           Alpha electrons :     9
            Beta electrons :     6
          Charge           :     0
          Spin multiplicity:     4
          Use of symmetry is: off; symmetry adaption is: off
          Maximum number of iterations:  30
          AO basis - number of functions:    19
                     number of shells:     8
          Convergence on energy requested: 1.00D-06
          Convergence on density requested: 1.00D-05
          Convergence on gradient requested: 5.00D-04

              XC Information
              --------------
                          VS98 Exchange Functional  1.000          

             Grid Information
             ----------------
          Grid used for XC integration:  medium    
          Radial quadrature: Mura-Knowles        
          Angular quadrature: Lebedev. 
          Tag              B.-S. Rad. Rad. Pts. Rad. Cut. Ang. Pts.
          ---              ---------- --------- --------- ---------
          P                   1.00       88           6.0       590
          Grid pruning is: on 
          Number of quadrature shells:    88
          Spatial weights used:  Erf1

          Convergence Information
          -----------------------
          Convergence aids based upon iterative change in 
          total energy or number of iterations. 
          Levelshifting, if invoked, occurs when the 
          HOMO/LUMO gap drops below (HL_TOL): 1.00D-02
          DIIS, if invoked, will attempt to extrapolate 
          using up to (NFOCK): 10 stored Fock matrices.

                    Damping( 0%)  Levelshifting(0.5)       DIIS
                  --------------- ------------------- ---------------
          dE  on:    start            ASAP                start   
          dE off:    2 iters         30 iters            30 iters 


      Screening Tolerance Information
      -------------------------------
          Density screening/tol_rho: 1.00D-10
          AO Gaussian exp screening on grid/accAOfunc:  14
          CD Gaussian exp screening on grid/accCDfunc:  20
          XC Gaussian exp screening on grid/accXCfunc:  20
          Schwarz screening/accCoul: 1.00D-08


      Superposition of Atomic Density Guess
      -------------------------------------

 Sum of atomic energies:        -340.59105084

      Non-variational initial energy
      ------------------------------

 Total energy =    -340.302856
 1-e energy   =    -471.084403
 2-e energy   =     130.781547
 HOMO         =      -0.168362
 LUMO         =      -0.168362

   Time after variat. SCF:      0.8
   Time prior to 1st pass:      0.8

 #quartets = 6.660D+02 #integrals = 3.754D+03 #direct =  0.0% #cached =100.0%


 Integral file          = /home/d3y133/nwchem-dev/nwchem-ref/QA/scratchdir/nwxc_dat.aoints.0
 Record size in doubles =  65536        No. of integs per rec  =  43688
 Max. records in memory =      2        Max. records in file   =   1477
 No. of bits per label  =      8        No. of bits per value  =     64


File balance: exchanges=     0  moved=     0  time=   0.0


 Grid_pts file          = /home/d3y133/nwchem-dev/nwchem-ref/QA/scratchdir/nwxc_dat.gridpts.0
 Record size in doubles =  12289        No. of grid_pts per rec  =   3070
 Max. records in memory =      6        Max. recs in file   =      7883


           Memory utilization after 1st SCF pass: 
           Heap Space remaining (MW):       12.90            12899962
          Stack Space remaining (MW):       13.11            13106944

   convergence    iter        energy       DeltaE   RMS-Dens  Diis-err    time
 ---------------- ----- ----------------- --------- --------- ---------  ------
 d= 0,ls=0.0,diis     1   -340.6451914928 -3.41D+02  2.35D-02  6.21D-02     0.9
                                                     5.36D-03  3.75D-02
  Resetting Diis
 d= 0,ls=0.0,diis     2   -340.6618295670 -1.66D-02  7.70D-03  2.73D-03     1.0
                                                     6.85D-03  2.42D-03
 d= 0,ls=0.0,diis     3   -340.6637261796 -1.90D-03  3.93D-03  6.75D-04     1.1
                                                     2.04D-03  3.97D-04
 d= 0,ls=0.0,diis     4   -340.6639851859 -2.59D-04  1.24D-03  1.72D-04     1.2
                                                     9.18D-04  1.31D-04
 d= 0,ls=0.0,diis     5   -340.6640771012 -9.19D-05  2.75D-05  2.91D-08     1.3
                                                     7.40D-05  1.77D-07
 d= 0,ls=0.0,diis     6   -340.6640772558 -1.55D-07  1.84D-06  3.19D-10     1.4
                                                     1.58D-06  2.28D-10


         Total DFT energy =     -340.664077255809
      One electron energy =     -471.248407265522
           Coulomb energy =      153.145073768595
    Exchange-Corr. energy =      -22.560743758882
 Nuclear repulsion energy =        0.000000000000

 Numeric. integr. density =       14.999999989615

     Total iterative time =      0.6s



                    DFT Final Alpha Molecular Orbital Analysis
                    ------------------------------------------

 Vector    1  Occ=1.000000D+00  E=-7.660247D+01
              MO Center=  9.9D-19, -2.6D-18,  4.1D-18, r^2= 4.1D-03
   Bfn.  Coefficient  Atom+Function         Bfn.  Coefficient  Atom+Function  
  ----- ------------  ---------------      ----- ------------  ---------------
     1      0.996265  1 P  s          

 Vector    2  Occ=1.000000D+00  E=-6.418542D+00
              MO Center= -3.0D-17,  1.8D-16, -2.0D-16, r^2= 9.1D-02
   Bfn.  Coefficient  Atom+Function         Bfn.  Coefficient  Atom+Function  
  ----- ------------  ---------------      ----- ------------  ---------------
     2      1.040541  1 P  s                  1      0.298306  1 P  s          

 Vector    3  Occ=1.000000D+00  E=-4.634916D+00
              MO Center= -2.6D-17, -1.0D-16,  1.9D-16, r^2= 8.4D-02
   Bfn.  Coefficient  Atom+Function         Bfn.  Coefficient  Atom+Function  
  ----- ------------  ---------------      ----- ------------  ---------------
     7      0.889441  1 P  pz                 6     -0.444576  1 P  py         

 Vector    4  Occ=1.000000D+00  E=-4.634916D+00
              MO Center= -5.7D-19, -2.7D-17, -8.2D-18, r^2= 8.4D-02
   Bfn.  Coefficient  Atom+Function         Bfn.  Coefficient  Atom+Function  
  ----- ------------  ---------------      ----- ------------  ---------------
     5      0.939207  1 P  px                 6     -0.300854  1 P  py         

 Vector    5  Occ=1.000000D+00  E=-4.634916D+00
              MO Center=  8.0D-18, -6.1D-17, -4.5D-17, r^2= 8.4D-02
   Bfn.  Coefficient  Atom+Function         Bfn.  Coefficient  Atom+Function  
  ----- ------------  ---------------      ----- ------------  ---------------
     6      0.837266  1 P  py                 7      0.426049  1 P  pz         
     5      0.326562  1 P  px         

 Vector    6  Occ=1.000000D+00  E=-5.408644D-01
              MO Center= -2.5D-16, -3.3D-17, -5.2D-16, r^2= 1.2D+00
   Bfn.  Coefficient  Atom+Function         Bfn.  Coefficient  Atom+Function  
  ----- ------------  ---------------      ----- ------------  ---------------
     3      0.601115  1 P  s                  4     -0.452819  1 P  s          
     2      0.362578  1 P  s          

 Vector    7  Occ=1.000000D+00  E=-2.219616D-01
              MO Center=  3.7D-16,  3.5D-16,  2.9D-16, r^2= 1.8D+00
   Bfn.  Coefficient  Atom+Function         Bfn.  Coefficient  Atom+Function  
  ----- ------------  ---------------      ----- ------------  ---------------
     9      0.525267  1 P  py                10      0.490306  1 P  pz         
     8      0.311077  1 P  px                12     -0.232695  1 P  py         
    13     -0.217207  1 P  pz                 6     -0.185768  1 P  py         
     7     -0.173403  1 P  pz         

 Vector    8  Occ=1.000000D+00  E=-2.219616D-01
              MO Center=  8.3D-17, -2.5D-16, -1.3D-16, r^2= 1.8D+00
   Bfn.  Coefficient  Atom+Function         Bfn.  Coefficient  Atom+Function  
  ----- ------------  ---------------      ----- ------------  ---------------
     8      0.622126  1 P  px                 9     -0.464224  1 P  py         
    11     -0.275604  1 P  px                 5     -0.220023  1 P  px         
    12      0.205653  1 P  py                 6      0.164179  1 P  py         

 Vector    9  Occ=1.000000D+00  E=-2.219616D-01
              MO Center= -2.0D-16, -1.4D-16,  2.0D-16, r^2= 1.8D+00
   Bfn.  Coefficient  Atom+Function         Bfn.  Coefficient  Atom+Function  
  ----- ------------  ---------------      ----- ------------  ---------------
    10      0.601784  1 P  pz                 8     -0.359533  1 P  px         
     9     -0.348805  1 P  py                13     -0.266593  1 P  pz         
     7     -0.212829  1 P  pz                11      0.159275  1 P  px         
    12      0.154522  1 P  py         

 Vector   10  Occ=0.000000D+00  E= 2.450241D-01
              MO Center= -2.7D-17, -5.5D-16, -5.7D-15, r^2= 4.5D+00
   Bfn.  Coefficient  Atom+Function         Bfn.  Coefficient  Atom+Function  
  ----- ------------  ---------------      ----- ------------  ---------------
    13      1.238880  1 P  pz                10      1.101471  1 P  pz         
     7     -0.270402  1 P  pz         

 Vector   11  Occ=0.000000D+00  E= 2.450241D-01
              MO Center= -7.6D-16, -7.8D-15,  6.5D-16, r^2= 4.5D+00
   Bfn.  Coefficient  Atom+Function         Bfn.  Coefficient  Atom+Function  
  ----- ------------  ---------------      ----- ------------  ---------------
    12      1.233583  1 P  py                 9      1.096761  1 P  py         
     6     -0.269246  1 P  py         

 Vector   12  Occ=0.000000D+00  E= 2.450241D-01
              MO Center= -4.8D-15,  2.5D-16, -1.6D-16, r^2= 4.5D+00
   Bfn.  Coefficient  Atom+Function         Bfn.  Coefficient  Atom+Function  
  ----- ------------  ---------------      ----- ------------  ---------------
    11      1.237920  1 P  px                 8      1.100617  1 P  px         
     5     -0.270193  1 P  px         

 Vector   13  Occ=0.000000D+00  E= 2.693992D-01
              MO Center=  5.0D-15,  7.4D-15,  5.0D-15, r^2= 3.0D+00
   Bfn.  Coefficient  Atom+Function         Bfn.  Coefficient  Atom+Function  
  ----- ------------  ---------------      ----- ------------  ---------------
     4      1.836538  1 P  s                  3      1.535397  1 P  s          

 Vector   14  Occ=0.000000D+00  E= 6.095860D-01
              MO Center=  1.8D-17, -1.4D-16, -2.3D-16, r^2= 8.9D-01
   Bfn.  Coefficient  Atom+Function         Bfn.  Coefficient  Atom+Function  
  ----- ------------  ---------------      ----- ------------  ---------------
    18      1.701426  1 P  dyz               16     -0.300497  1 P  dxz        

 Vector   15  Occ=0.000000D+00  E= 6.095860D-01
              MO Center=  1.2D-16, -2.7D-17,  2.3D-16, r^2= 8.9D-01
   Bfn.  Coefficient  Atom+Function         Bfn.  Coefficient  Atom+Function  
  ----- ------------  ---------------      ----- ------------  ---------------
    16      1.669139  1 P  dxz               15     -0.341745  1 P  dxy        
    18      0.297513  1 P  dyz        

 Vector   16  Occ=0.000000D+00  E= 6.095860D-01
              MO Center=  4.0D-16,  7.3D-16,  1.5D-16, r^2= 8.9D-01
   Bfn.  Coefficient  Atom+Function         Bfn.  Coefficient  Atom+Function  
  ----- ------------  ---------------      ----- ------------  ---------------
    15      1.696908  1 P  dxy               16      0.341941  1 P  dxz        

 Vector   17  Occ=0.000000D+00  E= 6.095860D-01
              MO Center=  4.4D-16,  1.9D-16, -5.3D-17, r^2= 8.9D-01
   Bfn.  Coefficient  Atom+Function         Bfn.  Coefficient  Atom+Function  
  ----- ------------  ---------------      ----- ------------  ---------------
    14      0.997700  1 P  dxx               17     -0.499233  1 P  dyy        
    19     -0.498467  1 P  dzz        

 Vector   18  Occ=0.000000D+00  E= 6.095860D-01
              MO Center= -8.0D-18,  3.4D-18,  1.9D-16, r^2= 8.9D-01
   Bfn.  Coefficient  Atom+Function         Bfn.  Coefficient  Atom+Function  
  ----- ------------  ---------------      ----- ------------  ---------------
    17      0.864507  1 P  dyy               19     -0.864321  1 P  dzz        

 Vector   19  Occ=0.000000D+00  E= 3.266296D+00
              MO Center=  8.3D-17,  7.0D-17, -2.5D-17, r^2= 7.5D-01
   Bfn.  Coefficient  Atom+Function         Bfn.  Coefficient  Atom+Function  
  ----- ------------  ---------------      ----- ------------  ---------------
     3      5.881149  1 P  s                 14      2.590671  1 P  dxx        
    17      2.590671  1 P  dyy               19      2.590671  1 P  dzz        
     2      0.632510  1 P  s                  1      0.204399  1 P  s          


                     DFT Final Beta Molecular Orbital Analysis
                     -----------------------------------------

 Vector    1  Occ=1.000000D+00  E=-7.658958D+01
              MO Center=  3.1D-18, -6.3D-19,  2.0D-18, r^2= 4.1D-03
   Bfn.  Coefficient  Atom+Function         Bfn.  Coefficient  Atom+Function  
  ----- ------------  ---------------      ----- ------------  ---------------
     1      0.996288  1 P  s          

 Vector    2  Occ=1.000000D+00  E=-6.402246D+00
              MO Center=  5.0D-17,  9.3D-17,  1.7D-16, r^2= 9.1D-02
   Bfn.  Coefficient  Atom+Function         Bfn.  Coefficient  Atom+Function  
  ----- ------------  ---------------      ----- ------------  ---------------
     2      1.043070  1 P  s                  1      0.299134  1 P  s          

 Vector    3  Occ=1.000000D+00  E=-4.612568D+00
              MO Center=  5.8D-17, -5.0D-17, -1.9D-17, r^2= 8.3D-02
   Bfn.  Coefficient  Atom+Function         Bfn.  Coefficient  Atom+Function  
  ----- ------------  ---------------      ----- ------------  ---------------
     7      0.931157  1 P  pz                 5     -0.346845  1 P  px         

 Vector    4  Occ=1.000000D+00  E=-4.612568D+00
              MO Center= -4.0D-17, -3.8D-20, -1.1D-17, r^2= 8.3D-02
   Bfn.  Coefficient  Atom+Function         Bfn.  Coefficient  Atom+Function  
  ----- ------------  ---------------      ----- ------------  ---------------
     5      0.933928  1 P  px                 7      0.345375  1 P  pz         

 Vector    5  Occ=1.000000D+00  E=-4.612568D+00
              MO Center=  3.4D-17, -6.1D-17,  4.0D-17, r^2= 8.3D-02
   Bfn.  Coefficient  Atom+Function         Bfn.  Coefficient  Atom+Function  
  ----- ------------  ---------------      ----- ------------  ---------------
     6      0.993131  1 P  py         

 Vector    6  Occ=1.000000D+00  E=-3.714671D-01
              MO Center=  4.0D-16,  5.8D-17, -4.8D-16, r^2= 1.3D+00
   Bfn.  Coefficient  Atom+Function         Bfn.  Coefficient  Atom+Function  
  ----- ------------  ---------------      ----- ------------  ---------------
     3      0.601567  1 P  s                  4     -0.513871  1 P  s          
     2      0.362845  1 P  s          

 Vector    7  Occ=0.000000D+00  E=-6.454896D-02
              MO Center=  1.1D-16, -1.3D-16, -3.0D-17, r^2= 2.2D+00
   Bfn.  Coefficient  Atom+Function         Bfn.  Coefficient  Atom+Function  
  ----- ------------  ---------------      ----- ------------  ---------------
     9      0.632297  1 P  py                12     -0.486458  1 P  py         
     6     -0.234853  1 P  py         

 Vector    8  Occ=0.000000D+00  E=-6.454896D-02
              MO Center= -2.3D-16, -6.7D-18,  1.7D-16, r^2= 2.2D+00
   Bfn.  Coefficient  Atom+Function         Bfn.  Coefficient  Atom+Function  
  ----- ------------  ---------------      ----- ------------  ---------------
     8      0.453089  1 P  px                10     -0.451005  1 P  pz         
    11     -0.348585  1 P  px                13      0.346981  1 P  pz         
     5     -0.168290  1 P  px                 7      0.167516  1 P  pz         

 Vector    9  Occ=0.000000D+00  E=-6.454896D-02
              MO Center=  4.4D-17, -1.8D-17, -1.2D-16, r^2= 2.2D+00
   Bfn.  Coefficient  Atom+Function         Bfn.  Coefficient  Atom+Function  
  ----- ------------  ---------------      ----- ------------  ---------------
    10      0.458463  1 P  pz                 8      0.441361  1 P  px         
    13     -0.352719  1 P  pz                11     -0.339561  1 P  px         
     7     -0.170286  1 P  pz                 5     -0.163934  1 P  px         

 Vector   10  Occ=0.000000D+00  E= 3.338743D-01
              MO Center= -6.6D-16, -1.0D-15,  5.9D-15, r^2= 4.1D+00
   Bfn.  Coefficient  Atom+Function         Bfn.  Coefficient  Atom+Function  
  ----- ------------  ---------------      ----- ------------  ---------------
    10      1.163951  1 P  pz                13      1.164026  1 P  pz         
     7     -0.292649  1 P  pz                 9     -0.210437  1 P  py         
    12     -0.210450  1 P  py                 8     -0.152905  1 P  px         
    11     -0.152915  1 P  px         

 Vector   11  Occ=0.000000D+00  E= 3.338743D-01
              MO Center=  3.4D-16,  2.0D-15,  4.1D-16, r^2= 4.1D+00
   Bfn.  Coefficient  Atom+Function         Bfn.  Coefficient  Atom+Function  
  ----- ------------  ---------------      ----- ------------  ---------------
     9      1.156611  1 P  py                12      1.156685  1 P  py         
     6     -0.290803  1 P  py                10      0.232164  1 P  pz         
    13      0.232179  1 P  pz                 8      0.175492  1 P  px         
    11      0.175503  1 P  px         

 Vector   12  Occ=0.000000D+00  E= 3.338743D-01
              MO Center=  5.1D-16, -5.7D-17,  8.4D-17, r^2= 4.1D+00
   Bfn.  Coefficient  Atom+Function         Bfn.  Coefficient  Atom+Function  
  ----- ------------  ---------------      ----- ------------  ---------------
     8      1.169730  1 P  px                11      1.169805  1 P  px         
     5     -0.294102  1 P  px                 9     -0.201032  1 P  py         
    12     -0.201045  1 P  py         

 Vector   13  Occ=0.000000D+00  E= 3.959456D-01
              MO Center=  1.1D-16, -7.9D-16, -5.9D-15, r^2= 2.9D+00
   Bfn.  Coefficient  Atom+Function         Bfn.  Coefficient  Atom+Function  
  ----- ------------  ---------------      ----- ------------  ---------------
     4      1.820387  1 P  s                  3      1.573091  1 P  s          

 Vector   14  Occ=0.000000D+00  E= 8.313118D-01
              MO Center= -3.4D-17,  2.2D-16, -8.6D-17, r^2= 8.9D-01
   Bfn.  Coefficient  Atom+Function         Bfn.  Coefficient  Atom+Function  
  ----- ------------  ---------------      ----- ------------  ---------------
    18      1.694802  1 P  dyz               16     -0.289339  1 P  dxz        
    15     -0.168420  1 P  dxy        

 Vector   15  Occ=0.000000D+00  E= 8.313118D-01
              MO Center=  6.6D-17,  6.7D-17,  2.4D-17, r^2= 8.9D-01
   Bfn.  Coefficient  Atom+Function         Bfn.  Coefficient  Atom+Function  
  ----- ------------  ---------------      ----- ------------  ---------------
    16      1.529277  1 P  dxz               15      0.726012  1 P  dxy        
    18      0.342690  1 P  dyz        

 Vector   16  Occ=0.000000D+00  E= 8.313118D-01
              MO Center= -1.4D-16, -2.2D-17,  4.0D-18, r^2= 8.9D-01
   Bfn.  Coefficient  Atom+Function         Bfn.  Coefficient  Atom+Function  
  ----- ------------  ---------------      ----- ------------  ---------------
    15      1.561069  1 P  dxy               16     -0.744774  1 P  dxz        

 Vector   17  Occ=0.000000D+00  E= 8.313118D-01
              MO Center=  7.6D-18, -1.0D-16, -4.2D-16, r^2= 8.9D-01
   Bfn.  Coefficient  Atom+Function         Bfn.  Coefficient  Atom+Function  
  ----- ------------  ---------------      ----- ------------  ---------------
    19      0.994455  1 P  dzz               17     -0.520105  1 P  dyy        
    14     -0.474350  1 P  dxx        

 Vector   18  Occ=0.000000D+00  E= 8.313118D-01
              MO Center= -1.1D-16, -2.3D-16, -1.3D-17, r^2= 8.9D-01
   Bfn.  Coefficient  Atom+Function         Bfn.  Coefficient  Atom+Function  
  ----- ------------  ---------------      ----- ------------  ---------------
    14      0.876507  1 P  dxx               17     -0.852443  1 P  dyy        

 Vector   19  Occ=0.000000D+00  E= 3.462822D+00
              MO Center=  2.4D-17,  3.0D-17, -2.5D-17, r^2= 7.6D-01
   Bfn.  Coefficient  Atom+Function         Bfn.  Coefficient  Atom+Function  
  ----- ------------  ---------------      ----- ------------  ---------------
     3      5.871029  1 P  s                 14      2.591036  1 P  dxx        
    17      2.591036  1 P  dyy               19      2.591036  1 P  dzz        
     2      0.626937  1 P  s                  1      0.202726  1 P  s          


   alpha - beta orbital overlaps 
   ----------------------------- 


   alpha      1      2      3      4      5      6      7      8      9     10
    beta      1      2      3      4      5      6      9      7      8     10
 overlap   1.000  1.000  0.875  0.850  0.875  0.999  0.811  0.726  0.905  0.952


   alpha     11     12     13     14     15     16     17     18     19
    beta     11     12     13     14     15     16     18     17     19
 overlap   0.952  0.987  0.999  0.994  0.802  0.800  0.876  0.878  1.000

     --------------------------
     Expectation value of S2:  
     --------------------------
      <S2> =      3.7512 (Exact =     3.7500)


 Parallel integral file used       4 records with       0 large values


 Task  times  cpu:        0.7s     wall:        0.9s


                                NWChem Input Module
                                -------------------


  xc_inp: hfexch multiplicative factor not found.

                                 NWChem DFT Module
                                 -----------------


  Caching 1-el integrals 

            General Information
            -------------------
          SCF calculation type: DFT
          Wavefunction type:  spin polarized.
          No. of atoms     :     1
          No. of electrons :    15
           Alpha electrons :     9
            Beta electrons :     6
          Charge           :     0
          Spin multiplicity:     4
          Use of symmetry is: off; symmetry adaption is: off
          Maximum number of iterations:  30
          AO basis - number of functions:    19
                     number of shells:     8
          Convergence on energy requested: 1.00D-06
          Convergence on density requested: 1.00D-05
          Convergence on gradient requested: 5.00D-04

              XC Information
              --------------
                     Hartree-Fock (Exact) Exchange  1.000          
            Perdew 1991 LDA Correlation Functional  1.000 local    

             Grid Information
             ----------------
          Grid used for XC integration:  medium    
          Radial quadrature: Mura-Knowles        
          Angular quadrature: Lebedev. 
          Tag              B.-S. Rad. Rad. Pts. Rad. Cut. Ang. Pts.
          ---              ---------- --------- --------- ---------
          P                   1.00       88           6.0       590
          Grid pruning is: on 
          Number of quadrature shells:    88
          Spatial weights used:  Erf1

          Convergence Information
          -----------------------
          Convergence aids based upon iterative change in 
          total energy or number of iterations. 
          Levelshifting, if invoked, occurs when the 
          HOMO/LUMO gap drops below (HL_TOL): 1.00D-02
          DIIS, if invoked, will attempt to extrapolate 
          using up to (NFOCK): 10 stored Fock matrices.

                    Damping( 0%)  Levelshifting(0.5)       DIIS
                  --------------- ------------------- ---------------
          dE  on:    start            ASAP                start   
          dE off:    2 iters         30 iters            30 iters 


      Screening Tolerance Information
      -------------------------------
          Density screening/tol_rho: 1.00D-10
          AO Gaussian exp screening on grid/accAOfunc:  14
          CD Gaussian exp screening on grid/accCDfunc:  20
          XC Gaussian exp screening on grid/accXCfunc:  20
          Schwarz screening/accCoul: 1.00D-08


      Superposition of Atomic Density Guess
      -------------------------------------

 Sum of atomic energies:        -340.59105084

      Non-variational initial energy
      ------------------------------

 Total energy =    -340.302856
 1-e energy   =    -471.084403
 2-e energy   =     130.781547
 HOMO         =      -0.168362
 LUMO         =      -0.168362

   Time after variat. SCF:      1.5
   Time prior to 1st pass:      1.5

 #quartets = 6.660D+02 #integrals = 3.754D+03 #direct =  0.0% #cached =100.0%


 Integral file          = /home/d3y133/nwchem-dev/nwchem-ref/QA/scratchdir/nwxc_dat.aoints.0
 Record size in doubles =  65536        No. of integs per rec  =  43688
 Max. records in memory =      2        Max. records in file   =   1477
 No. of bits per label  =      8        No. of bits per value  =     64


File balance: exchanges=     0  moved=     0  time=   0.0


 Grid_pts file          = /home/d3y133/nwchem-dev/nwchem-ref/QA/scratchdir/nwxc_dat.gridpts.0
 Record size in doubles =  12289        No. of grid_pts per rec  =   3070
 Max. records in memory =      6        Max. recs in file   =      7883


           Memory utilization after 1st SCF pass: 
           Heap Space remaining (MW):       12.90            12899962
          Stack Space remaining (MW):       13.11            13106944

   convergence    iter        energy       DeltaE   RMS-Dens  Diis-err    time
 ---------------- ----- ----------------- --------- --------- ---------  ------
 d= 0,ls=0.0,diis     1   -341.7443708044 -3.42D+02  1.79D-02  2.95D-02     1.6
                                                     5.12D-03  2.53D-03
  Resetting Diis
 d= 0,ls=0.0,diis     2   -341.7651442597 -2.08D-02  3.13D-03  1.03D-03     1.6
                                                     3.24D-03  1.15D-03
 d= 0,ls=0.0,diis     3   -341.7661399165 -9.96D-04  9.91D-04  8.07D-05     1.6
                                                     1.22D-03  1.21D-04
 d= 0,ls=0.0,diis     4   -341.7662802245 -1.40D-04  5.55D-04  9.70D-06     1.7
                                                     8.12D-04  2.08D-05
 d= 0,ls=0.0,diis     5   -341.7663053477 -2.51D-05  4.17D-05  1.06D-07     1.7
                                                     3.55D-05  4.57D-08
 d= 0,ls=0.0,diis     6   -341.7663054235 -7.58D-08  2.24D-06  5.03D-10     1.7
                                                     1.79D-06  2.66D-10


         Total DFT energy =     -341.766305423515
      One electron energy =     -471.704395617345
           Coulomb energy =      153.661045810461
    Exchange-Corr. energy =      -23.722955616631
 Nuclear repulsion energy =        0.000000000000

[...]
     1      0.996831  1 P  s          

 Vector    2  Occ=1.000000D+00  E=-6.312460D+00
              MO Center=  3.6D-17,  2.1D-17, -6.6D-17, r^2= 9.1D-02
   Bfn.  Coefficient  Atom+Function         Bfn.  Coefficient  Atom+Function  
  ----- ------------  ---------------      ----- ------------  ---------------
     2      1.042145  1 P  s                  1      0.297585  1 P  s          

 Vector    3  Occ=1.000000D+00  E=-4.530842D+00
              MO Center= -1.4D-17, -1.8D-17,  1.6D-18, r^2= 8.4D-02
   Bfn.  Coefficient  Atom+Function         Bfn.  Coefficient  Atom+Function  
  ----- ------------  ---------------      ----- ------------  ---------------
     5      0.647600  1 P  px                 7      0.535445  1 P  pz         
     6     -0.532639  1 P  py         

 Vector    4  Occ=1.000000D+00  E=-4.530842D+00
              MO Center= -1.0D-17, -2.6D-17, -2.4D-17, r^2= 8.4D-02
   Bfn.  Coefficient  Atom+Function         Bfn.  Coefficient  Atom+Function  
  ----- ------------  ---------------      ----- ------------  ---------------
     6      0.838250  1 P  py                 5      0.453656  1 P  px         
     7      0.285177  1 P  pz         

 Vector    5  Occ=1.000000D+00  E=-4.530842D+00
              MO Center= -1.3D-17,  1.6D-17,  7.3D-17, r^2= 8.4D-02
   Bfn.  Coefficient  Atom+Function         Bfn.  Coefficient  Atom+Function  
  ----- ------------  ---------------      ----- ------------  ---------------
     7      0.788520  1 P  pz                 5     -0.603823  1 P  px         

 Vector    6  Occ=1.000000D+00  E=-5.160794D-01
              MO Center= -1.5D-16,  3.8D-16, -2.4D-17, r^2= 1.2D+00
   Bfn.  Coefficient  Atom+Function         Bfn.  Coefficient  Atom+Function  
  ----- ------------  ---------------      ----- ------------  ---------------
     3      0.604742  1 P  s                  4     -0.441089  1 P  s          
     2      0.358954  1 P  s          

 Vector    7  Occ=1.000000D+00  E=-2.077457D-01
              MO Center= -3.1D-17, -2.6D-16,  1.3D-16, r^2= 1.8D+00
   Bfn.  Coefficient  Atom+Function         Bfn.  Coefficient  Atom+Function  
  ----- ------------  ---------------      ----- ------------  ---------------
     9      0.636886  1 P  py                10     -0.402159  1 P  pz         
    12     -0.305194  1 P  py                 6     -0.226151  1 P  py         
    13      0.192714  1 P  pz         

 Vector    8  Occ=1.000000D+00  E=-2.077457D-01
              MO Center=  2.8D-17,  3.9D-17, -2.5D-16, r^2= 1.8D+00
   Bfn.  Coefficient  Atom+Function         Bfn.  Coefficient  Atom+Function  
  ----- ------------  ---------------      ----- ------------  ---------------
    10      0.641308  1 P  pz                 9      0.414869  1 P  py         
    13     -0.307313  1 P  pz                 7     -0.227722  1 P  pz         
    12     -0.198804  1 P  py         

 Vector    9  Occ=1.000000D+00  E=-2.077457D-01
              MO Center=  6.0D-17, -6.0D-18, -1.8D-17, r^2= 1.8D+00
   Bfn.  Coefficient  Atom+Function         Bfn.  Coefficient  Atom+Function  
  ----- ------------  ---------------      ----- ------------  ---------------
     8      0.751776  1 P  px                11     -0.360249  1 P  px         
     5     -0.266947  1 P  px         

 Vector   10  Occ=0.000000D+00  E= 2.078295D-01
              MO Center=  1.2D-16, -3.6D-16,  7.8D-16, r^2= 4.5D+00
   Bfn.  Coefficient  Atom+Function         Bfn.  Coefficient  Atom+Function  
  ----- ------------  ---------------      ----- ------------  ---------------
    13      1.131770  1 P  pz                10      1.022186  1 P  pz         
    12     -0.434488  1 P  py                 9     -0.392419  1 P  py         
     7     -0.251889  1 P  pz                11      0.251887  1 P  px         
     8      0.227497  1 P  px         

 Vector   11  Occ=0.000000D+00  E= 2.078295D-01
              MO Center= -3.2D-16,  8.1D-15,  3.1D-15, r^2= 4.5D+00
   Bfn.  Coefficient  Atom+Function         Bfn.  Coefficient  Atom+Function  
  ----- ------------  ---------------      ----- ------------  ---------------
    12      1.152403  1 P  py                 9      1.040821  1 P  py         
    13      0.451166  1 P  pz                10      0.407481  1 P  pz         
     6     -0.256481  1 P  py         

 Vector   12  Occ=0.000000D+00  E= 2.078295D-01
              MO Center=  1.5D-15,  1.2D-16, -3.7D-16, r^2= 4.5D+00
   Bfn.  Coefficient  Atom+Function         Bfn.  Coefficient  Atom+Function  
  ----- ------------  ---------------      ----- ------------  ---------------
    11      1.211667  1 P  px                 8      1.094346  1 P  px         
     5     -0.269671  1 P  px                13     -0.220628  1 P  pz         
    10     -0.199265  1 P  pz         

 Vector   13  Occ=0.000000D+00  E= 2.525624D-01
              MO Center= -1.4D-15, -8.0D-15, -3.5D-15, r^2= 3.0D+00
   Bfn.  Coefficient  Atom+Function         Bfn.  Coefficient  Atom+Function  
  ----- ------------  ---------------      ----- ------------  ---------------
     4      1.839458  1 P  s                  3      1.506292  1 P  s          

 Vector   14  Occ=0.000000D+00  E= 5.884824D-01
              MO Center= -5.2D-17, -1.1D-17, -1.1D-16, r^2= 8.9D-01
   Bfn.  Coefficient  Atom+Function         Bfn.  Coefficient  Atom+Function  
  ----- ------------  ---------------      ----- ------------  ---------------
    14      0.916273  1 P  dxx               19     -0.740738  1 P  dzz        
    15      0.354647  1 P  dxy               18      0.183752  1 P  dyz        
    17     -0.175535  1 P  dyy        

 Vector   15  Occ=0.000000D+00  E= 5.884824D-01
              MO Center= -3.2D-17,  1.3D-16, -3.1D-16, r^2= 8.9D-01
   Bfn.  Coefficient  Atom+Function         Bfn.  Coefficient  Atom+Function  
  ----- ------------  ---------------      ----- ------------  ---------------
    18      1.549068  1 P  dyz               16     -0.710751  1 P  dxz        
    15     -0.287286  1 P  dxy        

 Vector   16  Occ=0.000000D+00  E= 5.884824D-01
              MO Center= -4.1D-16, -1.5D-16,  2.8D-16, r^2= 8.9D-01
   Bfn.  Coefficient  Atom+Function         Bfn.  Coefficient  Atom+Function  
  ----- ------------  ---------------      ----- ------------  ---------------
    16      1.560997  1 P  dxz               18      0.728071  1 P  dyz        

 Vector   17  Occ=0.000000D+00  E= 5.884824D-01
              MO Center=  3.1D-16,  5.3D-16, -8.4D-17, r^2= 8.9D-01
   Bfn.  Coefficient  Atom+Function         Bfn.  Coefficient  Atom+Function  
  ----- ------------  ---------------      ----- ------------  ---------------
    15      1.661635  1 P  dxy               16     -0.229859  1 P  dxz        
    14     -0.227203  1 P  dxx               18      0.175042  1 P  dyz        

 Vector   18  Occ=0.000000D+00  E= 5.884824D-01
              MO Center= -1.9D-19, -4.4D-16,  4.3D-17, r^2= 8.9D-01
   Bfn.  Coefficient  Atom+Function         Bfn.  Coefficient  Atom+Function  
  ----- ------------  ---------------      ----- ------------  ---------------
    17      0.975044  1 P  dyy               19     -0.660700  1 P  dzz        
    14     -0.314344  1 P  dxx        

 Vector   19  Occ=0.000000D+00  E= 3.163631D+00
              MO Center= -1.2D-17, -3.5D-17, -2.8D-17, r^2= 7.5D-01
   Bfn.  Coefficient  Atom+Function         Bfn.  Coefficient  Atom+Function  
  ----- ------------  ---------------      ----- ------------  ---------------
     3      5.888272  1 P  s                 14      2.590102  1 P  dxx        
    17      2.590102  1 P  dyy               19      2.590102  1 P  dzz        
     2      0.632627  1 P  s                  1      0.204028  1 P  s          


                     DFT Final Beta Molecular Orbital Analysis
                     -----------------------------------------

 Vector    1  Occ=1.000000D+00  E=-7.637880D+01
              MO Center=  2.4D-19, -1.3D-18, -1.8D-18, r^2= 4.1D-03
   Bfn.  Coefficient  Atom+Function         Bfn.  Coefficient  Atom+Function  
  ----- ------------  ---------------      ----- ------------  ---------------
     1      0.996859  1 P  s          

 Vector    2  Occ=1.000000D+00  E=-6.301455D+00
              MO Center= -3.4D-17,  3.1D-17,  1.1D-16, r^2= 9.1D-02
   Bfn.  Coefficient  Atom+Function         Bfn.  Coefficient  Atom+Function  
  ----- ------------  ---------------      ----- ------------  ---------------
     2      1.042394  1 P  s                  1      0.297610  1 P  s          

 Vector    3  Occ=1.000000D+00  E=-4.514927D+00
              MO Center= -1.7D-17,  1.1D-17,  3.2D-18, r^2= 8.3D-02
   Bfn.  Coefficient  Atom+Function         Bfn.  Coefficient  Atom+Function  
  ----- ------------  ---------------      ----- ------------  ---------------
     7      0.877622  1 P  pz                 5      0.438741  1 P  px         
     6      0.169066  1 P  py         

 Vector    4  Occ=1.000000D+00  E=-4.514927D+00
              MO Center=  4.1D-17,  1.5D-17, -4.3D-18, r^2= 8.3D-02
   Bfn.  Coefficient  Atom+Function         Bfn.  Coefficient  Atom+Function  
  ----- ------------  ---------------      ----- ------------  ---------------
     5      0.715195  1 P  px                 6      0.519911  1 P  py         
     7     -0.457696  1 P  pz         

 Vector    5  Occ=1.000000D+00  E=-4.514927D+00
              MO Center=  7.3D-17, -6.1D-17,  4.8D-17, r^2= 8.3D-02
   Bfn.  Coefficient  Atom+Function         Bfn.  Coefficient  Atom+Function  
  ----- ------------  ---------------      ----- ------------  ---------------
     6      0.832110  1 P  py                 5     -0.536004  1 P  px         

 Vector    6  Occ=1.000000D+00  E=-3.866583D-01
              MO Center=  9.4D-17,  5.7D-16, -2.1D-16, r^2= 1.2D+00
   Bfn.  Coefficient  Atom+Function         Bfn.  Coefficient  Atom+Function  
  ----- ------------  ---------------      ----- ------------  ---------------
     3      0.651412  1 P  s                  4     -0.472948  1 P  s          
     2      0.364332  1 P  s          

 Vector    7  Occ=0.000000D+00  E=-9.099111D-02
              MO Center=  1.4D-16,  1.6D-16,  4.9D-17, r^2= 2.2D+00
   Bfn.  Coefficient  Atom+Function         Bfn.  Coefficient  Atom+Function  
  ----- ------------  ---------------      ----- ------------  ---------------
    10      0.642964  1 P  pz                13     -0.465049  1 P  pz         
     7     -0.237509  1 P  pz                 8      0.150058  1 P  px         

 Vector    8  Occ=0.000000D+00  E=-9.099111D-02
              MO Center=  6.1D-17, -3.5D-16,  1.7D-16, r^2= 2.2D+00
   Bfn.  Coefficient  Atom+Function         Bfn.  Coefficient  Atom+Function  
  ----- ------------  ---------------      ----- ------------  ---------------
     9      0.657938  1 P  py                12     -0.475879  1 P  py         
     6     -0.243040  1 P  py         

 Vector    9  Occ=0.000000D+00  E=-9.099111D-02
              MO Center=  1.9D-16,  3.5D-17, -4.9D-17, r^2= 2.2D+00
   Bfn.  Coefficient  Atom+Function         Bfn.  Coefficient  Atom+Function  
  ----- ------------  ---------------      ----- ------------  ---------------
     8      0.640610  1 P  px                11     -0.463346  1 P  px         
     5     -0.236639  1 P  px                10     -0.150959  1 P  pz         

 Vector   10  Occ=0.000000D+00  E= 2.717377D-01
              MO Center=  9.4D-16,  4.5D-15, -5.6D-16, r^2= 4.2D+00
   Bfn.  Coefficient  Atom+Function         Bfn.  Coefficient  Atom+Function  
  ----- ------------  ---------------      ----- ------------  ---------------
    12      1.162737  1 P  py                 9      1.146738  1 P  py         
     6     -0.288716  1 P  py                13     -0.218397  1 P  pz         
    10     -0.215392  1 P  pz                11      0.199369  1 P  px         
     8      0.196625  1 P  px         

 Vector   11  Occ=0.000000D+00  E= 2.717377D-01
              MO Center= -1.8D-15,  5.8D-16,  1.4D-15, r^2= 4.2D+00
   Bfn.  Coefficient  Atom+Function         Bfn.  Coefficient  Atom+Function  
  ----- ------------  ---------------      ----- ------------  ---------------
    13     -0.853267  1 P  pz                10     -0.841527  1 P  pz         
    11      0.789871  1 P  px                 8      0.779002  1 P  px         
    12     -0.295704  1 P  py                 9     -0.291635  1 P  py         
     7      0.211872  1 P  pz                 5     -0.196131  1 P  px         

 Vector   12  Occ=0.000000D+00  E= 2.717377D-01
              MO Center= -6.1D-16,  7.3D-17, -6.6D-16, r^2= 4.2D+00
   Bfn.  Coefficient  Atom+Function         Bfn.  Coefficient  Atom+Function  
  ----- ------------  ---------------      ----- ------------  ---------------
    11      0.880771  1 P  px                 8      0.868652  1 P  px         
    13      0.814641  1 P  pz                10      0.803432  1 P  pz         
     5     -0.218702  1 P  px                 7     -0.202281  1 P  pz         

 Vector   13  Occ=0.000000D+00  E= 3.246394D-01
              MO Center=  1.3D-15, -4.6D-15, -6.7D-17, r^2= 3.0D+00
   Bfn.  Coefficient  Atom+Function         Bfn.  Coefficient  Atom+Function  
  ----- ------------  ---------------      ----- ------------  ---------------
     4      1.831514  1 P  s                  3      1.540215  1 P  s          

 Vector   14  Occ=0.000000D+00  E= 7.306087D-01
              MO Center=  1.1D-16, -5.1D-16,  9.0D-17, r^2= 8.9D-01
   Bfn.  Coefficient  Atom+Function         Bfn.  Coefficient  Atom+Function  
  ----- ------------  ---------------      ----- ------------  ---------------
    18      1.678784  1 P  dyz               16     -0.382170  1 P  dxz        

 Vector   15  Occ=0.000000D+00  E= 7.306087D-01
              MO Center= -3.5D-17, -4.1D-16, -3.1D-17, r^2= 8.9D-01
   Bfn.  Coefficient  Atom+Function         Bfn.  Coefficient  Atom+Function  
  ----- ------------  ---------------      ----- ------------  ---------------
    15      1.692498  1 P  dxy               18      0.162045  1 P  dyz        
    16      0.154215  1 P  dxz        

 Vector   16  Occ=0.000000D+00  E= 7.306087D-01
              MO Center= -1.7D-16,  2.0D-17,  8.5D-17, r^2= 8.9D-01
   Bfn.  Coefficient  Atom+Function         Bfn.  Coefficient  Atom+Function  
  ----- ------------  ---------------      ----- ------------  ---------------
    16      1.451872  1 P  dxz               19     -0.489787  1 P  dzz        
    14      0.355601  1 P  dxx               18      0.290638  1 P  dyz        
    15     -0.197229  1 P  dxy        

 Vector   17  Occ=0.000000D+00  E= 7.306087D-01
              MO Center=  5.8D-16, -2.1D-16,  3.5D-17, r^2= 8.9D-01
   Bfn.  Coefficient  Atom+Function         Bfn.  Coefficient  Atom+Function  
  ----- ------------  ---------------      ----- ------------  ---------------
    14      0.920866  1 P  dxx               17     -0.584667  1 P  dyy        
    16     -0.544755  1 P  dxz               19     -0.336198  1 P  dzz        
    18     -0.251223  1 P  dyz               15     -0.185502  1 P  dxy        

 Vector   18  Occ=0.000000D+00  E= 7.306087D-01
              MO Center= -1.4D-17,  1.9D-18, -7.8D-17, r^2= 8.9D-01
   Bfn.  Coefficient  Atom+Function         Bfn.  Coefficient  Atom+Function  
  ----- ------------  ---------------      ----- ------------  ---------------
    19     -0.804371  1 P  dzz               17      0.784585  1 P  dyy        
    16     -0.652284  1 P  dxz               15      0.201807  1 P  dxy        

 Vector   19  Occ=0.000000D+00  E= 3.234352D+00
              MO Center= -5.6D-17,  1.8D-17, -2.7D-17, r^2= 7.6D-01
   Bfn.  Coefficient  Atom+Function         Bfn.  Coefficient  Atom+Function  
  ----- ------------  ---------------      ----- ------------  ---------------
     3      5.874507  1 P  s                 14      2.590681  1 P  dxx        
    17      2.590681  1 P  dyy               19      2.590681  1 P  dzz        
     2      0.628389  1 P  s                  1      0.202729  1 P  s          


   alpha - beta orbital overlaps 
   ----------------------------- 


   alpha      1      2      3      4      5      6      7      8      9     10
    beta      1      2      5      4      4      6      8      7      9     12
 overlap   1.000  1.000  0.740  0.636  0.770  1.000  0.807  0.812  0.973  0.766


   alpha     11     12     13     14     15     16     17     18     19
    beta     10     11     13     17     14     16     15     18     19
 overlap   0.827  0.742  1.000  0.751  0.967  0.780  0.901  0.841  1.000

     --------------------------
     Expectation value of S2:  
     --------------------------
      <S2> =      3.7505 (Exact =     3.7500)


 Parallel integral file used       4 records with       0 large values


 Task  times  cpu:        0.5s     wall:        0.8s
 Summary of allocated global arrays
-----------------------------------
  No active global arrays



                         GA Statistics for process    0
                         ------------------------------

       create   destroy   get      put      acc     scatter   gather  read&inc
calls: 1856     1856     8384     3586     1880        0        0        0     
number of processes/call 1.08e+00 1.12e+00 1.29e+00 0.00e+00 0.00e+00
bytes total:             1.19e+07 4.08e+06 5.43e+06 0.00e+00 0.00e+00 0.00e+00
bytes remote:            4.97e+05 2.89e+05 3.92e+05 0.00e+00 0.00e+00 0.00e+00
Max memory consumed for GA by this process: 181944 bytes
MA_summarize_allocated_blocks: starting scan ...
MA_summarize_allocated_blocks: scan completed: 0 heap blocks, 0 stack blocks
MA usage statistics:

	allocation statistics:
					      heap	     stack
					      ----	     -----
	current number of blocks	         0	         0
	maximum number of blocks	        23	        47
	current total bytes		         0	         0
	maximum total bytes		   1657544	  22510616
	maximum total K-bytes		      1658	     22511
	maximum total M-bytes		         2	        23


                                NWChem Input Module
                                -------------------





                                     CITATION
                                     --------
                Please cite the following reference when publishing
                           results obtained with NWChem:

                 M. Valiev, E.J. Bylaska, N. Govind, K. Kowalski,
              T.P. Straatsma, H.J.J. van Dam, D. Wang, J. Nieplocha,
                        E. Apra, T.L. Windus, W.A. de Jong
                 "NWChem: a comprehensive and scalable open-source
                  solution for large scale molecular simulations"
                      Comput. Phys. Commun. 181, 1477 (2010)
                           doi:10.1016/j.cpc.2010.04.018

                              AUTHORS & CONTRIBUTORS
                              ----------------------
          E. Apra, E. J. Bylaska, W. A. de Jong, N. Govind, K. Kowalski,
       T. P. Straatsma, M. Valiev, H. J. J. van Dam, D. Wang, T. L. Windus,
    J. Hammond, J. Autschbach, F. Aquino, S. Hirata, M. T. Hackler, K. Lopata,
      J. Mullin, P. Nichols, R. Peverati, Y. Zhao, P.-D. Fan, R. J. Harrison,
        M. Dupuis, D. M. A. Smith, J. Nieplocha, V. Tipparaju, M. Krishnan,
       B. E. Van Kuiken, A. Vazquez-Mayagoitia, L. Jensen, M. Swart, Q. Wu,
   T. Van Voorhis, A. A. Auer, M. Nooijen, L. D. Crosby, E. Brown, G. Cisneros,
      G. I. Fann, H. Fruchtl, J. Garza, K. Hirao, R. Kendall, J. A. Nichols,
        K. Tsemekhman, K. Wolinski, J. Anchell, D. Bernholdt, P. Borowski,
  T. Clark, D. Clerc, H. Dachsel, M. Deegan, K. Dyall, D. Elwood, E. Glendening,
         M. Gutowski, A. Hess, J. Jaffe, B. Johnson, J. Ju, R. Kobayashi,
     R. Kutteh, Z. Lin, R. Littlefield, X. Long, B. Meng, T. Nakajima, S. Niu,
      L. Pollack, M. Rosing, K. Glaesemann, G. Sandrone, M. Stave, H. Taylor,
                  G. Thomas, J. H. van Lenthe, A. Wong, Z. Zhang.

 Total times  cpu:        4.1s     wall:        7.3s
