All connections between all procs tested: SUCCESS
 argument  1 = cosmo_h3co.nw



============================== echo of input deck ==============================
echo

start h3co_dat

geometry
    o      0.00000000     0.00000000     0.27851507
    c      0.00000000     0.00000000     1.63192657
    h      0.26167571    -0.97658705     2.06772417
    h     -0.97658705     0.26167571     2.06772417
    h      0.71491134     0.71491134     2.06772417
end
charge -1

basis
  * library 6-31g*
end

cosmo
  minbem 3
  maxbem 5
end

task scf optimize
================================================================================


                                         
                                         


             Northwest Computational Chemistry Package (NWChem) 6.1.1
             --------------------------------------------------------


                    Environmental Molecular Sciences Laboratory
                       Pacific Northwest National Laboratory
                                Richland, WA 99352

                              Copyright (c) 1994-2012
                       Pacific Northwest National Laboratory
                            Battelle Memorial Institute

             NWChem is an open-source computational chemistry package
                        distributed under the terms of the
                      Educational Community License (ECL) 2.0
             A copy of the license is included with this distribution
                              in the LICENSE.TXT file

                                  ACKNOWLEDGMENT
                                  --------------

            This software and its documentation were developed at the
            EMSL at Pacific Northwest National Laboratory, a multiprogram
            national laboratory, operated for the U.S. Department of Energy
            by Battelle under Contract Number DE-AC05-76RL01830. Support
            for this work was provided by the Department of Energy Office
            of Biological and Environmental Research, Office of Basic
            Energy Sciences, and the Office of Advanced Scientific Computing.


           Job information
           ---------------

    hostname        = arcen
    program         = ../../../bin/LINUX64/nwchem
    date            = Wed Aug 22 23:36:54 2012

    compiled        = Wed_Aug_22_23:25:59_2012
    source          = /home/d3y133/nwchem-dev/nwchem-trunk
    nwchem branch   = Development
    nwchem revision = 22762:22764M
    ga revision     = 10078M
    input           = cosmo_h3co.nw
    prefix          = h3co_dat.
    data base       = ./h3co_dat.db
    status          = startup
    nproc           =        1
    time left       =     -1s



           Memory information
           ------------------

    heap     =   13107201 doubles =    100.0 Mbytes
    stack    =   13107201 doubles =    100.0 Mbytes
    global   =   26214400 doubles =    200.0 Mbytes (distinct from heap & stack)
    total    =   52428802 doubles =    400.0 Mbytes
    verify   = yes
    hardfail = no 


           Directory information
           ---------------------

  0 permanent = .
  0 scratch   = .




                                NWChem Input Module
                                -------------------



 Scaling coordinates for geometry "geometry" by  1.889725989
 (inverse scale =  0.529177249)

 C3V symmetry detected

          ------
          auto-z
          ------
  Looking for out-of-plane bends


                             Geometry "geometry" -> ""
                             -------------------------

 Output coordinates in angstroms (scale by  1.889725989 to convert to a.u.)

  No.       Tag          Charge          X              Y              Z
 ---- ---------------- ---------- -------------- -------------- --------------
    1 o                    8.0000     0.00000000     0.00000000     0.79341743
    2 c                    6.0000     0.00000000     0.00000000    -0.55999407
    3 h                    1.0000     0.71491134     0.71491134    -0.99579167
    4 h                    1.0000    -0.97658705     0.26167571    -0.99579167
    5 h                    1.0000     0.26167571    -0.97658705    -0.99579167

      Atomic Mass 
      ----------- 

      o                 15.994910
      c                 12.000000
      h                  1.007825


 Effective nuclear repulsion energy (a.u.)      34.5058725513

            Nuclear Dipole moment (a.u.) 
            ----------------------------
        X                 Y               Z
 ---------------- ---------------- ----------------
     0.0000000000     0.0000000000     0.0000000000

      Symmetry information
      --------------------

 Group name             C3v       
 Group number             17
 Group order               6
 No. of unique centers     3

      Symmetry unique atoms

     1    2    3



                                Z-matrix (autoz)
                                -------- 

 Units are Angstrom for bonds and degrees for angles

      Type          Name      I     J     K     L     M      Value
      ----------- --------  ----- ----- ----- ----- ----- ----------
    1 Stretch                  1     2                       1.35341
    2 Stretch                  2     3                       1.10096
    3 Stretch                  2     4                       1.10096
    4 Stretch                  2     5                       1.10096
    5 Bend                     1     2     3               113.31798
    6 Bend                     1     2     4               113.31798
    7 Bend                     1     2     5               113.31798
    8 Bend                     3     2     4               105.36538
    9 Bend                     3     2     5               105.36538
   10 Bend                     4     2     5               105.36538


            XYZ format geometry
            -------------------
     5
 geometry
 o                     0.00000000     0.00000000     0.79341743
 c                     0.00000000     0.00000000    -0.55999407
 h                     0.71491134     0.71491134    -0.99579167
 h                    -0.97658705     0.26167571    -0.99579167
 h                     0.26167571    -0.97658705    -0.99579167

 ==============================================================================
                                internuclear distances
 ------------------------------------------------------------------------------
       center one      |      center two      | atomic units |  angstroms
 ------------------------------------------------------------------------------
    2 c                |   1 o                |     2.55758  |     1.35341
    3 h                |   2 c                |     2.08052  |     1.10096
    4 h                |   2 c                |     2.08052  |     1.10096
    5 h                |   2 c                |     2.08052  |     1.10096
 ------------------------------------------------------------------------------
                         number of included internuclear distances:          4
 ==============================================================================



 ==============================================================================
                                 internuclear angles
 ------------------------------------------------------------------------------
        center 1       |       center 2       |       center 3       |  degrees
 ------------------------------------------------------------------------------
    1 o                |   2 c                |   3 h                |   113.32
    1 o                |   2 c                |   4 h                |   113.32
    1 o                |   2 c                |   5 h                |   113.32
    3 h                |   2 c                |   4 h                |   105.37
    3 h                |   2 c                |   5 h                |   105.37
    4 h                |   2 c                |   5 h                |   105.37
 ------------------------------------------------------------------------------
                            number of included internuclear angles:          6
 ==============================================================================





 Summary of "ao basis" -> "" (cartesian)
 ------------------------------------------------------------------------------
       Tag                 Description            Shells   Functions and Types
 ---------------- ------------------------------  ------  ---------------------
 *                           6-31g*                   on all atoms 




                           NWChem Geometry Optimization
                           ----------------------------


 maximum gradient threshold         (gmax) =   0.000450
 rms gradient threshold             (grms) =   0.000300
 maximum cartesian step threshold   (xmax) =   0.001800
 rms cartesian step threshold       (xrms) =   0.001200
 fixed trust radius                (trust) =   0.300000
 maximum step size to saddle      (sadstp) =   0.100000
 energy precision                  (eprec) =   1.0D-07
 maximum number of steps          (nptopt) =   20
 initial hessian option           (inhess) =    0
 line search option               (linopt) =    1
 hessian update option            (modupd) =    1
 saddle point option              (modsad) =    0
 initial eigen-mode to follow     (moddir) =    0
 initial variable to follow       (vardir) =    0
 follow first negative mode     (firstneg) =    T
 apply conjugacy                    (opcg) =    F
 source of zmatrix                         =   autoz   


          -------------------
          Energy Minimization
          -------------------


 Names of Z-matrix variables 
    1              2              3              4              5         
    6              7              8              9             10         

 Variables with the same non-blank name are constrained to be equal


 Using diagonal initial Hessian 
 Scaling for Hessian diagonals: bonds = 1.00  angles = 0.25  torsions = 0.10

          --------
          Step   0
          --------


                         Geometry "geometry" -> "geometry"
                         ---------------------------------

 Output coordinates in angstroms (scale by  1.889725989 to convert to a.u.)

  No.       Tag          Charge          X              Y              Z
 ---- ---------------- ---------- -------------- -------------- --------------
    1 o                    8.0000     0.00000000     0.00000000     0.79341743
    2 c                    6.0000     0.00000000     0.00000000    -0.55999407
    3 h                    1.0000     0.71491134     0.71491134    -0.99579167
    4 h                    1.0000    -0.97658705     0.26167571    -0.99579167
    5 h                    1.0000     0.26167571    -0.97658705    -0.99579167

      Atomic Mass 
      ----------- 

      o                 15.994910
      c                 12.000000
      h                  1.007825


 Effective nuclear repulsion energy (a.u.)      34.5058725513

            Nuclear Dipole moment (a.u.) 
            ----------------------------
        X                 Y               Z
 ---------------- ---------------- ----------------
     0.0000000000     0.0000000000     0.0000000000

      Symmetry information
      --------------------

 Group name             C3v       
 Group number             17
 Group order               6
 No. of unique centers     3

      Symmetry unique atoms

     1    2    3

                      Basis "ao basis" -> "ao basis" (cartesian)
                      -----
  o (Oxygen)
  ----------
            Exponent  Coefficients 
       -------------- ---------------------------------------------------------
  1 S  5.48467170E+03  0.001831
  1 S  8.25234950E+02  0.013950
  1 S  1.88046960E+02  0.068445
  1 S  5.29645000E+01  0.232714
  1 S  1.68975700E+01  0.470193
  1 S  5.79963530E+00  0.358521

  2 S  1.55396160E+01 -0.110778
  2 S  3.59993360E+00 -0.148026
  2 S  1.01376180E+00  1.130767

  3 P  1.55396160E+01  0.070874
  3 P  3.59993360E+00  0.339753
  3 P  1.01376180E+00  0.727159

  4 S  2.70005800E-01  1.000000

  5 P  2.70005800E-01  1.000000

  6 D  8.00000000E-01  1.000000

  c (Carbon)
  ----------
            Exponent  Coefficients 
       -------------- ---------------------------------------------------------
  1 S  3.04752490E+03  0.001835
  1 S  4.57369510E+02  0.014037
  1 S  1.03948690E+02  0.068843
  1 S  2.92101550E+01  0.232184
  1 S  9.28666300E+00  0.467941
  1 S  3.16392700E+00  0.362312

  2 S  7.86827240E+00 -0.119332
  2 S  1.88128850E+00 -0.160854
  2 S  5.44249300E-01  1.143456

  3 P  7.86827240E+00  0.068999
  3 P  1.88128850E+00  0.316424
  3 P  5.44249300E-01  0.744308

  4 S  1.68714400E-01  1.000000

  5 P  1.68714400E-01  1.000000

  6 D  8.00000000E-01  1.000000

  h (Hydrogen)
  ------------
            Exponent  Coefficients 
       -------------- ---------------------------------------------------------
  1 S  1.87311370E+01  0.033495
  1 S  2.82539370E+00  0.234727
  1 S  6.40121700E-01  0.813757

  2 S  1.61277800E-01  1.000000



 Summary of "ao basis" -> "ao basis" (cartesian)
 ------------------------------------------------------------------------------
       Tag                 Description            Shells   Functions and Types
 ---------------- ------------------------------  ------  ---------------------
 o                           6-31g*                  6       15   3s2p1d
 c                           6-31g*                  6       15   3s2p1d
 h                           6-31g*                  2        2   2s


  geom_rtdb_load: not found or rtdb corrupt: cosmo efc geom -> cosmo efc geom
 geom_rtdb_load: open geometies:  3
  1 geom_rtdb_load: "geometry" -> "geometry"
  2 geom_rtdb_load: "geometry" -> "geometry"
  3 geom_rtdb_load: "cosmo efc geom" -> "cosmo efc geom"
 geom_rtdb_load: geometries in last accessed data base:  2
 geometry
 driverinitial

          ---------------
          -cosmo- solvent
          ---------------
 dielectric constant -eps-  =  78.40
 charge screening approach  =   2
 screen = (eps-1)/(eps    ) =   0.98724
 -lineq- algorithm          =   1
 -bem- low  level           =   3
 -bem- high level           =   5
 -bem- from -octahedral-
 solvent radius (ang.)      =   0.000
 atomic radii = 
 --------------
    1  8.000  1.720
    2  6.000  2.000
    3  1.000  1.300
    4  1.000  1.300
    5  1.000  1.300

 solvent accessible surface
 --------------------------

 ---------- ATOMIC COORDINATES (A.U.) ------------ VDWR(ANG.) --
     1    0.00000000    0.00000000    1.49934154     1.720
     2    0.00000000    0.00000000   -1.05823535     2.000
     3    1.35098654    1.35098654   -1.88177340     1.300
     4   -1.84548193    0.49449539   -1.88177340     1.300
     5    0.49449539   -1.84548193   -1.88177340     1.300
 number of segments per atom =        128
 number of   points per atom =       2560
 atom (   nspa,  nppa )
 ----------------------
    1 (     92,  1548 )    1548
    2 (     96,  1226 )    1226
    3 (     50,   807 )     807
    4 (     52,   790 )     790
    5 (     52,   790 )     790
 number of -cosmo- surface points =      342
 molecular surface =     66.355 angstrom**2
 molecular volume  =     37.518 angstrom**3
 G(cav/disp)       =      1.192 kcal/mol
 ...... end of -cosmo- initialization ......


                                 NWChem SCF Module
                                 -----------------



  ao basis        = "ao basis"
  functions       =    36
  atoms           =     5
  closed shells   =     9
  open shells     =     0
  charge          =  -1.00
  wavefunction    = RHF 
  input vectors   = atomic
  output vectors  = ./h3co_dat.movecs
  use symmetry    = T
  symmetry adapt  = T


 Summary of "ao basis" -> "ao basis" (cartesian)
 ------------------------------------------------------------------------------
       Tag                 Description            Shells   Functions and Types
 ---------------- ------------------------------  ------  ---------------------
 o                           6-31g*                  6       15   3s2p1d
 c                           6-31g*                  6       15   3s2p1d
 h                           6-31g*                  2        2   2s


      Symmetry analysis of basis
      --------------------------

        a1         16
        a2          0
        e          20


 Forming initial guess at       0.1s


      Superposition of Atomic Density Guess
      -------------------------------------

 Sum of atomic energies:        -113.90930400

 Renormalizing density from      17.00 to     18

      Non-variational initial energy
      ------------------------------

 Total energy =    -118.682639
 1-e energy   =    -236.279763
 2-e energy   =      83.091251
 HOMO         =       0.126695
 LUMO         =       0.465824


      Symmetry analysis of molecular orbitals - initial
      -------------------------------------------------

  Numbering of irreducible representations: 

     1 a1          2 a2          3 e       

  Orbital symmetries:

     1 a1          2 a1          3 a1          4 a1          5 e       
     6 e           7 a1          8 e           9 e          10 a1      
    11 e          12 e          13 a1         14 e          15 e       
    16 a1         17 a1         18 e          19 e       


 Starting SCF solution at       0.2s



 ----------------------------------------------
         Quadratically convergent ROHF

 Convergence threshold     :          1.000E-04
 Maximum no. of iterations :           30
 Final Fock-matrix accuracy:          1.000E-07
 ----------------------------------------------

     COSMO gas phase

 Integral file          = ./h3co_dat.aoints.0
 Record size in doubles =  65536        No. of integs per rec  =  43688
 Max. records in memory =      3        Max. records in file   =   3187
 No. of bits per label  =      8        No. of bits per value  =     64


 #quartets = 6.629D+03 #integrals = 7.316D+04 #direct =  0.0% #cached =100.0%


              iter       energy          gnorm     gmax       time
             ----- ------------------- --------- --------- --------
                 1     -114.2840465886  1.28D+00  4.83D-01      0.2
                 2     -114.3777046319  2.00D-01  8.02D-02      0.3
                 3     -114.3810582621  1.34D-02  5.65D-03      0.3
                 4     -114.3810797776  1.19D-04  4.35D-05      0.3
                 5     -114.3810797792  8.48D-06  3.36D-06      0.3
     COSMO solvation phase

              iter       energy          gnorm     gmax       time
             ----- ------------------- --------- --------- --------
                 1     -114.5112808345  1.44D-01  6.28D-02      2.1
                 2     -114.5148064803  2.84D-02  1.43D-02      3.9
                 3     -114.5148909470  5.26D-03  2.58D-03      5.6
                 4     -114.5148849981  9.45D-04  4.43D-04      7.2
                 5     -114.5148837858  1.74D-04  8.41D-05      7.8
                 6     -114.5148835461  3.20D-05  1.59D-05      8.3
 
                  COSMO solvation results
                  -----------------------
 
                 gas phase energy =      -114.3810797792
                 sol phase energy =      -114.5148835461
 (electrostatic) solvation energy =         0.1338037669 (   83.96 kcal/mol)


       Final RHF  results 
       ------------------ 

         Total SCF energy =   -114.514883546089
      One-electron energy =   -235.144013579785
      Two-electron energy =     81.769419699275
 Nuclear repulsion energy =     34.505872551266

        Time for solution =      8.2s



       Symmetry analysis of molecular orbitals - final
       -----------------------------------------------

  Numbering of irreducible representations: 

     1 a1          2 a2          3 e       

  Orbital symmetries:

     1 a1          2 a1          3 a1          4 a1          5 e       
     6 e           7 a1          8 e           9 e          10 a1      
    11 e          12 e          13 a1         14 e          15 e       
    16 a1         17 a1         18 e          19 e       

             Final eigenvalues
             -----------------

              1      
    1  -20.3902
    2  -11.2142
    3   -1.1875
    4   -0.8280
    5   -0.5462
    6   -0.5462
    7   -0.4708
    8   -0.3097
    9   -0.3097
   10    0.2805
   11    0.3649
   12    0.3649
   13    0.4169
   14    0.8131
   15    0.8131
   16    0.9097
   17    1.1291
   18    1.1624
   19    1.1624

                       ROHF Final Molecular Orbital Analysis
                       -------------------------------------

 Vector    2  Occ=2.000000D+00  E=-1.121422D+01  Symmetry=a1
              MO Center= -1.3D-21, -1.7D-21, -5.6D-01, r^2= 2.7D-02
   Bfn.  Coefficient  Atom+Function         Bfn.  Coefficient  Atom+Function  
  ----- ------------  ---------------      ----- ------------  ---------------
    16      0.995804  2 C  s          

 Vector    3  Occ=2.000000D+00  E=-1.187513D+00  Symmetry=a1
              MO Center= -1.1D-18, -2.9D-18,  4.5D-01, r^2= 6.5D-01
   Bfn.  Coefficient  Atom+Function         Bfn.  Coefficient  Atom+Function  
  ----- ------------  ---------------      ----- ------------  ---------------
     6      0.439735  1 O  s                  2      0.420201  1 O  s          
     1     -0.195453  1 O  s                 17      0.189119  2 C  s          

 Vector    4  Occ=2.000000D+00  E=-8.280487D-01  Symmetry=a1
              MO Center=  1.5D-17, -2.1D-17, -5.9D-01, r^2= 1.4D+00
   Bfn.  Coefficient  Atom+Function         Bfn.  Coefficient  Atom+Function  
  ----- ------------  ---------------      ----- ------------  ---------------
     6      0.311348  1 O  s                 17     -0.307794  2 C  s          
    21     -0.307761  2 C  s                  2      0.195219  1 O  s          
    20      0.163520  2 C  pz                16      0.158969  2 C  s          

 Vector    5  Occ=2.000000D+00  E=-5.462129D-01  Symmetry=e
              MO Center= -1.6D-01, -1.1D-01, -4.8D-01, r^2= 1.4D+00
   Bfn.  Coefficient  Atom+Function         Bfn.  Coefficient  Atom+Function  
  ----- ------------  ---------------      ----- ------------  ---------------
    18      0.304928  2 C  px                19     -0.252600  2 C  py         
    33     -0.212704  4 H  s                 34     -0.196392  4 H  s          
    35      0.190837  5 H  s                  3      0.182902  1 O  px         
    36      0.176202  5 H  s                  4     -0.151514  1 O  py         

 Vector    6  Occ=2.000000D+00  E=-5.462129D-01  Symmetry=e
              MO Center=  1.6D-01,  1.1D-01, -4.8D-01, r^2= 1.4D+00
   Bfn.  Coefficient  Atom+Function         Bfn.  Coefficient  Atom+Function  
  ----- ------------  ---------------      ----- ------------  ---------------
    19      0.304928  2 C  py                18      0.252600  2 C  px         
    31      0.232985  3 H  s                 32      0.215117  3 H  s          
     4      0.182902  1 O  py                 3      0.151514  1 O  px         

 Vector    7  Occ=2.000000D+00  E=-4.707937D-01  Symmetry=a1
              MO Center=  4.3D-19,  0.0D+00,  4.7D-01, r^2= 1.2D+00
   Bfn.  Coefficient  Atom+Function         Bfn.  Coefficient  Atom+Function  
  ----- ------------  ---------------      ----- ------------  ---------------
     5      0.468548  1 O  pz                20     -0.363351  2 C  pz         
     6      0.344070  1 O  s                  9      0.343779  1 O  pz         

 Vector    8  Occ=2.000000D+00  E=-3.096842D-01  Symmetry=e
              MO Center=  7.1D-02,  5.6D-02,  4.0D-01, r^2= 1.4D+00
   Bfn.  Coefficient  Atom+Function         Bfn.  Coefficient  Atom+Function  
  ----- ------------  ---------------      ----- ------------  ---------------
     4      0.410038  1 O  py                 8      0.384407  1 O  py         
     3      0.364730  1 O  px                 7      0.341931  1 O  px         
    32     -0.280743  3 H  s                 31     -0.170426  3 H  s          
    36      0.154590  5 H  s          

 Vector    9  Occ=2.000000D+00  E=-3.096842D-01  Symmetry=e
              MO Center= -7.1D-02, -5.6D-02,  4.0D-01, r^2= 1.4D+00
   Bfn.  Coefficient  Atom+Function         Bfn.  Coefficient  Atom+Function  
  ----- ------------  ---------------      ----- ------------  ---------------
     3      0.410038  1 O  px                 7      0.384407  1 O  px         
     4     -0.364730  1 O  py                 8     -0.341931  1 O  py         
    34      0.251340  4 H  s                 36     -0.234922  5 H  s          
    33      0.152576  4 H  s          

 Vector   10  Occ=0.000000D+00  E= 2.805214D-01  Symmetry=a1
              MO Center=  2.8D-17,  0.0D+00, -1.0D+00, r^2= 3.6D+00
   Bfn.  Coefficient  Atom+Function         Bfn.  Coefficient  Atom+Function  
  ----- ------------  ---------------      ----- ------------  ---------------
    21      2.455706  2 C  s                 32     -1.242750  3 H  s          
    34     -1.242750  4 H  s                 36     -1.242750  5 H  s          
    24     -0.820520  2 C  pz                20     -0.175511  2 C  pz         

 Vector   11  Occ=0.000000D+00  E= 3.648597D-01  Symmetry=e
              MO Center=  4.7D-01, -4.8D-02, -9.6D-01, r^2= 3.0D+00
   Bfn.  Coefficient  Atom+Function         Bfn.  Coefficient  Atom+Function  
  ----- ------------  ---------------      ----- ------------  ---------------
    32      1.720587  3 H  s                 36     -1.568255  5 H  s          
    23     -1.426714  2 C  py                22     -0.507657  2 C  px         
    19     -0.348623  2 C  py                 8      0.308204  1 O  py         
    34     -0.152332  4 H  s          

 Vector   12  Occ=0.000000D+00  E= 3.648597D-01  Symmetry=e
              MO Center= -4.7D-01,  4.8D-02, -9.6D-01, r^2= 3.0D+00
   Bfn.  Coefficient  Atom+Function         Bfn.  Coefficient  Atom+Function  
  ----- ------------  ---------------      ----- ------------  ---------------
    34      1.898814  4 H  s                 22      1.426714  2 C  px         
    36     -1.081330  5 H  s                 32     -0.817484  3 H  s          
    23     -0.507657  2 C  py                18      0.348623  2 C  px         
     7     -0.308204  1 O  px         

 Vector   13  Occ=0.000000D+00  E= 4.169436D-01  Symmetry=a1
              MO Center=  1.0D-16,  3.0D-17, -6.5D-01, r^2= 2.6D+00
   Bfn.  Coefficient  Atom+Function         Bfn.  Coefficient  Atom+Function  
  ----- ------------  ---------------      ----- ------------  ---------------
     6      1.787472  1 O  s                 24     -1.721571  2 C  pz         
    21     -1.659675  2 C  s                  9     -0.984640  1 O  pz         
     5     -0.201749  1 O  pz         

 Vector   14  Occ=0.000000D+00  E= 8.130821D-01  Symmetry=e
              MO Center=  1.6D-01, -1.5D-01, -5.4D-01, r^2= 2.1D+00
   Bfn.  Coefficient  Atom+Function         Bfn.  Coefficient  Atom+Function  
  ----- ------------  ---------------      ----- ------------  ---------------
    22      1.700192  2 C  px                18     -0.737529  2 C  px         
    33      0.484192  4 H  s                 34      0.351812  4 H  s          
    31     -0.346654  3 H  s                  7     -0.274544  1 O  px         
    32     -0.251877  3 H  s                  3     -0.163996  1 O  px         

 Vector   15  Occ=0.000000D+00  E= 8.130821D-01  Symmetry=e
              MO Center= -1.6D-01,  1.5D-01, -5.4D-01, r^2= 2.1D+00
   Bfn.  Coefficient  Atom+Function         Bfn.  Coefficient  Atom+Function  
  ----- ------------  ---------------      ----- ------------  ---------------
    23      1.700192  2 C  py                19     -0.737529  2 C  py         
    35      0.479689  5 H  s                 31     -0.358957  3 H  s          
    36      0.348540  5 H  s                  8     -0.274544  1 O  py         
    32     -0.260816  3 H  s                  4     -0.163996  1 O  py         

 Vector   16  Occ=0.000000D+00  E= 9.096751D-01  Symmetry=a1
              MO Center= -7.3D-18,  7.8D-18, -1.2D-01, r^2= 1.4D+00
   Bfn.  Coefficient  Atom+Function         Bfn.  Coefficient  Atom+Function  
  ----- ------------  ---------------      ----- ------------  ---------------
    20      1.018328  2 C  pz                24     -0.977358  2 C  pz         
     6      0.534819  1 O  s                 17      0.473675  2 C  s          
     5      0.317176  1 O  pz                 2     -0.240109  1 O  s          
     9      0.218198  1 O  pz                21     -0.178975  2 C  s          

 Vector   17  Occ=0.000000D+00  E= 1.129115D+00  Symmetry=a1
              MO Center= -1.3D-16, -1.0D-16,  5.1D-01, r^2= 2.5D+00
   Bfn.  Coefficient  Atom+Function         Bfn.  Coefficient  Atom+Function  
  ----- ------------  ---------------      ----- ------------  ---------------
     6      1.574744  1 O  s                 21      1.533534  2 C  s          
     2     -0.906640  1 O  s                 24     -0.572273  2 C  pz         
     9      0.518720  1 O  pz                17     -0.491226  2 C  s          
     5     -0.465374  1 O  pz                15     -0.402514  1 O  dzz        
    31     -0.355584  3 H  s                 33     -0.355584  4 H  s          

 Vector   18  Occ=0.000000D+00  E= 1.162352D+00  Symmetry=e
              MO Center=  8.0D-02, -3.1D-01, -8.1D-01, r^2= 1.8D+00
   Bfn.  Coefficient  Atom+Function         Bfn.  Coefficient  Atom+Function  
  ----- ------------  ---------------      ----- ------------  ---------------
    36      1.501801  5 H  s                 23      1.179195  2 C  py         
    19     -0.839753  2 C  py                35     -0.793270  5 H  s          
    34     -0.759035  4 H  s                 32     -0.742766  3 H  s          
    33      0.400932  4 H  s                 31      0.392338  3 H  s          
    22     -0.323882  2 C  px                29     -0.237997  2 C  dyz        

 Vector   19  Occ=0.000000D+00  E= 1.162352D+00  Symmetry=e
              MO Center= -8.0D-02,  3.1D-01, -8.1D-01, r^2= 1.8D+00
   Bfn.  Coefficient  Atom+Function         Bfn.  Coefficient  Atom+Function  
  ----- ------------  ---------------      ----- ------------  ---------------
    32      1.305295  3 H  s                 34     -1.295902  4 H  s          
    22     -1.179195  2 C  px                18      0.839753  2 C  px         
    31     -0.689473  3 H  s                 33      0.684511  4 H  s          
    23     -0.323882  2 C  py                27      0.237997  2 C  dxz        
    19      0.230650  2 C  py                26     -0.226393  2 C  dxy        


 center of mass
 --------------
 x =   0.00000000 y =   0.00000000 z =   0.18032899

 moments of inertia (a.u.)
 ------------------
          64.611309796422           0.000000000000           0.000000000000
           0.000000000000          64.611309796422           0.000000000000
           0.000000000000           0.000000000000          11.036679212476

  Mulliken analysis of the total density
  --------------------------------------

    Atom       Charge   Shell Charges
 -----------   ------   -------------------------------------------------------
    1 O    8     9.04   2.00  0.85  2.85  1.06  2.28  0.01
    2 C    6     6.06   2.00  0.64  1.95  0.54  0.82  0.12
    3 H    1     0.97   0.55  0.42
    4 H    1     0.97   0.55  0.42
    5 H    1     0.97   0.55  0.42

       Multipole analysis of the density wrt the origin
       ------------------------------------------------

     L   x y z        total         open         nuclear
     -   - - -        -----         ----         -------
     0   0 0 0     -1.000000      0.000000     17.000000

     1   1 0 0      0.000000      0.000000      0.000000
     1   0 1 0      0.000000      0.000000      0.000000
     1   0 0 1     -1.450346      0.000000      0.000000

     2   2 0 0    -11.370473      0.000000      5.475494
     2   1 1 0      0.000000      0.000000      0.000000
     2   1 0 1      0.000000      0.000000      0.000000
     2   0 2 0    -11.370473      0.000000      5.475494
     2   0 1 1      0.000000      0.000000      0.000000
     2   0 0 2    -14.211047      0.000000     35.326586


 Parallel integral file used       2 records with       0 large values

                              NWChem Gradients Module
                              -----------------------



  wavefunction    =   RHF     

  Using symmetry


                         RHF ENERGY GRADIENTS

    atom               coordinates                        gradient
                 x          y          z           x          y          z
   1 o       0.000000   0.000000   1.499342    0.000000   0.000000  -0.002190
   2 c       0.000000   0.000000  -1.058235    0.000000   0.000000  -0.166535
   3 h       1.350987   1.350987  -1.881773    0.045100   0.045100   0.056242
   4 h      -1.845482   0.494495  -1.881773   -0.061607   0.016508   0.056242
   5 h       0.494495  -1.845482  -1.881773    0.016508  -0.061607   0.056242

                 ----------------------------------------
                 |  Time  |  1-e(secs)   |  2-e(secs)   |
                 ----------------------------------------
                 |  CPU   |       0.26   |       0.74   |
                 ----------------------------------------
                 |  WALL  |       0.26   |       0.74   |
                 ----------------------------------------

@ Step       Energy      Delta E   Gmax     Grms     Xrms     Xmax   Walltime
@ ---- ---------------- -------- -------- -------- -------- -------- --------
@    0    -114.51488355  0.0D+00  0.04201  0.03660  0.00000  0.00000      9.4
                                                                    



                                Z-matrix (autoz)
                                -------- 

 Units are Angstrom for bonds and degrees for angles

      Type          Name      I     J     K     L     M      Value     Gradient
      ----------- --------  ----- ----- ----- ----- ----- ---------- ----------
    1 Stretch                  1     2                       1.35341   -0.00219
    2 Stretch                  2     3                       1.10096    0.03631
    3 Stretch                  2     4                       1.10096    0.03631
    4 Stretch                  2     5                       1.10096    0.03631
    5 Bend                     1     2     3               113.31798   -0.03715
    6 Bend                     1     2     4               113.31798   -0.03715
    7 Bend                     1     2     5               113.31798   -0.03715
    8 Bend                     3     2     4               105.36538    0.04201
    9 Bend                     3     2     5               105.36538    0.04201
   10 Bend                     4     2     5               105.36538    0.04201

 Restricting large step in mode    3 eval= 5.3D-02 step=-1.8D+00 new=-3.0D-01

          ---------------
          -cosmo- solvent
          ---------------
 dielectric constant -eps-  =  78.40
 charge screening approach  =   2
 screen = (eps-1)/(eps    ) =   0.98724
 -lineq- algorithm          =   1
 -bem- low  level           =   3
 -bem- high level           =   5
 -bem- from -octahedral-
 solvent radius (ang.)      =   0.000
 atomic radii = 
 --------------
    1  8.000  1.720
    2  6.000  2.000
    3  1.000  1.300
    4  1.000  1.300
    5  1.000  1.300

 solvent accessible surface
 --------------------------

 ---------- ATOMIC COORDINATES (A.U.) ------------ VDWR(ANG.) --
     1    0.00000000    0.00000000    1.54160038     1.720
     2    0.00000000    0.00000000   -1.02121570     2.000
     3    1.24653319    1.24653319   -1.90819956     1.300
     4   -1.70279601    0.45626282   -1.90819956     1.300
     5    0.45626282   -1.70279601   -1.90819956     1.300
 number of segments per atom =        128
 number of   points per atom =       2560
 atom (   nspa,  nppa )
 ----------------------
    1 (     92,  1548 )    1548
    2 (     98,  1282 )    1282
    3 (     44,   723 )     723
    4 (     44,   706 )     706
    5 (     44,   706 )     706
 number of -cosmo- surface points =      322
 molecular surface =     65.364 angstrom**2
 molecular volume  =     37.345 angstrom**3
 G(cav/disp)       =      1.187 kcal/mol
 ...... end of -cosmo- initialization ......


                                 NWChem SCF Module
                                 -----------------



  ao basis        = "ao basis"
  functions       =    36
  atoms           =     5
  closed shells   =     9
  open shells     =     0
  charge          =  -1.00
  wavefunction    = RHF 
  input vectors   = ./h3co_dat.movecs
  output vectors  = ./h3co_dat.movecs
  use symmetry    = T
  symmetry adapt  = T


 Summary of "ao basis" -> "ao basis" (cartesian)
 ------------------------------------------------------------------------------
       Tag                 Description            Shells   Functions and Types
 ---------------- ------------------------------  ------  ---------------------
 o                           6-31g*                  6       15   3s2p1d
 c                           6-31g*                  6       15   3s2p1d
 h                           6-31g*                  2        2   2s


      Symmetry analysis of basis
      --------------------------

        a1         16
        a2          0
        e          20


 Forming initial guess at       9.5s


 Loading old vectors from job with title :




      Symmetry analysis of molecular orbitals - initial
      -------------------------------------------------

  Numbering of irreducible representations: 

     1 a1          2 a2          3 e       

  Orbital symmetries:

     1 a1          2 a1          3 a1          4 a1          5 e       
     6 e           7 a1          8 e           9 e          10 a1      
    11 e          12 e          13 a1         14 e          15 e       
    16 a1         17 a1         18 e          19 e       


 Starting SCF solution at       9.5s



 ----------------------------------------------
         Quadratically convergent ROHF

 Convergence threshold     :          1.000E-04
 Maximum no. of iterations :           30
 Final Fock-matrix accuracy:          1.000E-07
 ----------------------------------------------

     COSMO gas phase

 Integral file          = ./h3co_dat.aoints.0
 Record size in doubles =  65536        No. of integs per rec  =  43688
 Max. records in memory =      3        Max. records in file   =   3187
 No. of bits per label  =      8        No. of bits per value  =     64


 #quartets = 6.629D+03 #integrals = 7.316D+04 #direct =  0.0% #cached =100.0%


              iter       energy          gnorm     gmax       time
             ----- ------------------- --------- --------- --------
                 1     -114.3640591862  2.50D-01  8.79D-02      9.5
                 2     -114.3702326956  2.01D-02  6.08D-03      9.5
                 3     -114.3702749808  3.80D-04  1.40D-04      9.5
                 4     -114.3702750051  4.24D-06  1.19D-06      9.6
     COSMO solvation phase

              iter       energy          gnorm     gmax       time
             ----- ------------------- --------- --------- --------
                 1     -114.5014427424  1.44D-01  5.78D-02     10.4
                 2     -114.5050078028  2.89D-02  1.44D-02     11.2
                 3     -114.5051207028  5.46D-03  2.69D-03     11.9
                 4     -114.5051199335  9.99D-04  4.64D-04     12.4
                 5     -114.5051190398  1.83D-04  8.56D-05     12.8
                 6     -114.5051188614  3.34D-05  1.62D-05     13.1
 
                  COSMO solvation results
                  -----------------------
 
                 gas phase energy =      -114.3702750051
                 sol phase energy =      -114.5051188614
 (electrostatic) solvation energy =         0.1348438563 (   84.62 kcal/mol)


       Final RHF  results 
       ------------------ 

         Total SCF energy =   -114.505118861384
      One-electron energy =   -236.157287466433
      Two-electron energy =     82.265569269775
 Nuclear repulsion energy =     35.028042023848

        Time for solution =      3.7s



       Symmetry analysis of molecular orbitals - final
       -----------------------------------------------

  Numbering of irreducible representations: 

     1 a1          2 a2          3 e       

  Orbital symmetries:

     1 a1          2 a1          3 a1          4 a1          5 e       
     6 e           7 a1          8 e           9 e          10 a1      
    11 e          12 e          13 a1         14 e          15 e       
    16 a1         17 a1         18 e          19 e       

             Final eigenvalues
             -----------------

              1      
    1  -20.3893
    2  -11.1902
    3   -1.1835
    4   -0.8568
    5   -0.5491
    6   -0.5491
    7   -0.4735
    8   -0.3108
    9   -0.3108
   10    0.2871
   11    0.3823
   12    0.3823
   13    0.4172
   14    0.7938
   15    0.7938
   16    0.9107
   17    1.1572
   18    1.2032
   19    1.2032

                       ROHF Final Molecular Orbital Analysis
                       -------------------------------------

 Vector    2  Occ=2.000000D+00  E=-1.119016D+01  Symmetry=a1
              MO Center= -2.1D-21,  1.0D-20, -5.4D-01, r^2= 2.7D-02
   Bfn.  Coefficient  Atom+Function         Bfn.  Coefficient  Atom+Function  
  ----- ------------  ---------------      ----- ------------  ---------------
    16      0.995680  2 C  s          

 Vector    3  Occ=2.000000D+00  E=-1.183528D+00  Symmetry=a1
              MO Center= -1.6D-19,  6.5D-19,  4.6D-01, r^2= 6.7D-01
   Bfn.  Coefficient  Atom+Function         Bfn.  Coefficient  Atom+Function  
  ----- ------------  ---------------      ----- ------------  ---------------
     6      0.440058  1 O  s                  2      0.418541  1 O  s          
     1     -0.194768  1 O  s                 17      0.193114  2 C  s          

 Vector    4  Occ=2.000000D+00  E=-8.567515D-01  Symmetry=a1
              MO Center=  2.6D-18,  1.2D-17, -6.2D-01, r^2= 1.3D+00
   Bfn.  Coefficient  Atom+Function         Bfn.  Coefficient  Atom+Function  
  ----- ------------  ---------------      ----- ------------  ---------------
    17     -0.304581  2 C  s                  6      0.292646  1 O  s          
    21     -0.279286  2 C  s                  2      0.195858  1 O  s          
    20      0.185844  2 C  pz                16      0.157722  2 C  s          
    31     -0.155463  3 H  s                 33     -0.155463  4 H  s          
    35     -0.155463  5 H  s          

 Vector    5  Occ=2.000000D+00  E=-5.491124D-01  Symmetry=e
              MO Center=  1.5D-01, -9.2D-02, -5.0D-01, r^2= 1.4D+00
   Bfn.  Coefficient  Atom+Function         Bfn.  Coefficient  Atom+Function  
  ----- ------------  ---------------      ----- ------------  ---------------
    19      0.405181  2 C  py                 4      0.225933  1 O  py         
    35     -0.222240  5 H  s                 36     -0.203577  5 H  s          
    31      0.189515  3 H  s                 23      0.185255  2 C  py         
    32      0.173600  3 H  s                  8      0.151863  1 O  py         

 Vector    6  Occ=2.000000D+00  E=-5.491124D-01  Symmetry=e
              MO Center= -1.5D-01,  9.2D-02, -5.0D-01, r^2= 1.4D+00
   Bfn.  Coefficient  Atom+Function         Bfn.  Coefficient  Atom+Function  
  ----- ------------  ---------------      ----- ------------  ---------------
    18      0.405181  2 C  px                33     -0.237727  4 H  s          
     3      0.225933  1 O  px                34     -0.217763  4 H  s          
    22      0.185255  2 C  px                 7      0.151863  1 O  px         

 Vector    7  Occ=2.000000D+00  E=-4.735334D-01  Symmetry=a1
              MO Center=  3.5D-18,  2.6D-18,  5.3D-01, r^2= 1.2D+00
   Bfn.  Coefficient  Atom+Function         Bfn.  Coefficient  Atom+Function  
  ----- ------------  ---------------      ----- ------------  ---------------
     5      0.470674  1 O  pz                 6      0.359083  1 O  s          
    20     -0.357949  2 C  pz                 9      0.342901  1 O  pz         

 Vector    8  Occ=2.000000D+00  E=-3.107669D-01  Symmetry=e
              MO Center=  7.3D-02,  1.9D-02,  4.4D-01, r^2= 1.4D+00
   Bfn.  Coefficient  Atom+Function         Bfn.  Coefficient  Atom+Function  
  ----- ------------  ---------------      ----- ------------  ---------------
     4      0.480268  1 O  py                 8      0.447367  1 O  py         
     3      0.274412  1 O  px                32     -0.272649  3 H  s          
     7      0.255613  1 O  px                36      0.200732  5 H  s          
    31     -0.161264  3 H  s          

 Vector    9  Occ=2.000000D+00  E=-3.107669D-01  Symmetry=e
              MO Center= -7.3D-02, -1.9D-02,  4.4D-01, r^2= 1.4D+00
   Bfn.  Coefficient  Atom+Function         Bfn.  Coefficient  Atom+Function  
  ----- ------------  ---------------      ----- ------------  ---------------
     3      0.480268  1 O  px                 7      0.447367  1 O  px         
     4     -0.274412  1 O  py                34      0.273306  4 H  s          
     8     -0.255613  1 O  py                36     -0.198935  5 H  s          
    33      0.161653  4 H  s          

 Vector   10  Occ=0.000000D+00  E= 2.871063D-01  Symmetry=a1
              MO Center=  4.2D-16,  5.6D-16, -1.1D+00, r^2= 3.5D+00
   Bfn.  Coefficient  Atom+Function         Bfn.  Coefficient  Atom+Function  
  ----- ------------  ---------------      ----- ------------  ---------------
    21      2.811234  2 C  s                 32     -1.375491  3 H  s          
    34     -1.375491  4 H  s                 36     -1.375491  5 H  s          
    24     -0.972939  2 C  pz                20     -0.161150  2 C  pz         

 Vector   11  Occ=0.000000D+00  E= 3.822952D-01  Symmetry=e
              MO Center=  1.3D-01,  4.5D-01, -1.0D+00, r^2= 3.0D+00
   Bfn.  Coefficient  Atom+Function         Bfn.  Coefficient  Atom+Function  
  ----- ------------  ---------------      ----- ------------  ---------------
    32      2.022670  3 H  s                 34     -1.467415  4 H  s          
    22     -1.350948  2 C  px                23     -0.792790  2 C  py         
    36     -0.555255  5 H  s                 18     -0.313075  2 C  px         
     7      0.286087  1 O  px                19     -0.183725  2 C  py         
     8      0.167887  1 O  py         

 Vector   12  Occ=0.000000D+00  E= 3.822952D-01  Symmetry=e
              MO Center= -1.3D-01, -4.5D-01, -1.0D+00, r^2= 3.0D+00
   Bfn.  Coefficient  Atom+Function         Bfn.  Coefficient  Atom+Function  
  ----- ------------  ---------------      ----- ------------  ---------------
    36      2.015002  5 H  s                 34     -1.488366  4 H  s          
    23      1.350948  2 C  py                22     -0.792790  2 C  px         
    32     -0.526635  3 H  s                 19      0.313075  2 C  py         
     8     -0.286087  1 O  py                18     -0.183725  2 C  px         
     7      0.167887  1 O  px         

 Vector   13  Occ=0.000000D+00  E= 4.172273D-01  Symmetry=a1
              MO Center= -2.9D-17, -2.2D-17, -5.6D-01, r^2= 2.6D+00
   Bfn.  Coefficient  Atom+Function         Bfn.  Coefficient  Atom+Function  
  ----- ------------  ---------------      ----- ------------  ---------------
     6      1.784843  1 O  s                 24     -1.770707  2 C  pz         
    21     -1.489830  2 C  s                  9     -0.985099  1 O  pz         
     5     -0.203373  1 O  pz         

 Vector   14  Occ=0.000000D+00  E= 7.937884D-01  Symmetry=e
              MO Center=  1.9D-01,  2.2D-02, -5.1D-01, r^2= 2.1D+00
   Bfn.  Coefficient  Atom+Function         Bfn.  Coefficient  Atom+Function  
  ----- ------------  ---------------      ----- ------------  ---------------
    22      1.532610  2 C  px                23     -0.739172  2 C  py         
    18     -0.617043  2 C  px                33      0.496774  4 H  s          
    34      0.389698  4 H  s                 35     -0.330050  5 H  s          
    19      0.297598  2 C  py                36     -0.258910  5 H  s          
     7     -0.253700  1 O  px                31     -0.166724  3 H  s          

 Vector   15  Occ=0.000000D+00  E= 7.937884D-01  Symmetry=e
              MO Center= -1.9D-01, -2.2D-02, -5.1D-01, r^2= 2.1D+00
   Bfn.  Coefficient  Atom+Function         Bfn.  Coefficient  Atom+Function  
  ----- ------------  ---------------      ----- ------------  ---------------
    23      1.532610  2 C  py                22      0.739172  2 C  px         
    19     -0.617043  2 C  py                31     -0.477367  3 H  s          
    35      0.383071  5 H  s                 32     -0.374474  3 H  s          
    36      0.300503  5 H  s                 18     -0.297598  2 C  px         
     8     -0.253700  1 O  py                 4     -0.155099  1 O  py         

 Vector   16  Occ=0.000000D+00  E= 9.107345D-01  Symmetry=a1
              MO Center= -1.3D-18,  3.0D-18, -9.1D-02, r^2= 1.4D+00
   Bfn.  Coefficient  Atom+Function         Bfn.  Coefficient  Atom+Function  
  ----- ------------  ---------------      ----- ------------  ---------------
    24     -1.037686  2 C  pz                20      0.997047  2 C  pz         
     6      0.554809  1 O  s                 17      0.487714  2 C  s          
     5      0.323005  1 O  pz                 2     -0.238409  1 O  s          
     9      0.202199  1 O  pz         

 Vector   17  Occ=0.000000D+00  E= 1.157227D+00  Symmetry=a1
              MO Center=  2.6D-16,  1.2D-16,  8.3D-01, r^2= 2.2D+00
   Bfn.  Coefficient  Atom+Function         Bfn.  Coefficient  Atom+Function  
  ----- ------------  ---------------      ----- ------------  ---------------
    21      1.782130  2 C  s                  6      1.727902  1 O  s          
     2     -0.931892  1 O  s                 24     -0.774906  2 C  pz         
     9      0.595791  1 O  pz                 5     -0.567981  1 O  pz         
    17     -0.566039  2 C  s                 32     -0.481075  3 H  s          
    34     -0.481075  4 H  s                 36     -0.481075  5 H  s          

 Vector   18  Occ=0.000000D+00  E= 1.203191D+00  Symmetry=e
              MO Center=  2.2D-01,  1.6D-01, -7.9D-01, r^2= 1.7D+00
   Bfn.  Coefficient  Atom+Function         Bfn.  Coefficient  Atom+Function  
  ----- ------------  ---------------      ----- ------------  ---------------
    32      1.572146  3 H  s                 23     -0.962831  2 C  py         
    36     -0.876552  5 H  s                 22     -0.842837  2 C  px         
    31     -0.778035  3 H  s                 34     -0.695594  4 H  s          
    19      0.685583  2 C  py                18      0.600141  2 C  px         
    35      0.433794  5 H  s                 33      0.344241  4 H  s          

 Vector   19  Occ=0.000000D+00  E= 1.203191D+00  Symmetry=e
              MO Center= -2.2D-01, -1.6D-01, -7.9D-01, r^2= 1.7D+00
   Bfn.  Coefficient  Atom+Function         Bfn.  Coefficient  Atom+Function  
  ----- ------------  ---------------      ----- ------------  ---------------
    34      1.413756  4 H  s                 36     -1.309280  5 H  s          
    22      0.962831  2 C  px                23     -0.842837  2 C  py         
    33     -0.699650  4 H  s                 18     -0.685583  2 C  px         
    35      0.647946  5 H  s                 19      0.600141  2 C  py         
    27     -0.212867  2 C  dxz               29      0.186338  2 C  dyz        


 center of mass
 --------------
 x =   0.00000000 y =   0.00000000 z =   0.21386598

 moments of inertia (a.u.)
 ------------------
          64.815415981784           0.000000000000           0.000000000000
           0.000000000000          64.815415981784           0.000000000000
           0.000000000000           0.000000000000           9.396023022356

  Mulliken analysis of the total density
  --------------------------------------

    Atom       Charge   Shell Charges
 -----------   ------   -------------------------------------------------------
    1 O    8     9.05   2.00  0.85  2.85  1.06  2.29  0.01
    2 C    6     6.08   2.00  0.64  2.03  0.49  0.80  0.12
    3 H    1     0.96   0.57  0.39
    4 H    1     0.96   0.57  0.39
    5 H    1     0.96   0.57  0.39

       Multipole analysis of the density wrt the origin
       ------------------------------------------------

     L   x y z        total         open         nuclear
     -   - - -        -----         ----         -------
     0   0 0 0     -1.000000      0.000000     17.000000

     1   1 0 0      0.000000      0.000000      0.000000
     1   0 1 0      0.000000      0.000000      0.000000
     1   0 0 1     -1.542850      0.000000      0.480910

     2   2 0 0    -11.246617      0.000000      4.661535
     2   1 1 0      0.000000      0.000000      0.000000
     2   1 0 1      0.000000      0.000000      0.000000
     2   0 2 0    -11.246617      0.000000      4.661535
     2   0 1 1      0.000000      0.000000      0.000000
     2   0 0 2    -14.039013      0.000000     36.193220


 Parallel integral file used       2 records with       0 large values

 Line search: 
     step= 1.00 grad=-4.1D-02 hess= 5.1D-02 energy=   -114.505119 mode=bracket 
 new step= 0.40                   predicted energy=   -114.523117

          --------
          Step   1
          --------


                         Geometry "geometry" -> "geometry"
                         ---------------------------------

 Output coordinates in angstroms (scale by  1.889725989 to convert to a.u.)

  No.       Tag          Charge          X              Y              Z
 ---- ---------------- ---------- -------------- -------------- --------------
    1 o                    8.0000     0.00000000     0.00000000     0.80320344
    2 c                    6.0000     0.00000000     0.00000000    -0.55132667
    3 h                    1.0000     0.69254620     0.69254620    -1.00194281
    4 h                    1.0000    -0.94603571     0.25348950    -1.00194281
    5 h                    1.0000     0.25348950    -0.94603571    -1.00194281

      Atomic Mass 
      ----------- 

      o                 15.994910
      c                 12.000000
      h                  1.007825


 Effective nuclear repulsion energy (a.u.)      34.7072816392

            Nuclear Dipole moment (a.u.) 
            ----------------------------
        X                 Y               Z
 ---------------- ---------------- ----------------
     0.0000000000     0.0000000000     0.2113451736

      Symmetry information
      --------------------

 Group name             C3v       
 Group number             17
 Group order               6
 No. of unique centers     3

      Symmetry unique atoms

     1    2    3


          ---------------
          -cosmo- solvent
          ---------------
 dielectric constant -eps-  =  78.40
 charge screening approach  =   2
 screen = (eps-1)/(eps    ) =   0.98724
 -lineq- algorithm          =   1
 -bem- low  level           =   3
 -bem- high level           =   5
 -bem- from -octahedral-
 solvent radius (ang.)      =   0.000
 atomic radii = 
 --------------
    1  8.000  1.720
    2  6.000  2.000
    3  1.000  1.300
    4  1.000  1.300
    5  1.000  1.300

 solvent accessible surface
 --------------------------

 ---------- ATOMIC COORDINATES (A.U.) ------------ VDWR(ANG.) --
     1    0.00000000    0.00000000    1.51783441     1.720
     2    0.00000000    0.00000000   -1.04185634     2.000
     3    1.30872256    1.30872256   -1.89339736     1.300
     4   -1.78774827    0.47902570   -1.89339736     1.300
     5    0.47902570   -1.78774827   -1.89339736     1.300
 number of segments per atom =        128
 number of   points per atom =       2560
 atom (   nspa,  nppa )
 ----------------------
    1 (     92,  1548 )    1548
    2 (     96,  1238 )    1238
    3 (     44,   781 )     781
    4 (     48,   752 )     752
    5 (     48,   752 )     752
 number of -cosmo- surface points =      328
 molecular surface =     65.744 angstrom**2
 molecular volume  =     37.308 angstrom**3
 G(cav/disp)       =      1.189 kcal/mol
 ...... end of -cosmo- initialization ......


                                 NWChem SCF Module
                                 -----------------



  ao basis        = "ao basis"
  functions       =    36
  atoms           =     5
  closed shells   =     9
  open shells     =     0
  charge          =  -1.00
  wavefunction    = RHF 
  input vectors   = ./h3co_dat.movecs
  output vectors  = ./h3co_dat.movecs
  use symmetry    = T
  symmetry adapt  = T


 Summary of "ao basis" -> "ao basis" (cartesian)
 ------------------------------------------------------------------------------
       Tag                 Description            Shells   Functions and Types
 ---------------- ------------------------------  ------  ---------------------
 o                           6-31g*                  6       15   3s2p1d
 c                           6-31g*                  6       15   3s2p1d
 h                           6-31g*                  2        2   2s


      Symmetry analysis of basis
      --------------------------

        a1         16
        a2          0
        e          20


 Forming initial guess at      14.0s


 Loading old vectors from job with title :




      Symmetry analysis of molecular orbitals - initial
      -------------------------------------------------

  Numbering of irreducible representations: 

     1 a1          2 a2          3 e       

  Orbital symmetries:

     1 a1          2 a1          3 a1          4 a1          5 e       
     6 e           7 a1          8 e           9 e          10 a1      
    11 e          12 e          13 a1         14 e          15 e       
    16 a1         17 a1         18 e          19 e       


 Starting SCF solution at      14.0s



 ----------------------------------------------
         Quadratically convergent ROHF

 Convergence threshold     :          1.000E-04
 Maximum no. of iterations :           30
 Final Fock-matrix accuracy:          1.000E-07
 ----------------------------------------------

     COSMO gas phase

 Integral file          = ./h3co_dat.aoints.0
 Record size in doubles =  65536        No. of integs per rec  =  43688
 Max. records in memory =      3        Max. records in file   =   3187
 No. of bits per label  =      8        No. of bits per value  =     64


 #quartets = 6.629D+03 #integrals = 7.316D+04 #direct =  0.0% #cached =100.0%


              iter       energy          gnorm     gmax       time
             ----- ------------------- --------- --------- --------
                 1     -114.3733987871  1.94D-01  7.02D-02     13.3
                 2     -114.3790689011  9.41D-03  3.27D-03     13.3
                 3     -114.3790783757  7.27D-05  2.31D-05     13.3
     COSMO solvation phase

              iter       energy          gnorm     gmax       time
             ----- ------------------- --------- --------- --------
                 1     -114.5094626851  1.42D-01  5.80D-02     14.3
                 2     -114.5130020635  2.87D-02  1.45D-02     15.1
                 3     -114.5131149184  5.45D-03  2.72D-03     15.8
                 4     -114.5131140216  1.00D-03  4.76D-04     16.3
                 5     -114.5131131045  1.84D-04  8.80D-05     16.7
                 6     -114.5131129172  3.38D-05  1.67D-05     17.1
 
                  COSMO solvation results
                  -----------------------
 
                 gas phase energy =      -114.3790783757
                 sol phase energy =      -114.5131129172
 (electrostatic) solvation energy =         0.1340345414 (   84.11 kcal/mol)


       Final RHF  results 
       ------------------ 

         Total SCF energy =   -114.513112917188
      One-electron energy =   -235.533675227965
      Two-electron energy =     81.961315276308
 Nuclear repulsion energy =     34.707281639175

        Time for solution =      3.9s



       Symmetry analysis of molecular orbitals - final
       -----------------------------------------------

  Numbering of irreducible representations: 

     1 a1          2 a2          3 e       

  Orbital symmetries:

     1 a1          2 a1          3 a1          4 a1          5 e       
     6 e           7 a1          8 e           9 e          10 a1      
    11 e          12 e          13 a1         14 e          15 e       
    16 a1         17 a1         18 e          19 e       

             Final eigenvalues
             -----------------

              1      
    1  -20.3897
    2  -11.2045
    3   -1.1856
    4   -0.8392
    5   -0.5473
    6   -0.5473
    7   -0.4718
    8   -0.3100
    9   -0.3100
   10    0.2840
   11    0.3720
   12    0.3720
   13    0.4164
   14    0.8052
   15    0.8052
   16    0.9103
   17    1.1421
   18    1.1782
   19    1.1782

                       ROHF Final Molecular Orbital Analysis
                       -------------------------------------

 Vector    2  Occ=2.000000D+00  E=-1.120453D+01  Symmetry=a1
              MO Center= -3.4D-21,  0.0D+00, -5.5D-01, r^2= 2.7D-02
   Bfn.  Coefficient  Atom+Function         Bfn.  Coefficient  Atom+Function  
  ----- ------------  ---------------      ----- ------------  ---------------
    16      0.995757  2 C  s          

 Vector    3  Occ=2.000000D+00  E=-1.185627D+00  Symmetry=a1
              MO Center= -1.1D-18, -5.4D-19,  4.5D-01, r^2= 6.6D-01
   Bfn.  Coefficient  Atom+Function         Bfn.  Coefficient  Atom+Function  
  ----- ------------  ---------------      ----- ------------  ---------------
     6      0.440063  1 O  s                  2      0.419617  1 O  s          
     1     -0.195215  1 O  s                 17      0.190611  2 C  s          

 Vector    4  Occ=2.000000D+00  E=-8.392295D-01  Symmetry=a1
              MO Center= -1.2D-17,  3.5D-18, -6.1D-01, r^2= 1.4D+00
   Bfn.  Coefficient  Atom+Function         Bfn.  Coefficient  Atom+Function  
  ----- ------------  ---------------      ----- ------------  ---------------
    17     -0.306309  2 C  s                  6      0.302380  1 O  s          
    21     -0.296954  2 C  s                  2      0.195357  1 O  s          
    20      0.172590  2 C  pz                16      0.158439  2 C  s          
    31     -0.151173  3 H  s                 33     -0.151173  4 H  s          
    35     -0.151173  5 H  s          

 Vector    5  Occ=2.000000D+00  E=-5.473289D-01  Symmetry=e
              MO Center=  8.5D-03,  1.9D-01, -4.9D-01, r^2= 1.4D+00
   Bfn.  Coefficient  Atom+Function         Bfn.  Coefficient  Atom+Function  
  ----- ------------  ---------------      ----- ------------  ---------------
    18      0.366900  2 C  px                31      0.220649  3 H  s          
     3      0.213344  1 O  px                32      0.202879  3 H  s          
    33     -0.184459  4 H  s                 22      0.173243  2 C  px         
    34     -0.169604  4 H  s                 19      0.161788  2 C  py         

 Vector    6  Occ=2.000000D+00  E=-5.473289D-01  Symmetry=e
              MO Center= -8.5D-03, -1.9D-01, -4.9D-01, r^2= 1.4D+00
   Bfn.  Coefficient  Atom+Function         Bfn.  Coefficient  Atom+Function  
  ----- ------------  ---------------      ----- ------------  ---------------
    19      0.366900  2 C  py                35     -0.233889  5 H  s          
    36     -0.215054  5 H  s                  4      0.213344  1 O  py         
    23      0.173243  2 C  py                18     -0.161788  2 C  px         

 Vector    7  Occ=2.000000D+00  E=-4.718002D-01  Symmetry=a1
              MO Center= -8.5D-18,  5.2D-18,  5.0D-01, r^2= 1.2D+00
   Bfn.  Coefficient  Atom+Function         Bfn.  Coefficient  Atom+Function  
  ----- ------------  ---------------      ----- ------------  ---------------
     5      0.469468  1 O  pz                20     -0.361110  2 C  pz         
     6      0.351444  1 O  s                  9      0.343010  1 O  pz         

 Vector    8  Occ=2.000000D+00  E=-3.100010D-01  Symmetry=e
              MO Center= -7.1D-02,  4.5D-02,  4.2D-01, r^2= 1.4D+00
   Bfn.  Coefficient  Atom+Function         Bfn.  Coefficient  Atom+Function  
  ----- ------------  ---------------      ----- ------------  ---------------
     3      0.547358  1 O  px                 7      0.511576  1 O  px         
    34      0.278272  4 H  s                 32     -0.175745  3 H  s          
    33      0.167314  4 H  s                 18     -0.150498  2 C  px         

 Vector    9  Occ=2.000000D+00  E=-3.100010D-01  Symmetry=e
              MO Center=  7.1D-02, -4.5D-02,  4.2D-01, r^2= 1.4D+00
   Bfn.  Coefficient  Atom+Function         Bfn.  Coefficient  Atom+Function  
  ----- ------------  ---------------      ----- ------------  ---------------
     4      0.547358  1 O  py                 8      0.511576  1 O  py         
    36      0.262127  5 H  s                 32     -0.219854  3 H  s          
    35      0.157606  5 H  s                 19     -0.150498  2 C  py         

 Vector   10  Occ=0.000000D+00  E= 2.840462D-01  Symmetry=a1
              MO Center=  3.3D-16,  0.0D+00, -1.1D+00, r^2= 3.6D+00
   Bfn.  Coefficient  Atom+Function         Bfn.  Coefficient  Atom+Function  
  ----- ------------  ---------------      ----- ------------  ---------------
    21      2.600417  2 C  s                 32     -1.295593  3 H  s          
    34     -1.295593  4 H  s                 36     -1.295593  5 H  s          
    24     -0.872872  2 C  pz                20     -0.169722  2 C  pz         

 Vector   11  Occ=0.000000D+00  E= 3.720031D-01  Symmetry=e
              MO Center= -3.6D-01,  3.0D-01, -9.8D-01, r^2= 3.0D+00
   Bfn.  Coefficient  Atom+Function         Bfn.  Coefficient  Atom+Function  
  ----- ------------  ---------------      ----- ------------  ---------------
    34      1.930190  4 H  s                 22      1.533597  2 C  px         
    32     -1.331587  3 H  s                 36     -0.598603  5 H  s          
    18      0.366943  2 C  px                 7     -0.328964  1 O  px         

 Vector   12  Occ=0.000000D+00  E= 3.720031D-01  Symmetry=e
              MO Center=  3.6D-01, -3.0D-01, -9.8D-01, r^2= 3.0D+00
   Bfn.  Coefficient  Atom+Function         Bfn.  Coefficient  Atom+Function  
  ----- ------------  ---------------      ----- ------------  ---------------
    36      1.883188  5 H  s                 23      1.533597  2 C  py         
    32     -1.459999  3 H  s                 34     -0.423189  4 H  s          
    19      0.366943  2 C  py                 8     -0.328964  1 O  py         

 Vector   13  Occ=0.000000D+00  E= 4.164431D-01  Symmetry=a1
              MO Center= -6.5D-17,  1.6D-17, -6.1D-01, r^2= 2.6D+00
   Bfn.  Coefficient  Atom+Function         Bfn.  Coefficient  Atom+Function  
  ----- ------------  ---------------      ----- ------------  ---------------
     6      1.787610  1 O  s                 24     -1.743760  2 C  pz         
    21     -1.582511  2 C  s                  9     -0.984591  1 O  pz         
     5     -0.202183  1 O  pz         

 Vector   14  Occ=0.000000D+00  E= 8.052215D-01  Symmetry=e
              MO Center= -2.0D-01,  2.5D-02, -5.3D-01, r^2= 2.1D+00
   Bfn.  Coefficient  Atom+Function         Bfn.  Coefficient  Atom+Function  
  ----- ------------  ---------------      ----- ------------  ---------------
    23      1.605881  2 C  py                19     -0.675712  2 C  py         
    22      0.553398  2 C  px                31     -0.452291  3 H  s          
    35      0.417067  5 H  s                 32     -0.334492  3 H  s          
    36      0.308442  5 H  s                  8     -0.262342  1 O  py         
    18     -0.232855  2 C  px                 4     -0.158481  1 O  py         

 Vector   15  Occ=0.000000D+00  E= 8.052215D-01  Symmetry=e
              MO Center=  2.0D-01, -2.5D-02, -5.3D-01, r^2= 2.1D+00
   Bfn.  Coefficient  Atom+Function         Bfn.  Coefficient  Atom+Function  
  ----- ------------  ---------------      ----- ------------  ---------------
    22      1.605881  2 C  px                18     -0.675712  2 C  px         
    23     -0.553398  2 C  py                33      0.501924  4 H  s          
    34      0.371198  4 H  s                 35     -0.281467  5 H  s          
     7     -0.262342  1 O  px                19      0.232855  2 C  py         
    31     -0.220457  3 H  s                 36     -0.208159  5 H  s          

 Vector   16  Occ=0.000000D+00  E= 9.103131D-01  Symmetry=a1
              MO Center=  1.3D-17,  1.5D-17, -1.1D-01, r^2= 1.4D+00
   Bfn.  Coefficient  Atom+Function         Bfn.  Coefficient  Atom+Function  
  ----- ------------  ---------------      ----- ------------  ---------------
    20      1.009726  2 C  pz                24     -0.998158  2 C  pz         
     6      0.543768  1 O  s                 17      0.480252  2 C  s          
     5      0.319576  1 O  pz                 2     -0.241294  1 O  s          
     9      0.212941  1 O  pz         

 Vector   17  Occ=0.000000D+00  E= 1.142105D+00  Symmetry=a1
              MO Center=  7.5D-17,  2.1D-16,  6.6D-01, r^2= 2.4D+00
   Bfn.  Coefficient  Atom+Function         Bfn.  Coefficient  Atom+Function  
  ----- ------------  ---------------      ----- ------------  ---------------
    21      1.706848  2 C  s                  6      1.648013  1 O  s          
     2     -0.923327  1 O  s                 24     -0.671291  2 C  pz         
     9      0.553368  1 O  pz                17     -0.553587  2 C  s          
     5     -0.512606  1 O  pz                15     -0.413395  1 O  dzz        
    32     -0.393607  3 H  s                 34     -0.393607  4 H  s          

 Vector   18  Occ=0.000000D+00  E= 1.178244D+00  Symmetry=e
              MO Center= -1.9D-01, -2.4D-01, -8.0D-01, r^2= 1.8D+00
   Bfn.  Coefficient  Atom+Function         Bfn.  Coefficient  Atom+Function  
  ----- ------------  ---------------      ----- ------------  ---------------
    36     -1.366606  5 H  s                 34      1.281618  4 H  s          
    23     -0.931739  2 C  py                22      0.833611  2 C  px         
    35      0.701984  5 H  s                 19      0.662828  2 C  py         
    33     -0.658328  4 H  s                 18     -0.593021  2 C  px         
    29      0.194697  2 C  dyz               27     -0.174192  2 C  dxz        

 Vector   19  Occ=0.000000D+00  E= 1.178244D+00  Symmetry=e
              MO Center=  1.9D-01,  2.4D-01, -8.0D-01, r^2= 1.8D+00
   Bfn.  Coefficient  Atom+Function         Bfn.  Coefficient  Atom+Function  
  ----- ------------  ---------------      ----- ------------  ---------------
    32      1.528953  3 H  s                 22     -0.931739  2 C  px         
    34     -0.838078  4 H  s                 23     -0.833611  2 C  py         
    31     -0.785376  3 H  s                 36     -0.690875  5 H  s          
    18      0.662828  2 C  px                19      0.593021  2 C  py         
    33      0.430495  4 H  s                 35      0.354881  5 H  s          


 center of mass
 --------------
 x =   0.00000000 y =   0.00000000 z =   0.19506848

 moments of inertia (a.u.)
 ------------------
          64.712175980585           0.000000000000           0.000000000000
           0.000000000000          64.712175980585           0.000000000000
           0.000000000000           0.000000000000          10.356942293365

  Mulliken analysis of the total density
  --------------------------------------

    Atom       Charge   Shell Charges
 -----------   ------   -------------------------------------------------------
    1 O    8     9.04   2.00  0.85  2.85  1.06  2.28  0.01
    2 C    6     6.07   2.00  0.64  1.98  0.52  0.81  0.12
    3 H    1     0.96   0.56  0.41
    4 H    1     0.96   0.56  0.41
    5 H    1     0.96   0.56  0.41

       Multipole analysis of the density wrt the origin
       ------------------------------------------------

     L   x y z        total         open         nuclear
     -   - - -        -----         ----         -------
     0   0 0 0     -1.000000      0.000000     17.000000

     1   1 0 0      0.000000      0.000000      0.000000
     1   0 1 0      0.000000      0.000000      0.000000
     1   0 0 1     -1.484378      0.000000      0.211345

     2   2 0 0    -11.318797      0.000000      5.138264
     2   1 1 0      0.000000      0.000000      0.000000
     2   1 0 1      0.000000      0.000000      0.000000
     2   0 2 0    -11.318797      0.000000      5.138264
     2   0 1 1      0.000000      0.000000      0.000000
     2   0 0 2    -14.152963      0.000000     35.698219


 Parallel integral file used       2 records with       0 large values

                              NWChem Gradients Module
                              -----------------------



  wavefunction    =   RHF     

  Using symmetry


                         RHF ENERGY GRADIENTS

    atom               coordinates                        gradient
                 x          y          z           x          y          z
   1 o       0.000000   0.000000   1.517834    0.000000   0.000000  -0.001193
   2 c       0.000000   0.000000  -1.041856    0.000000   0.000000  -0.025299
   3 h       1.308723   1.308723  -1.893397   -0.014460  -0.014460   0.008830
   4 h      -1.787748   0.479026  -1.893397    0.019752  -0.005293   0.008830
   5 h       0.479026  -1.787748  -1.893397   -0.005293   0.019752   0.008830

                 ----------------------------------------
                 |  Time  |  1-e(secs)   |  2-e(secs)   |
                 ----------------------------------------
                 |  CPU   |       0.24   |       0.75   |
                 ----------------------------------------
                 |  WALL  |       0.24   |       0.75   |
                 ----------------------------------------

  Step       Energy      Delta E   Gmax     Grms     Xrms     Xmax   Walltime
  ---- ---------------- -------- -------- -------- -------- -------- --------
@    1    -114.51311292  1.8D-03  0.02227  0.01220  0.02729  0.05726     18.9
                                                                    



                                Z-matrix (autoz)
                                -------- 

 Units are Angstrom for bonds and degrees for angles

      Type          Name      I     J     K     L     M      Value     Gradient
      ----------- --------  ----- ----- ----- ----- ----- ---------- ----------
    1 Stretch                  1     2                       1.35453   -0.00119
    2 Stretch                  2     3                       1.07810   -0.02227
    3 Stretch                  2     4                       1.07810   -0.02227
    4 Stretch                  2     5                       1.07810   -0.02227
    5 Bend                     1     2     3               114.70670    0.00024
    6 Bend                     1     2     4               114.70670    0.00024
    7 Bend                     1     2     5               114.70670    0.00024
    8 Bend                     3     2     4               103.76543   -0.00028
    9 Bend                     3     2     5               103.76543   -0.00028
   10 Bend                     4     2     5               103.76543   -0.00028

 Restricting overall step due to uphill motion.   alpha=  0.50

          ---------------
          -cosmo- solvent
          ---------------
 dielectric constant -eps-  =  78.40
 charge screening approach  =   2
 screen = (eps-1)/(eps    ) =   0.98724
 -lineq- algorithm          =   1
 -bem- low  level           =   3
 -bem- high level           =   5
 -bem- from -octahedral-
 solvent radius (ang.)      =   0.000
 atomic radii = 
 --------------
    1  8.000  1.720
    2  6.000  2.000
    3  1.000  1.300
    4  1.000  1.300
    5  1.000  1.300

 solvent accessible surface
 --------------------------

 ---------- ATOMIC COORDINATES (A.U.) ------------ VDWR(ANG.) --
     1    0.00000000    0.00000000    1.54384751     1.720
     2    0.00000000    0.00000000   -1.01623164     2.000
     3    1.32937835    1.32937835   -1.91060996     1.300
     4   -1.81596459    0.48658625   -1.91060996     1.300
     5    0.48658625   -1.81596459   -1.91060996     1.300
 number of segments per atom =        128
 number of   points per atom =       2560
 atom (   nspa,  nppa )
 ----------------------
    1 (     92,  1548 )    1548
    2 (     96,  1224 )    1224
    3 (     51,   806 )     806
    4 (     52,   794 )     794
    5 (     52,   794 )     794
 number of -cosmo- surface points =      343
 molecular surface =     66.373 angstrom**2
 molecular volume  =     37.517 angstrom**3
 G(cav/disp)       =      1.192 kcal/mol
 ...... end of -cosmo- initialization ......


                                 NWChem SCF Module
                                 -----------------



  ao basis        = "ao basis"
  functions       =    36
  atoms           =     5
  closed shells   =     9
  open shells     =     0
  charge          =  -1.00
  wavefunction    = RHF 
  input vectors   = ./h3co_dat.movecs
  output vectors  = ./h3co_dat.movecs
  use symmetry    = T
  symmetry adapt  = T


 Summary of "ao basis" -> "ao basis" (cartesian)
 ------------------------------------------------------------------------------
       Tag                 Description            Shells   Functions and Types
 ---------------- ------------------------------  ------  ---------------------
 o                           6-31g*                  6       15   3s2p1d
 c                           6-31g*                  6       15   3s2p1d
 h                           6-31g*                  2        2   2s


      Symmetry analysis of basis
      --------------------------

        a1         16
        a2          0
        e          20


 Forming initial guess at      18.9s


 Loading old vectors from job with title :




      Symmetry analysis of molecular orbitals - initial
      -------------------------------------------------

  Numbering of irreducible representations: 

     1 a1          2 a2          3 e       

  Orbital symmetries:

     1 a1          2 a1          3 a1          4 a1          5 e       
     6 e           7 a1          8 e           9 e          10 a1      
    11 e          12 e          13 a1         14 e          15 e       
    16 a1         17 a1         18 e          19 e       


 Starting SCF solution at      18.9s



 ----------------------------------------------
         Quadratically convergent ROHF

 Convergence threshold     :          1.000E-04
 Maximum no. of iterations :           30
 Final Fock-matrix accuracy:          1.000E-07
 ----------------------------------------------

     COSMO gas phase

 Integral file          = ./h3co_dat.aoints.0
 Record size in doubles =  65536        No. of integs per rec  =  43688
 Max. records in memory =      3        Max. records in file   =   3187
 No. of bits per label  =      8        No. of bits per value  =     64


 #quartets = 6.629D+03 #integrals = 7.316D+04 #direct =  0.0% #cached =100.0%


              iter       energy          gnorm     gmax       time
             ----- ------------------- --------- --------- --------
                 1     -114.3762057411  1.91D-01  7.70D-02     18.3
                 2     -114.3820766888  9.82D-03  3.33D-03     18.3
                 3     -114.3820873175  8.70D-05  2.47D-05     18.3
     COSMO solvation phase

              iter       energy          gnorm     gmax       time
[...]
  ----- ------------  ---------------      ----- ------------  ---------------
     4      0.442101  1 O  py                 8      0.412967  1 O  py         
     3     -0.316909  1 O  px                 7     -0.296025  1 O  px         
    36      0.273831  5 H  s                 34     -0.226212  4 H  s          
    35      0.164099  5 H  s          

 Vector   10  Occ=0.000000D+00  E= 2.777414D-01  Symmetry=a1
              MO Center=  1.9D-16,  3.3D-16, -1.1D+00, r^2= 3.5D+00
   Bfn.  Coefficient  Atom+Function         Bfn.  Coefficient  Atom+Function  
  ----- ------------  ---------------      ----- ------------  ---------------
    21      2.429156  2 C  s                 32     -1.235338  3 H  s          
    34     -1.235338  4 H  s                 36     -1.235338  5 H  s          
    24     -0.850306  2 C  pz                20     -0.177057  2 C  pz         

 Vector   11  Occ=0.000000D+00  E= 3.641420D-01  Symmetry=e
              MO Center= -3.3D-01,  3.1D-01, -9.6D-01, r^2= 3.0D+00
   Bfn.  Coefficient  Atom+Function         Bfn.  Coefficient  Atom+Function  
  ----- ------------  ---------------      ----- ------------  ---------------
    34      1.799372  4 H  s                 22      1.477062  2 C  px         
    32     -1.301571  3 H  s                 36     -0.497802  5 H  s          
    18      0.377933  2 C  px                 7     -0.338317  1 O  px         

 Vector   12  Occ=0.000000D+00  E= 3.641420D-01  Symmetry=e
              MO Center=  3.3D-01, -3.1D-01, -9.6D-01, r^2= 3.0D+00
   Bfn.  Coefficient  Atom+Function         Bfn.  Coefficient  Atom+Function  
  ----- ------------  ---------------      ----- ------------  ---------------
    36      1.790330  5 H  s                 23      1.477062  2 C  py         
    32     -1.326274  3 H  s                 34     -0.464056  4 H  s          
    19      0.377933  2 C  py                 8     -0.338317  1 O  py         

 Vector   13  Occ=0.000000D+00  E= 4.159619D-01  Symmetry=a1
              MO Center= -7.4D-17, -1.3D-17, -5.9D-01, r^2= 2.6D+00
   Bfn.  Coefficient  Atom+Function         Bfn.  Coefficient  Atom+Function  
  ----- ------------  ---------------      ----- ------------  ---------------
     6      1.825255  1 O  s                 24     -1.766916  2 C  pz         
    21     -1.598746  2 C  s                  9     -0.989465  1 O  pz         
     5     -0.197737  1 O  pz         

 Vector   14  Occ=0.000000D+00  E= 8.158895D-01  Symmetry=e
              MO Center= -1.6D-01,  1.2D-01, -5.1D-01, r^2= 2.1D+00
   Bfn.  Coefficient  Atom+Function         Bfn.  Coefficient  Atom+Function  
  ----- ------------  ---------------      ----- ------------  ---------------
    23      1.661168  2 C  py                19     -0.740546  2 C  py         
    35      0.472886  5 H  s                 31     -0.377605  3 H  s          
    36      0.310008  5 H  s                  8     -0.266537  1 O  py         
    32     -0.247546  3 H  s                  4     -0.169993  1 O  py         

 Vector   15  Occ=0.000000D+00  E= 8.158895D-01  Symmetry=e
              MO Center=  1.6D-01, -1.2D-01, -5.1D-01, r^2= 2.1D+00
   Bfn.  Coefficient  Atom+Function         Bfn.  Coefficient  Atom+Function  
  ----- ------------  ---------------      ----- ------------  ---------------
    22      1.661168  2 C  px                18     -0.740546  2 C  px         
    33      0.491032  4 H  s                 31     -0.328031  3 H  s          
    34      0.321904  4 H  s                  7     -0.266537  1 O  px         
    32     -0.215046  3 H  s                  3     -0.169993  1 O  px         
    35     -0.163000  5 H  s          

 Vector   16  Occ=0.000000D+00  E= 9.127126D-01  Symmetry=a1
              MO Center= -2.7D-17,  5.2D-18, -7.8D-02, r^2= 1.3D+00
   Bfn.  Coefficient  Atom+Function         Bfn.  Coefficient  Atom+Function  
  ----- ------------  ---------------      ----- ------------  ---------------
    20      1.009934  2 C  pz                24     -0.973633  2 C  pz         
     6      0.533457  1 O  s                 17      0.499916  2 C  s          
     5      0.318621  1 O  pz                 2     -0.243398  1 O  s          
     9      0.230124  1 O  pz                21     -0.195915  2 C  s          

 Vector   17  Occ=0.000000D+00  E= 1.138493D+00  Symmetry=a1
              MO Center=  1.0D-16,  9.4D-17,  6.0D-01, r^2= 2.4D+00
   Bfn.  Coefficient  Atom+Function         Bfn.  Coefficient  Atom+Function  
  ----- ------------  ---------------      ----- ------------  ---------------
     6      1.675038  1 O  s                 21      1.392286  2 C  s          
     2     -0.918818  1 O  s                 24     -0.639286  2 C  pz         
     9      0.526396  1 O  pz                 5     -0.499541  1 O  pz         
    17     -0.462268  2 C  s                 15     -0.410485  1 O  dzz        
    31     -0.329679  3 H  s                 33     -0.329679  4 H  s          

 Vector   18  Occ=0.000000D+00  E= 1.148144D+00  Symmetry=e
              MO Center=  3.0D-01, -1.3D-01, -8.2D-01, r^2= 1.8D+00
   Bfn.  Coefficient  Atom+Function         Bfn.  Coefficient  Atom+Function  
  ----- ------------  ---------------      ----- ------------  ---------------
    36      1.353765  5 H  s                 32     -1.238342  3 H  s          
    23      1.191689  2 C  py                19     -0.844231  2 C  py         
    35     -0.715877  5 H  s                 31      0.654840  3 H  s          
    29     -0.248439  2 C  dyz               22      0.222798  2 C  px         
    26      0.203409  2 C  dxy               14      0.185450  1 O  dyz        

 Vector   19  Occ=0.000000D+00  E= 1.148144D+00  Symmetry=e
              MO Center= -3.0D-01,  1.3D-01, -8.2D-01, r^2= 1.8D+00
   Bfn.  Coefficient  Atom+Function         Bfn.  Coefficient  Atom+Function  
  ----- ------------  ---------------      ----- ------------  ---------------
    34      1.496554  4 H  s                 22      1.191689  2 C  px         
    18     -0.844231  2 C  px                32     -0.848236  3 H  s          
    33     -0.791384  4 H  s                 36     -0.648318  5 H  s          
    31      0.448551  3 H  s                 35      0.342833  5 H  s          
    27     -0.248439  2 C  dxz               23     -0.222798  2 C  py         


 center of mass
 --------------
 x =   0.00000000 y =   0.00000000 z =   0.20910974

 moments of inertia (a.u.)
 ------------------
          64.814446250736           0.000000000000           0.000000000000
           0.000000000000          64.814446250736           0.000000000000
           0.000000000000           0.000000000000          10.976434777387

  Mulliken analysis of the total density
  --------------------------------------

    Atom       Charge   Shell Charges
 -----------   ------   -------------------------------------------------------
    1 O    8     9.02   2.00  0.85  2.85  1.05  2.26  0.01
    2 C    6     6.06   2.00  0.63  1.93  0.55  0.83  0.12
    3 H    1     0.97   0.54  0.43
    4 H    1     0.97   0.54  0.43
    5 H    1     0.97   0.54  0.43

       Multipole analysis of the density wrt the origin
       ------------------------------------------------

     L   x y z        total         open         nuclear
     -   - - -        -----         ----         -------
     0   0 0 0     -1.000000      0.000000     17.000000

     1   1 0 0      0.000000      0.000000      0.000000
     1   0 1 0      0.000000      0.000000      0.000000
     1   0 0 1     -1.415896      0.000000      0.411253

     2   2 0 0    -11.469115      0.000000      5.445606
     2   1 1 0      0.000000      0.000000      0.000000
     2   1 0 1      0.000000      0.000000      0.000000
     2   0 2 0    -11.469115      0.000000      5.445606
     2   0 1 1      0.000000      0.000000      0.000000
     2   0 0 2    -14.314120      0.000000     35.750520


 Parallel integral file used       2 records with       0 large values

                              NWChem Gradients Module
                              -----------------------



  wavefunction    =   RHF     

  Using symmetry


                         RHF ENERGY GRADIENTS

    atom               coordinates                        gradient
                 x          y          z           x          y          z
   1 o       0.000000   0.000000   1.527653    0.000000   0.000000   0.000180
   2 c       0.000000   0.000000  -1.015621    0.000000   0.000000  -0.000249
   3 h       1.347294   1.347294  -1.905415   -0.000004  -0.000004   0.000023
   4 h      -1.840438   0.493144  -1.905415    0.000006  -0.000002   0.000023
   5 h       0.493144  -1.840438  -1.905415   -0.000002   0.000006   0.000023

                 ----------------------------------------
                 |  Time  |  1-e(secs)   |  2-e(secs)   |
                 ----------------------------------------
                 |  CPU   |       0.25   |       0.71   |
                 ----------------------------------------
                 |  WALL  |       0.25   |       0.71   |
                 ----------------------------------------

  Step       Energy      Delta E   Gmax     Grms     Xrms     Xmax   Walltime
  ---- ---------------- -------- -------- -------- -------- -------- --------
@    7    -114.51527549 -1.1D-06  0.00018  0.00006  0.00062  0.00171     72.8
                                     ok       ok       ok       ok  



                                Z-matrix (autoz)
                                -------- 

 Units are Angstrom for bonds and degrees for angles

      Type          Name      I     J     K     L     M      Value     Gradient
      ----------- --------  ----- ----- ----- ----- ----- ---------- ----------
    1 Stretch                  1     2                       1.34584    0.00018
    2 Stretch                  2     3                       1.11280   -0.00002
    3 Stretch                  2     4                       1.11280   -0.00002
    4 Stretch                  2     5                       1.11280   -0.00002
    5 Bend                     1     2     3               115.03235   -0.00001
    6 Bend                     1     2     4               115.03235   -0.00001
    7 Bend                     1     2     5               115.03235   -0.00001
    8 Bend                     3     2     4               103.38196    0.00001
    9 Bend                     3     2     5               103.38196    0.00001
   10 Bend                     4     2     5               103.38196    0.00001


      ----------------------
      Optimization converged
      ----------------------


  Step       Energy      Delta E   Gmax     Grms     Xrms     Xmax   Walltime
  ---- ---------------- -------- -------- -------- -------- -------- --------
@    7    -114.51527549 -1.1D-06  0.00018  0.00006  0.00062  0.00171     72.8
                                     ok       ok       ok       ok  



                                Z-matrix (autoz)
                                -------- 

 Units are Angstrom for bonds and degrees for angles

      Type          Name      I     J     K     L     M      Value     Gradient
      ----------- --------  ----- ----- ----- ----- ----- ---------- ----------
    1 Stretch                  1     2                       1.34584    0.00018
    2 Stretch                  2     3                       1.11280   -0.00002
    3 Stretch                  2     4                       1.11280   -0.00002
    4 Stretch                  2     5                       1.11280   -0.00002
    5 Bend                     1     2     3               115.03235   -0.00001
    6 Bend                     1     2     4               115.03235   -0.00001
    7 Bend                     1     2     5               115.03235   -0.00001
    8 Bend                     3     2     4               103.38196    0.00001
    9 Bend                     3     2     5               103.38196    0.00001
   10 Bend                     4     2     5               103.38196    0.00001



                         Geometry "geometry" -> "geometry"
                         ---------------------------------

 Output coordinates in angstroms (scale by  1.889725989 to convert to a.u.)

  No.       Tag          Charge          X              Y              Z
 ---- ---------------- ---------- -------------- -------------- --------------
    1 o                    8.0000     0.00000000     0.00000000     0.80839912
    2 c                    6.0000     0.00000000     0.00000000    -0.53744331
    3 h                    1.0000     0.71295747     0.71295747    -1.00830249
    4 h                    1.0000    -0.97391802     0.26096055    -1.00830249
    5 h                    1.0000     0.26096055    -0.97391802    -1.00830249

      Atomic Mass 
      ----------- 

      o                 15.994910
      c                 12.000000
      h                  1.007825


 Effective nuclear repulsion energy (a.u.)      34.4545318452

            Nuclear Dipole moment (a.u.) 
            ----------------------------
        X                 Y               Z
 ---------------- ---------------- ----------------
     0.0000000000     0.0000000000     0.4112527872

      Symmetry information
      --------------------

 Group name             C3v       
 Group number             17
 Group order               6
 No. of unique centers     3

      Symmetry unique atoms

     1    2    3


                Final and change from initial internal coordinates
                --------------------------------------------------



                                Z-matrix (autoz)
                                -------- 

 Units are Angstrom for bonds and degrees for angles

      Type          Name      I     J     K     L     M      Value       Change
      ----------- --------  ----- ----- ----- ----- ----- ---------- ----------
    1 Stretch                  1     2                       1.34584   -0.00757
    2 Stretch                  2     3                       1.11280    0.01184
    3 Stretch                  2     4                       1.11280    0.01184
    4 Stretch                  2     5                       1.11280    0.01184
    5 Bend                     1     2     3               115.03235    1.71437
    6 Bend                     1     2     4               115.03235    1.71437
    7 Bend                     1     2     5               115.03235    1.71437
    8 Bend                     3     2     4               103.38196   -1.98342
    9 Bend                     3     2     5               103.38196   -1.98342
   10 Bend                     4     2     5               103.38196   -1.98342

 ==============================================================================
                                internuclear distances
 ------------------------------------------------------------------------------
       center one      |      center two      | atomic units |  angstroms
 ------------------------------------------------------------------------------
    2 c                |   1 o                |     2.54327  |     1.34584
    3 h                |   2 c                |     2.10289  |     1.11280
    4 h                |   2 c                |     2.10289  |     1.11280
    5 h                |   2 c                |     2.10289  |     1.11280
 ------------------------------------------------------------------------------
                         number of included internuclear distances:          4
 ==============================================================================



 ==============================================================================
                                 internuclear angles
 ------------------------------------------------------------------------------
        center 1       |       center 2       |       center 3       |  degrees
 ------------------------------------------------------------------------------
    1 o                |   2 c                |   3 h                |   115.03
    1 o                |   2 c                |   4 h                |   115.03
    1 o                |   2 c                |   5 h                |   115.03
    3 h                |   2 c                |   4 h                |   103.38
    3 h                |   2 c                |   5 h                |   103.38
    4 h                |   2 c                |   5 h                |   103.38
 ------------------------------------------------------------------------------
                            number of included internuclear angles:          6
 ==============================================================================




 Task  times  cpu:       71.1s     wall:       72.8s
 Summary of allocated global arrays
-----------------------------------
  No active global arrays



                         GA Statistics for process    0
                         ------------------------------

       create   destroy   get      put      acc     scatter   gather  read&inc
calls: 9348     9348     2.79e+05 4.46e+04 1.36e+05    0        0        0     
number of processes/call 1.00e+00 1.00e+00 1.00e+00 0.00e+00 0.00e+00
bytes total:             1.09e+08 6.41e+07 5.99e+07 0.00e+00 0.00e+00 0.00e+00
bytes remote:            0.00e+00 0.00e+00 0.00e+00 0.00e+00 0.00e+00 0.00e+00
Max memory consumed for GA by this process: 139968 bytes
MA_summarize_allocated_blocks: starting scan ...
MA_summarize_allocated_blocks: scan completed: 0 heap blocks, 0 stack blocks
MA usage statistics:

	allocation statistics:
					      heap	     stack
					      ----	     -----
	current number of blocks	         0	         0
	maximum number of blocks	        20	        32
	current total bytes		         0	         0
	maximum total bytes		   1588312	  31113784
	maximum total K-bytes		      1589	     31114
	maximum total M-bytes		         2	        32


                                NWChem Input Module
                                -------------------





                                     CITATION
                                     --------
                Please cite the following reference when publishing
                           results obtained with NWChem:

                 M. Valiev, E.J. Bylaska, N. Govind, K. Kowalski,
              T.P. Straatsma, H.J.J. van Dam, D. Wang, J. Nieplocha,
                        E. Apra, T.L. Windus, W.A. de Jong
                 "NWChem: a comprehensive and scalable open-source
                  solution for large scale molecular simulations"
                      Comput. Phys. Commun. 181, 1477 (2010)
                           doi:10.1016/j.cpc.2010.04.018

                              AUTHORS & CONTRIBUTORS
                              ----------------------
  E. Apra, E. J. Bylaska, W. A. de Jong, N. Govind, K. Kowalski, T. P. Straatsma,
          M. Valiev, H. J. J. van Dam, D. Wang, T. L. Windus, J. Hammond,
    J. Autschbach, F. Aquino, S. Hirata, M. T. Hackler, J. Mullin, P. Nichols,
    R. Peverati, Y. Zhao, P.-D. Fan, R. J. Harrison, M. Dupuis, D. M. A. Smith,
    J. Nieplocha, V. Tipparaju, M. Krishnan, A. Vazquez-Mayagoitia, L. Jensen,
      M. Swart, Q. Wu, T. Van Voorhis, A. A. Auer, M. Nooijen, L. D. Crosby,
        E. Brown, G. Cisneros, G. I. Fann, H. Fruchtl, J. Garza, K. Hirao,
        R. Kendall, J. A. Nichols, K. Tsemekhman, K. Wolinski, J. Anchell,
       D. Bernholdt, P. Borowski, T. Clark, D. Clerc, H. Dachsel, M. Deegan,
        K. Dyall, D. Elwood, E. Glendening, M. Gutowski, A. Hess, J. Jaffe,
        B. Johnson, J. Ju, R. Kobayashi, R. Kutteh, Z. Lin, R. Littlefield,
   X. Long, B. Meng, T. Nakajima, S. Niu, L. Pollack, M. Rosing, K. Glaesemann,
          G. Sandrone, M. Stave, H. Taylor, G. Thomas, J. H. van Lenthe,
                                A. Wong, Z. Zhang.

 Total times  cpu:       71.1s     wall:       72.8s
