All connections between all procs tested: SUCCESS
 argument  1 = cosmo_h3co.nw



============================== echo of input deck ==============================
echo

start h3co_dat

geometry
    o      0.00000000     0.00000000     0.27851507
    c      0.00000000     0.00000000     1.63192657
    h      0.26167571    -0.97658705     2.06772417
    h     -0.97658705     0.26167571     2.06772417
    h      0.71491134     0.71491134     2.06772417
end
charge -1

basis
  * library 6-31g*
end

cosmo
  minbem 2
  maxbem 4
end

driver
  tight
end

task scf optimize
================================================================================


                                         
                                         


              Northwest Computational Chemistry Package (NWChem) 6.3
              ------------------------------------------------------


                    Environmental Molecular Sciences Laboratory
                       Pacific Northwest National Laboratory
                                Richland, WA 99352

                              Copyright (c) 1994-2013
                       Pacific Northwest National Laboratory
                            Battelle Memorial Institute

             NWChem is an open-source computational chemistry package
                        distributed under the terms of the
                      Educational Community License (ECL) 2.0
             A copy of the license is included with this distribution
                              in the LICENSE.TXT file

                                  ACKNOWLEDGMENT
                                  --------------

            This software and its documentation were developed at the
            EMSL at Pacific Northwest National Laboratory, a multiprogram
            national laboratory, operated for the U.S. Department of Energy
            by Battelle under Contract Number DE-AC05-76RL01830. Support
            for this work was provided by the Department of Energy Office
            of Biological and Environmental Research, Office of Basic
            Energy Sciences, and the Office of Advanced Scientific Computing.


           Job information
           ---------------

    hostname        = arcen
    program         = ../../../bin/LINUX64/nwchem
    date            = Wed Sep 25 11:00:06 2013

    compiled        = Tue_Sep_24_14:15:10_2013
    source          = /home/d3y133/nwchem-dev/nwchem-dev-2013-09-10
    nwchem branch   = Development
    nwchem revision = 24582
    ga revision     = 10418
    input           = cosmo_h3co.nw
    prefix          = h3co_dat.
    data base       = ./h3co_dat.db
    status          = startup
    nproc           =        4
    time left       =     -1s



           Memory information
           ------------------

    heap     =   13107201 doubles =    100.0 Mbytes
    stack    =   13107201 doubles =    100.0 Mbytes
    global   =   26214400 doubles =    200.0 Mbytes (distinct from heap & stack)
    total    =   52428802 doubles =    400.0 Mbytes
    verify   = yes
    hardfail = no 


           Directory information
           ---------------------

  0 permanent = .
  0 scratch   = .




                                NWChem Input Module
                                -------------------



 Scaling coordinates for geometry "geometry" by  1.889725989
 (inverse scale =  0.529177249)

 C3V symmetry detected

          ------
          auto-z
          ------
  Looking for out-of-plane bends


                             Geometry "geometry" -> ""
                             -------------------------

 Output coordinates in angstroms (scale by  1.889725989 to convert to a.u.)

  No.       Tag          Charge          X              Y              Z
 ---- ---------------- ---------- -------------- -------------- --------------
    1 o                    8.0000     0.00000000     0.00000000    -0.79341743
    2 c                    6.0000     0.00000000     0.00000000     0.55999407
    3 h                    1.0000     0.71491134     0.71491134     0.99579167
    4 h                    1.0000     0.26167571    -0.97658705     0.99579167
    5 h                    1.0000    -0.97658705     0.26167571     0.99579167

      Atomic Mass 
      ----------- 

      o                 15.994910
      c                 12.000000
      h                  1.007825


 Effective nuclear repulsion energy (a.u.)      34.5058725513

            Nuclear Dipole moment (a.u.) 
            ----------------------------
        X                 Y               Z
 ---------------- ---------------- ----------------
     0.0000000000     0.0000000000     0.0000000000

      Symmetry information
      --------------------

 Group name             C3v       
 Group number             17
 Group order               6
 No. of unique centers     3

      Symmetry unique atoms

     1    2    3



                                Z-matrix (autoz)
                                -------- 

 Units are Angstrom for bonds and degrees for angles

      Type          Name      I     J     K     L     M      Value
      ----------- --------  ----- ----- ----- ----- ----- ----------
    1 Stretch                  1     2                       1.35341
    2 Stretch                  2     3                       1.10096
    3 Stretch                  2     4                       1.10096
    4 Stretch                  2     5                       1.10096
    5 Bend                     1     2     3               113.31798
    6 Bend                     1     2     4               113.31798
    7 Bend                     1     2     5               113.31798
    8 Bend                     3     2     4               105.36538
    9 Bend                     3     2     5               105.36538
   10 Bend                     4     2     5               105.36538


            XYZ format geometry
            -------------------
     5
 geometry
 o                     0.00000000     0.00000000    -0.79341743
 c                     0.00000000     0.00000000     0.55999407
 h                     0.71491134     0.71491134     0.99579167
 h                     0.26167571    -0.97658705     0.99579167
 h                    -0.97658705     0.26167571     0.99579167

 ==============================================================================
                                internuclear distances
 ------------------------------------------------------------------------------
       center one      |      center two      | atomic units |  angstroms
 ------------------------------------------------------------------------------
    2 c                |   1 o                |     2.55758  |     1.35341
    3 h                |   2 c                |     2.08052  |     1.10096
    4 h                |   2 c                |     2.08052  |     1.10096
    5 h                |   2 c                |     2.08052  |     1.10096
 ------------------------------------------------------------------------------
                         number of included internuclear distances:          4
 ==============================================================================



 ==============================================================================
                                 internuclear angles
 ------------------------------------------------------------------------------
        center 1       |       center 2       |       center 3       |  degrees
 ------------------------------------------------------------------------------
    1 o                |   2 c                |   3 h                |   113.32
    1 o                |   2 c                |   4 h                |   113.32
    1 o                |   2 c                |   5 h                |   113.32
    3 h                |   2 c                |   4 h                |   105.37
    3 h                |   2 c                |   5 h                |   105.37
    4 h                |   2 c                |   5 h                |   105.37
 ------------------------------------------------------------------------------
                            number of included internuclear angles:          6
 ==============================================================================





 Summary of "ao basis" -> "" (cartesian)
 ------------------------------------------------------------------------------
       Tag                 Description            Shells   Functions and Types
 ---------------- ------------------------------  ------  ---------------------
 *                           6-31g*                   on all atoms 




                           NWChem Geometry Optimization
                           ----------------------------


 maximum gradient threshold         (gmax) =   0.000015
 rms gradient threshold             (grms) =   0.000010
 maximum cartesian step threshold   (xmax) =   0.000060
 rms cartesian step threshold       (xrms) =   0.000040
 fixed trust radius                (trust) =   0.300000
 maximum step size to saddle      (sadstp) =   0.100000
 energy precision                  (eprec) =   1.0D-07
 maximum number of steps          (nptopt) =   20
 initial hessian option           (inhess) =    0
 line search option               (linopt) =    1
 hessian update option            (modupd) =    1
 saddle point option              (modsad) =    0
 initial eigen-mode to follow     (moddir) =    0
 initial variable to follow       (vardir) =    0
 follow first negative mode     (firstneg) =    T
 apply conjugacy                    (opcg) =    F
 source of zmatrix                         =   autoz   


          -------------------
          Energy Minimization
          -------------------


 Names of Z-matrix variables 
    1              2              3              4              5         
    6              7              8              9             10         

 Variables with the same non-blank name are constrained to be equal


 Using diagonal initial Hessian 
 Scaling for Hessian diagonals: bonds = 1.00  angles = 0.25  torsions = 0.10

          --------
          Step   0
          --------


                         Geometry "geometry" -> "geometry"
                         ---------------------------------

 Output coordinates in angstroms (scale by  1.889725989 to convert to a.u.)

  No.       Tag          Charge          X              Y              Z
 ---- ---------------- ---------- -------------- -------------- --------------
    1 o                    8.0000     0.00000000     0.00000000    -0.79341743
    2 c                    6.0000     0.00000000     0.00000000     0.55999407
    3 h                    1.0000     0.71491134     0.71491134     0.99579167
    4 h                    1.0000     0.26167571    -0.97658705     0.99579167
    5 h                    1.0000    -0.97658705     0.26167571     0.99579167

      Atomic Mass 
      ----------- 

      o                 15.994910
      c                 12.000000
      h                  1.007825


 Effective nuclear repulsion energy (a.u.)      34.5058725513

            Nuclear Dipole moment (a.u.) 
            ----------------------------
        X                 Y               Z
 ---------------- ---------------- ----------------
     0.0000000000     0.0000000000     0.0000000000

      Symmetry information
      --------------------

 Group name             C3v       
 Group number             17
 Group order               6
 No. of unique centers     3

      Symmetry unique atoms

     1    2    3

                      Basis "ao basis" -> "ao basis" (cartesian)
                      -----
  o (Oxygen)
  ----------
            Exponent  Coefficients 
       -------------- ---------------------------------------------------------
  1 S  5.48467170E+03  0.001831
  1 S  8.25234950E+02  0.013950
  1 S  1.88046960E+02  0.068445
  1 S  5.29645000E+01  0.232714
  1 S  1.68975700E+01  0.470193
  1 S  5.79963530E+00  0.358521

  2 S  1.55396160E+01 -0.110778
  2 S  3.59993360E+00 -0.148026
  2 S  1.01376180E+00  1.130767

  3 P  1.55396160E+01  0.070874
  3 P  3.59993360E+00  0.339753
  3 P  1.01376180E+00  0.727159

  4 S  2.70005800E-01  1.000000

  5 P  2.70005800E-01  1.000000

  6 D  8.00000000E-01  1.000000

  c (Carbon)
  ----------
            Exponent  Coefficients 
       -------------- ---------------------------------------------------------
  1 S  3.04752490E+03  0.001835
  1 S  4.57369510E+02  0.014037
  1 S  1.03948690E+02  0.068843
  1 S  2.92101550E+01  0.232184
  1 S  9.28666300E+00  0.467941
  1 S  3.16392700E+00  0.362312

  2 S  7.86827240E+00 -0.119332
  2 S  1.88128850E+00 -0.160854
  2 S  5.44249300E-01  1.143456

  3 P  7.86827240E+00  0.068999
  3 P  1.88128850E+00  0.316424
  3 P  5.44249300E-01  0.744308

  4 S  1.68714400E-01  1.000000

  5 P  1.68714400E-01  1.000000

  6 D  8.00000000E-01  1.000000

  h (Hydrogen)
  ------------
            Exponent  Coefficients 
       -------------- ---------------------------------------------------------
  1 S  1.87311370E+01  0.033495
  1 S  2.82539370E+00  0.234727
  1 S  6.40121700E-01  0.813757

  2 S  1.61277800E-01  1.000000



 Summary of "ao basis" -> "ao basis" (cartesian)
 ------------------------------------------------------------------------------
       Tag                 Description            Shells   Functions and Types
 ---------------- ------------------------------  ------  ---------------------
 o                           6-31g*                  6       15   3s2p1d
 c                           6-31g*                  6       15   3s2p1d
 h                           6-31g*                  2        2   2s



          ---------------
          -cosmo- solvent
          ---------------
 dielectric constant -eps-  =  78.40
 charge screening approach  =   2
 screen = (eps-1)/(eps    ) =   0.98724
 -lineq- algorithm          =   1
 -bem- low  level           =   2
 -bem- high level           =   4
 -bem- from -octahedral-
 solvent radius (ang.)      =   0.500
 atomic radii = 
 --------------
    1  8.000  1.720
    2  6.000  2.000
    3  1.000  1.300
    4  1.000  1.300
    5  1.000  1.300

 solvent accessible surface
 --------------------------

 ---------- ATOMIC COORDINATES (A.U.) ------------ VDWR(ANG.) --
     1    0.00000000    0.00000000   -1.49934154     1.720
     2    0.00000000    0.00000000    1.05823535     2.000
     3    1.35098654    1.35098654    1.88177340     1.300
     4    0.49449539   -1.84548193    1.88177340     1.300
     5   -1.84548193    0.49449539    1.88177340     1.300
 number of segments per atom =         32
 number of   points per atom =        640
 atom (   nspa,  nppa )
 ----------------------
    1 (     24,   288 )     288
    2 (     25,   200 )     200
    3 (     15,   145 )     145
    4 (     11,   140 )     140
    5 (     11,   140 )     140
 number of -cosmo- surface points =       86
 molecular surface =     46.540 angstrom**2
 molecular volume  =     26.175 angstrom**3
 G(cav/disp)       =      1.093 kcal/mol
 ...... end of -cosmo- initialization ......


                                 NWChem SCF Module
                                 -----------------



  ao basis        = "ao basis"
  functions       =    36
  atoms           =     5
  closed shells   =     9
  open shells     =     0
  charge          =  -1.00
  wavefunction    = RHF 
  input vectors   = atomic
  output vectors  = ./h3co_dat.movecs
  use symmetry    = T
  symmetry adapt  = T


 Summary of "ao basis" -> "ao basis" (cartesian)
 ------------------------------------------------------------------------------
       Tag                 Description            Shells   Functions and Types
 ---------------- ------------------------------  ------  ---------------------
 o                           6-31g*                  6       15   3s2p1d
 c                           6-31g*                  6       15   3s2p1d
 h                           6-31g*                  2        2   2s


      Symmetry analysis of basis
      --------------------------

        a1         16
        a2          0
        e          20


 Forming initial guess at       1.2s


      Superposition of Atomic Density Guess
      -------------------------------------

 Sum of atomic energies:        -113.90930400

 Renormalizing density from      17.00 to     18

      Non-variational initial energy
      ------------------------------

 Total energy =    -118.682639
 1-e energy   =    -236.279763
 2-e energy   =      83.091251
 HOMO         =       0.126695
 LUMO         =       0.465824


      Symmetry analysis of molecular orbitals - initial
      -------------------------------------------------

  Numbering of irreducible representations: 

     1 a1          2 a2          3 e       

  Orbital symmetries:

     1 a1          2 a1          3 a1          4 a1          5 e       
     6 e           7 a1          8 e           9 e          10 a1      
    11 e          12 e          13 a1         14 e          15 e       
    16 a1         17 a1         18 e          19 e       


 Starting SCF solution at       1.2s



 ----------------------------------------------
         Quadratically convergent ROHF

 Convergence threshold     :          1.000E-04
 Maximum no. of iterations :           30
 Final Fock-matrix accuracy:          1.000E-07
 ----------------------------------------------

     COSMO gas phase

 #quartets = 6.629D+03 #integrals = 7.316D+04 #direct =  0.0% #cached =100.0%


 Integral file          = ./h3co_dat.aoints.0
 Record size in doubles =  65536        No. of integs per rec  =  43688
 Max. records in memory =      2        Max. records in file   =   7257
 No. of bits per label  =      8        No. of bits per value  =     64


File balance: exchanges=     0  moved=     0  time=   0.0


              iter       energy          gnorm     gmax       time
             ----- ------------------- --------- --------- --------
                 1     -114.2840465886  1.28D+00  4.83D-01      0.1
                 2     -114.3777046319  2.00D-01  8.02D-02      0.1
                 3     -114.3810582621  1.34D-02  5.65D-03      0.1
                 4     -114.3810797776  1.19D-04  4.35D-05      0.2
                 5     -114.3810797792  8.48D-06  3.36D-06      0.2
     COSMO solvation phase

              iter       energy          gnorm     gmax       time
             ----- ------------------- --------- --------- --------
                 1     -114.5097380458  1.33D-01  5.66D-02      0.2
                 2     -114.5128420071  2.58D-02  1.31D-02      0.3
                 3     -114.5129268102  4.66D-03  2.35D-03      0.3
                 4     -114.5129248886  8.19D-04  3.94D-04      0.4
                 5     -114.5129240338  1.43D-04  6.95D-05      0.4
                 6     -114.5129238573  2.51D-05  1.25D-05      0.5
 
                  COSMO solvation results
                  -----------------------
 
                 gas phase energy =      -114.3810797792
                 sol phase energy =      -114.5129238573
 (electrostatic) solvation energy =         0.1318440781 (   82.73 kcal/mol)


       Final RHF  results 
       ------------------ 

         Total SCF energy =   -114.512923857255
      One-electron energy =   -235.086046530943
      Two-electron energy =     81.749504796157
 Nuclear repulsion energy =     34.505872551266

        Time for solution =      0.4s



       Symmetry analysis of molecular orbitals - final
       -----------------------------------------------

  Numbering of irreducible representations: 

     1 a1          2 a2          3 e       

  Orbital symmetries:

     1 a1          2 a1          3 a1          4 a1          5 e       
     6 e           7 a1          8 e           9 e          10 a1      
    11 e          12 e          13 a1         14 e          15 e       
    16 a1         17 a1         18 e          19 e       

             Final eigenvalues
             -----------------

              1      
    1  -20.3880
    2  -11.2149
    3   -1.1854
    4   -0.8287
    5   -0.5462
    6   -0.5462
    7   -0.4692
    8   -0.3076
    9   -0.3076
   10    0.2792
   11    0.3637
   12    0.3637
   13    0.4156
   14    0.8134
   15    0.8134
   16    0.9100
   17    1.1305
   18    1.1616
   19    1.1616

                       ROHF Final Molecular Orbital Analysis
                       -------------------------------------

 Vector    2  Occ=2.000000D+00  E=-1.121488D+01  Symmetry=a1
              MO Center= -1.7D-21,  3.4D-21,  5.6D-01, r^2= 2.7D-02
   Bfn.  Coefficient  Atom+Function         Bfn.  Coefficient  Atom+Function  
  ----- ------------  ---------------      ----- ------------  ---------------
    16      0.995806  2 C  s          

 Vector    3  Occ=2.000000D+00  E=-1.185358D+00  Symmetry=a1
              MO Center= -1.1D-19,  8.1D-20, -4.4D-01, r^2= 6.5D-01
   Bfn.  Coefficient  Atom+Function         Bfn.  Coefficient  Atom+Function  
  ----- ------------  ---------------      ----- ------------  ---------------
     6      0.438183  1 O  s                  2      0.419884  1 O  s          
     1     -0.195139  1 O  s                 17      0.190338  2 C  s          

 Vector    4  Occ=2.000000D+00  E=-8.286913D-01  Symmetry=a1
              MO Center=  0.0D+00,  6.9D-18,  6.0D-01, r^2= 1.4D+00
   Bfn.  Coefficient  Atom+Function         Bfn.  Coefficient  Atom+Function  
  ----- ------------  ---------------      ----- ------------  ---------------
     6      0.307986  1 O  s                 17     -0.306724  2 C  s          
    21     -0.305455  2 C  s                  2      0.196440  1 O  s          
    20     -0.165227  2 C  pz                16      0.158445  2 C  s          

 Vector    5  Occ=2.000000D+00  E=-5.461560D-01  Symmetry=e
              MO Center=  1.4D-01, -1.4D-01,  4.9D-01, r^2= 1.4D+00
   Bfn.  Coefficient  Atom+Function         Bfn.  Coefficient  Atom+Function  
  ----- ------------  ---------------      ----- ------------  ---------------
    19      0.396806  2 C  py                 4      0.234236  1 O  py         
    33     -0.228051  4 H  s                 34     -0.212622  4 H  s          
    23      0.189845  2 C  py                31      0.164379  3 H  s          
     8      0.156918  1 O  py                32      0.153258  3 H  s          

 Vector    6  Occ=2.000000D+00  E=-5.461560D-01  Symmetry=e
              MO Center= -1.4D-01,  1.4D-01,  4.9D-01, r^2= 1.4D+00
   Bfn.  Coefficient  Atom+Function         Bfn.  Coefficient  Atom+Function  
  ----- ------------  ---------------      ----- ------------  ---------------
    18      0.396806  2 C  px                 3      0.234236  1 O  px         
    35     -0.226570  5 H  s                 36     -0.211241  5 H  s          
    22      0.189845  2 C  px                31      0.168426  3 H  s          
     7      0.156918  1 O  px                32      0.157031  3 H  s          

 Vector    7  Occ=2.000000D+00  E=-4.691601D-01  Symmetry=a1
              MO Center= -5.2D-18,  3.0D-18, -4.7D-01, r^2= 1.2D+00
   Bfn.  Coefficient  Atom+Function         Bfn.  Coefficient  Atom+Function  
  ----- ------------  ---------------      ----- ------------  ---------------
     5      0.468019  1 O  pz                20     -0.363473  2 C  pz         
     6     -0.349466  1 O  s                  9      0.341492  1 O  pz         

 Vector    8  Occ=2.000000D+00  E=-3.075567D-01  Symmetry=e
              MO Center= -8.6D-02, -2.2D-02, -4.0D-01, r^2= 1.4D+00
   Bfn.  Coefficient  Atom+Function         Bfn.  Coefficient  Atom+Function  
  ----- ------------  ---------------      ----- ------------  ---------------
     3      0.478231  1 O  px                 7      0.446688  1 O  px         
    36      0.274302  5 H  s                  4     -0.272764  1 O  py         
     8     -0.254773  1 O  py                34     -0.199466  4 H  s          
    35      0.163879  5 H  s          

 Vector    9  Occ=2.000000D+00  E=-3.075567D-01  Symmetry=e
              MO Center=  8.6D-02,  2.2D-02, -4.0D-01, r^2= 1.4D+00
   Bfn.  Coefficient  Atom+Function         Bfn.  Coefficient  Atom+Function  
  ----- ------------  ---------------      ----- ------------  ---------------
     4      0.478231  1 O  py                 8      0.446688  1 O  py         
     3      0.272764  1 O  px                32     -0.273530  3 H  s          
     7      0.254773  1 O  px                34      0.201575  4 H  s          
    31     -0.163418  3 H  s          

 Vector   10  Occ=0.000000D+00  E= 2.792118D-01  Symmetry=a1
              MO Center=  5.6D-16,  6.1D-16,  1.1D+00, r^2= 3.6D+00
   Bfn.  Coefficient  Atom+Function         Bfn.  Coefficient  Atom+Function  
  ----- ------------  ---------------      ----- ------------  ---------------
    21      2.470827  2 C  s                 32     -1.243970  3 H  s          
    34     -1.243970  4 H  s                 36     -1.243970  5 H  s          
    24      0.807119  2 C  pz                20      0.176518  2 C  pz         

 Vector   11  Occ=0.000000D+00  E= 3.637471D-01  Symmetry=e
              MO Center= -3.0D-01, -3.6D-01,  9.6D-01, r^2= 3.0D+00
   Bfn.  Coefficient  Atom+Function         Bfn.  Coefficient  Atom+Function  
  ----- ------------  ---------------      ----- ------------  ---------------
    34      1.686425  4 H  s                 36     -1.609894  5 H  s          
    23      1.112344  2 C  py                22     -1.026340  2 C  px         
    19      0.272614  2 C  py                18     -0.251536  2 C  px         
     8     -0.240883  1 O  py                 7      0.222258  1 O  px         

 Vector   12  Occ=0.000000D+00  E= 3.637471D-01  Symmetry=e
              MO Center=  3.0D-01,  3.6D-01,  9.6D-01, r^2= 3.0D+00
   Bfn.  Coefficient  Atom+Function         Bfn.  Coefficient  Atom+Function  
  ----- ------------  ---------------      ----- ------------  ---------------
    32      1.903131  3 H  s                 22     -1.112344  2 C  px         
    23     -1.026340  2 C  py                36     -1.017843  5 H  s          
    34     -0.885288  4 H  s                 18     -0.272614  2 C  px         
    19     -0.251536  2 C  py                 7      0.240883  1 O  px         
     8      0.222258  1 O  py         

 Vector   13  Occ=0.000000D+00  E= 4.156208D-01  Symmetry=a1
              MO Center= -1.0D-17,  3.0D-17,  6.5D-01, r^2= 2.6D+00
   Bfn.  Coefficient  Atom+Function         Bfn.  Coefficient  Atom+Function  
  ----- ------------  ---------------      ----- ------------  ---------------
     6      1.796255  1 O  s                 24      1.732646  2 C  pz         
    21     -1.636166  2 C  s                  9      0.985576  1 O  pz         
     5      0.201952  1 O  pz         

 Vector   14  Occ=0.000000D+00  E= 8.133708D-01  Symmetry=e
              MO Center= -1.2D-01, -1.8D-01,  5.4D-01, r^2= 2.1D+00
   Bfn.  Coefficient  Atom+Function         Bfn.  Coefficient  Atom+Function  
  ----- ------------  ---------------      ----- ------------  ---------------
    22      1.319849  2 C  px                23      1.074253  2 C  py         
    18     -0.571038  2 C  px                31     -0.497355  3 H  s          
    19     -0.464780  2 C  py                32     -0.361301  3 H  s          
    35      0.292862  5 H  s                  7     -0.214487  1 O  px         
    36      0.212748  5 H  s                 33      0.204492  4 H  s          

 Vector   15  Occ=0.000000D+00  E= 8.133708D-01  Symmetry=e
              MO Center=  1.2D-01,  1.8D-01,  5.4D-01, r^2= 2.1D+00
   Bfn.  Coefficient  Atom+Function         Bfn.  Coefficient  Atom+Function  
  ----- ------------  ---------------      ----- ------------  ---------------
    23      1.319849  2 C  py                22     -1.074253  2 C  px         
    19     -0.571038  2 C  py                18      0.464780  2 C  px         
    33      0.456232  4 H  s                 35     -0.405212  5 H  s          
    34      0.331427  4 H  s                 36     -0.294364  5 H  s          
     8     -0.214487  1 O  py                 7      0.174576  1 O  px         

 Vector   16  Occ=0.000000D+00  E= 9.099982D-01  Symmetry=a1
              MO Center= -4.3D-18, -1.2D-17,  1.2D-01, r^2= 1.4D+00
   Bfn.  Coefficient  Atom+Function         Bfn.  Coefficient  Atom+Function  
  ----- ------------  ---------------      ----- ------------  ---------------
    20      1.018615  2 C  pz                24     -0.980277  2 C  pz         
     6     -0.539933  1 O  s                 17     -0.468068  2 C  s          
     5      0.317881  1 O  pz                 2      0.244600  1 O  s          
     9      0.219718  1 O  pz                21      0.157657  2 C  s          

 Vector   17  Occ=0.000000D+00  E= 1.130501D+00  Symmetry=a1
              MO Center= -4.6D-17, -1.7D-16, -5.0D-01, r^2= 2.5D+00
   Bfn.  Coefficient  Atom+Function         Bfn.  Coefficient  Atom+Function  
  ----- ------------  ---------------      ----- ------------  ---------------
     6      1.559320  1 O  s                 21      1.558190  2 C  s          
     2     -0.903439  1 O  s                 24      0.565160  2 C  pz         
     9     -0.516258  1 O  pz                17     -0.499174  2 C  s          
     5      0.460399  1 O  pz                15     -0.401800  1 O  dzz        
    31     -0.361108  3 H  s                 33     -0.361108  4 H  s          

 Vector   18  Occ=0.000000D+00  E= 1.161564D+00  Symmetry=e
              MO Center=  3.2D-01, -6.0D-02,  8.1D-01, r^2= 1.8D+00
   Bfn.  Coefficient  Atom+Function         Bfn.  Coefficient  Atom+Function  
  ----- ------------  ---------------      ----- ------------  ---------------
    32      1.327242  3 H  s                 34     -1.271135  4 H  s          
    23     -1.169249  2 C  py                19      0.833432  2 C  py         
    31     -0.701110  3 H  s                 33      0.671471  4 H  s          
    22     -0.360644  2 C  px                18      0.257064  2 C  px         
    29     -0.234897  2 C  dyz               26     -0.230102  2 C  dxy        

 Vector   19  Occ=0.000000D+00  E= 1.161564D+00  Symmetry=e
              MO Center= -3.2D-01,  6.0D-02,  8.1D-01, r^2= 1.8D+00
   Bfn.  Coefficient  Atom+Function         Bfn.  Coefficient  Atom+Function  
  ----- ------------  ---------------      ----- ------------  ---------------
    36      1.500174  5 H  s                 22      1.169249  2 C  px         
    18     -0.833432  2 C  px                34     -0.798677  4 H  s          
    35     -0.792460  5 H  s                 32     -0.701496  3 H  s          
    33      0.421898  4 H  s                 31      0.370562  3 H  s          
    23     -0.360644  2 C  py                19      0.257064  2 C  py         


 center of mass
 --------------
 x =   0.00000000 y =   0.00000000 z =  -0.18032899

 moments of inertia (a.u.)
 ------------------
          64.611309796422           0.000000000000           0.000000000000
           0.000000000000          64.611309796422           0.000000000000
           0.000000000000           0.000000000000          11.036679212476

  Mulliken analysis of the total density
  --------------------------------------

    Atom       Charge   Shell Charges
 -----------   ------   -------------------------------------------------------
    1 O    8     9.03   2.00  0.85  2.85  1.06  2.27  0.01
    2 C    6     6.05   2.00  0.64  1.95  0.53  0.82  0.12
    3 H    1     0.97   0.55  0.42
    4 H    1     0.97   0.55  0.42
    5 H    1     0.97   0.55  0.42

       Multipole analysis of the density wrt the origin
       ------------------------------------------------

     L   x y z        total         open         nuclear
     -   - - -        -----         ----         -------
     0   0 0 0     -1.000000      0.000000     17.000000

     1   1 0 0      0.000000      0.000000      0.000000
     1   0 1 0      0.000000      0.000000      0.000000
     1   0 0 1      1.418409      0.000000      0.000000

     2   2 0 0    -11.388322      0.000000      5.475494
     2   1 1 0      0.000000      0.000000      0.000000
     2   1 0 1      0.000000      0.000000      0.000000
     2   0 2 0    -11.388322      0.000000      5.475494
     2   0 1 1      0.000000      0.000000      0.000000
     2   0 0 2    -14.247236      0.000000     35.326586


 Parallel integral file used       4 records with       0 large values

                              NWChem Gradients Module
                              -----------------------



  wavefunction    =   RHF     

  Using symmetry


                         RHF ENERGY GRADIENTS

    atom               coordinates                        gradient
                 x          y          z           x          y          z
   1 o       0.000000   0.000000  -1.499342    0.000000   0.000000  -0.002021
   2 c       0.000000   0.000000   1.058235    0.000000   0.000000   0.024066
   3 h       1.350987   1.350987   1.881773   -0.002514  -0.002514  -0.007348
   4 h       0.494495  -1.845482   1.881773   -0.000920   0.003434  -0.007348
   5 h      -1.845482   0.494495   1.881773    0.003434  -0.000920  -0.007348

                 ----------------------------------------
                 |  Time  |  1-e(secs)   |  2-e(secs)   |
                 ----------------------------------------
                 |  CPU   |       0.02   |       0.18   |
                 ----------------------------------------
                 |  WALL  |       0.03   |       0.18   |
                 ----------------------------------------

@ Step       Energy      Delta E   Gmax     Grms     Xrms     Xmax   Walltime
@ ---- ---------------- -------- -------- -------- -------- -------- --------
@    0    -114.51292386  0.0D+00  0.00617  0.00405  0.00000  0.00000      2.6
                                                                    



                                Z-matrix (autoz)
                                -------- 

 Units are Angstrom for bonds and degrees for angles

      Type          Name      I     J     K     L     M      Value     Gradient
      ----------- --------  ----- ----- ----- ----- ----- ---------- ----------
    1 Stretch                  1     2                       1.35341    0.00202
    2 Stretch                  2     3                       1.10096   -0.00617
    3 Stretch                  2     4                       1.10096   -0.00617
    4 Stretch                  2     5                       1.10096   -0.00617
    5 Bend                     1     2     3               113.31798   -0.00258
    6 Bend                     1     2     4               113.31798   -0.00258
    7 Bend                     1     2     5               113.31798   -0.00258
    8 Bend                     3     2     4               105.36538    0.00292
    9 Bend                     3     2     5               105.36538    0.00292
   10 Bend                     4     2     5               105.36538    0.00292


          ---------------
          -cosmo- solvent
          ---------------
 dielectric constant -eps-  =  78.40
 charge screening approach  =   2
 screen = (eps-1)/(eps    ) =   0.98724
 -lineq- algorithm          =   1
 -bem- low  level           =   2
 -bem- high level           =   4
 -bem- from -octahedral-
 solvent radius (ang.)      =   0.500
 atomic radii = 
 --------------
    1  8.000  1.720
    2  6.000  2.000
    3  1.000  1.300
    4  1.000  1.300
    5  1.000  1.300

 solvent accessible surface
 --------------------------

 ---------- ATOMIC COORDINATES (A.U.) ------------ VDWR(ANG.) --
     1    0.00000000    0.00000000   -1.52916189     1.720
     2    0.00000000    0.00000000    1.02357824     2.000
     3    1.34736618    1.34736618    1.90326589     1.300
     4    0.49317025   -1.84053643    1.90326589     1.300
     5   -1.84053643    0.49317025    1.90326589     1.300
 number of segments per atom =         32
 number of   points per atom =        640
 atom (   nspa,  nppa )
 ----------------------
    1 (     24,   288 )     288
    2 (     25,   200 )     200
    3 (     15,   145 )     145
    4 (     11,   142 )     142
    5 (     11,   142 )     142
 number of -cosmo- surface points =       86
 molecular surface =     46.673 angstrom**2
 molecular volume  =     26.232 angstrom**3
 G(cav/disp)       =      1.093 kcal/mol
 ...... end of -cosmo- initialization ......


                                 NWChem SCF Module
                                 -----------------



  ao basis        = "ao basis"
  functions       =    36
  atoms           =     5
  closed shells   =     9
  open shells     =     0
  charge          =  -1.00
  wavefunction    = RHF 
  input vectors   = ./h3co_dat.movecs
  output vectors  = ./h3co_dat.movecs
  use symmetry    = T
  symmetry adapt  = T


 Summary of "ao basis" -> "ao basis" (cartesian)
 ------------------------------------------------------------------------------
       Tag                 Description            Shells   Functions and Types
 ---------------- ------------------------------  ------  ---------------------
 o                           6-31g*                  6       15   3s2p1d
 c                           6-31g*                  6       15   3s2p1d
 h                           6-31g*                  2        2   2s


      Symmetry analysis of basis
      --------------------------

        a1         16
        a2          0
        e          20


 Forming initial guess at       2.6s


 Loading old vectors from job with title :




      Symmetry analysis of molecular orbitals - initial
      -------------------------------------------------

  Numbering of irreducible representations: 

     1 a1          2 a2          3 e       

  Orbital symmetries:

     1 a1          2 a1          3 a1          4 a1          5 e       
     6 e           7 a1          8 e           9 e          10 a1      
    11 e          12 e          13 a1         14 e          15 e       
    16 a1         17 a1         18 e          19 e       


 Starting SCF solution at       2.6s



 ----------------------------------------------
         Quadratically convergent ROHF

 Convergence threshold     :          1.000E-04
 Maximum no. of iterations :           30
 Final Fock-matrix accuracy:          1.000E-07
 ----------------------------------------------

     COSMO gas phase

 #quartets = 6.629D+03 #integrals = 7.316D+04 #direct =  0.0% #cached =100.0%


 Integral file          = ./h3co_dat.aoints.0
 Record size in doubles =  65536        No. of integs per rec  =  43688
 Max. records in memory =      2        Max. records in file   =   7257
 No. of bits per label  =      8        No. of bits per value  =     64


File balance: exchanges=     0  moved=     0  time=   0.0


              iter       energy          gnorm     gmax       time
             ----- ------------------- --------- --------- --------
                 1     -114.3777310434  1.77D-01  6.85D-02      0.8
                 2     -114.3826786962  8.08D-03  2.84D-03      0.8
                 3     -114.3826859379  1.88D-05  6.76D-06      0.8
     COSMO solvation phase

              iter       energy          gnorm     gmax       time
             ----- ------------------- --------- --------- --------
                 1     -114.5105342652  1.32D-01  5.37D-02      0.8
                 2     -114.5135888885  2.59D-02  1.28D-02      0.9
                 3     -114.5136742293  4.78D-03  2.36D-03      0.9
                 4     -114.5136720060  8.59D-04  4.03D-04      1.0
                 5     -114.5136710453  1.53D-04  7.26D-05      1.0
                 6     -114.5136708472  2.74D-05  1.34D-05      1.1
 
                  COSMO solvation results
                  -----------------------
 
                 gas phase energy =      -114.3826859379
                 sol phase energy =      -114.5136708472
 (electrostatic) solvation energy =         0.1309849092 (   82.19 kcal/mol)


       Final RHF  results 
       ------------------ 

         Total SCF energy =   -114.513670847165
      One-electron energy =   -234.834298702693
      Two-electron energy =     81.606987575329
 Nuclear repulsion energy =     34.402271849391

        Time for solution =      0.4s



       Symmetry analysis of molecular orbitals - final
       -----------------------------------------------

  Numbering of irreducible representations: 

     1 a1          2 a2          3 e       

  Orbital symmetries:

     1 a1          2 a1          3 a1          4 a1          5 e       
     6 e           7 a1          8 e           9 e          10 a1      
    11 e          12 e          13 a1         14 e          15 e       
    16 a1         17 a1         18 e          19 e       

             Final eigenvalues
             -----------------

              1      
    1  -20.3928
    2  -11.2199
    3   -1.1888
    4   -0.8291
    5   -0.5424
    6   -0.5424
    7   -0.4749
    8   -0.3099
    9   -0.3099
   10    0.2768
   11    0.3629
   12    0.3629
   13    0.4154
   14    0.8153
   15    0.8153
   16    0.9095
   17    1.1385
   18    1.1498
   19    1.1498

                       ROHF Final Molecular Orbital Analysis
                       -------------------------------------

 Vector    2  Occ=2.000000D+00  E=-1.121994D+01  Symmetry=a1
              MO Center= -5.1D-21,  5.1D-21,  5.4D-01, r^2= 2.7D-02
   Bfn.  Coefficient  Atom+Function         Bfn.  Coefficient  Atom+Function  
  ----- ------------  ---------------      ----- ------------  ---------------
    16      0.995825  2 C  s          

 Vector    3  Occ=2.000000D+00  E=-1.188761D+00  Symmetry=a1
              MO Center= -6.5D-19, -3.8D-19, -4.7D-01, r^2= 6.4D-01
   Bfn.  Coefficient  Atom+Function         Bfn.  Coefficient  Atom+Function  
  ----- ------------  ---------------      ----- ------------  ---------------
     6      0.437780  1 O  s                  2      0.421942  1 O  s          
     1     -0.195713  1 O  s                 17      0.189071  2 C  s          

 Vector    4  Occ=2.000000D+00  E=-8.290950D-01  Symmetry=a1
              MO Center= -1.0D-17, -8.7D-18,  6.0D-01, r^2= 1.4D+00
   Bfn.  Coefficient  Atom+Function         Bfn.  Coefficient  Atom+Function  
  ----- ------------  ---------------      ----- ------------  ---------------
    21     -0.309997  2 C  s                 17     -0.305553  2 C  s          
     6      0.303196  1 O  s                  2      0.192287  1 O  s          
    20     -0.167429  2 C  pz                16      0.158206  2 C  s          

 Vector    5  Occ=2.000000D+00  E=-5.423956D-01  Symmetry=e
              MO Center=  7.0D-02,  1.8D-01,  4.7D-01, r^2= 1.5D+00
   Bfn.  Coefficient  Atom+Function         Bfn.  Coefficient  Atom+Function  
  ----- ------------  ---------------      ----- ------------  ---------------
    18      0.329449  2 C  px                31      0.226955  3 H  s          
    19      0.215611  2 C  py                32      0.215327  3 H  s          
     3      0.202635  1 O  px                22      0.160589  2 C  px         
    35     -0.154528  5 H  s          

 Vector    6  Occ=2.000000D+00  E=-5.423956D-01  Symmetry=e
              MO Center= -7.0D-02, -1.8D-01,  4.7D-01, r^2= 1.5D+00
   Bfn.  Coefficient  Atom+Function         Bfn.  Coefficient  Atom+Function  
  ----- ------------  ---------------      ----- ------------  ---------------
    19      0.329449  2 C  py                33     -0.220250  4 H  s          
    18     -0.215611  2 C  px                34     -0.208965  4 H  s          
     4      0.202635  1 O  py                35      0.172849  5 H  s          
    36      0.163993  5 H  s                 23      0.160589  2 C  py         

 Vector    7  Occ=2.000000D+00  E=-4.749266D-01  Symmetry=a1
              MO Center=  1.4D-17, -6.1D-18, -4.9D-01, r^2= 1.2D+00
   Bfn.  Coefficient  Atom+Function         Bfn.  Coefficient  Atom+Function  
  ----- ------------  ---------------      ----- ------------  ---------------
     5      0.468259  1 O  pz                20     -0.362124  2 C  pz         
     6     -0.350750  1 O  s                  9      0.339962  1 O  pz         

 Vector    8  Occ=2.000000D+00  E=-3.099049D-01  Symmetry=e
              MO Center=  3.4D-02,  8.8D-02, -3.9D-01, r^2= 1.5D+00
   Bfn.  Coefficient  Atom+Function         Bfn.  Coefficient  Atom+Function  
  ----- ------------  ---------------      ----- ------------  ---------------
     3      0.458412  1 O  px                 7      0.426813  1 O  px         
     4      0.298558  1 O  py                32     -0.284896  3 H  s          
     8      0.277978  1 O  py                36      0.194551  5 H  s          
    31     -0.168861  3 H  s          

 Vector    9  Occ=2.000000D+00  E=-3.099049D-01  Symmetry=e
              MO Center= -3.4D-02, -8.8D-02, -3.9D-01, r^2= 1.5D+00
   Bfn.  Coefficient  Atom+Function         Bfn.  Coefficient  Atom+Function  
  ----- ------------  ---------------      ----- ------------  ---------------
     4      0.458412  1 O  py                 8      0.426813  1 O  py         
     3     -0.298558  1 O  px                 7     -0.277978  1 O  px         
    34      0.276809  4 H  s                 36     -0.216646  5 H  s          
    33      0.164068  4 H  s          

 Vector   10  Occ=0.000000D+00  E= 2.767699D-01  Symmetry=a1
              MO Center=  6.7D-16, -2.8D-17,  1.1D+00, r^2= 3.5D+00
   Bfn.  Coefficient  Atom+Function         Bfn.  Coefficient  Atom+Function  
  ----- ------------  ---------------      ----- ------------  ---------------
    21      2.445747  2 C  s                 32     -1.238129  3 H  s          
    34     -1.238129  4 H  s                 36     -1.238129  5 H  s          
    24      0.837837  2 C  pz                20      0.176907  2 C  pz         

 Vector   11  Occ=0.000000D+00  E= 3.629457D-01  Symmetry=e
              MO Center= -4.0D-01, -2.2D-01,  9.6D-01, r^2= 3.0D+00
   Bfn.  Coefficient  Atom+Function         Bfn.  Coefficient  Atom+Function  
  ----- ------------  ---------------      ----- ------------  ---------------
    36      1.731690  5 H  s                 34     -1.467245  4 H  s          
    22      1.185303  2 C  px                23     -0.888386  2 C  py         
    18      0.301738  2 C  px                 7     -0.268157  1 O  px         
    32     -0.264446  3 H  s                 19     -0.226153  2 C  py         
     8      0.200984  1 O  py         

 Vector   12  Occ=0.000000D+00  E= 3.629457D-01  Symmetry=e
              MO Center=  4.0D-01,  2.2D-01,  9.6D-01, r^2= 3.0D+00
   Bfn.  Coefficient  Atom+Function         Bfn.  Coefficient  Atom+Function  
  ----- ------------  ---------------      ----- ------------  ---------------
    32      1.846906  3 H  s                 23     -1.185303  2 C  py         
    34     -1.152470  4 H  s                 22     -0.888386  2 C  px         
    36     -0.694436  5 H  s                 19     -0.301738  2 C  py         
     8      0.268157  1 O  py                18     -0.226153  2 C  px         
     7      0.200984  1 O  px         

 Vector   13  Occ=0.000000D+00  E= 4.153747D-01  Symmetry=a1
              MO Center=  3.8D-16,  2.9D-17,  5.9D-01, r^2= 2.6D+00
   Bfn.  Coefficient  Atom+Function         Bfn.  Coefficient  Atom+Function  
  ----- ------------  ---------------      ----- ------------  ---------------
     6      1.810160  1 O  s                 24      1.759698  2 C  pz         
    21     -1.579591  2 C  s                  9      0.988750  1 O  pz         
     5      0.201040  1 O  pz         

 Vector   14  Occ=0.000000D+00  E= 8.153341D-01  Symmetry=e
              MO Center= -2.0D-01, -1.4D-04,  5.2D-01, r^2= 2.1D+00
   Bfn.  Coefficient  Atom+Function         Bfn.  Coefficient  Atom+Function  
  ----- ------------  ---------------      ----- ------------  ---------------
    23      1.540704  2 C  py                19     -0.683139  2 C  py         
    22      0.638808  2 C  px                31     -0.463519  3 H  s          
    33      0.397869  4 H  s                 32     -0.305465  3 H  s          
    18     -0.283244  2 C  px                34      0.262201  4 H  s          
     8     -0.247889  1 O  py                26     -0.159719  2 C  dxy        

 Vector   15  Occ=0.000000D+00  E= 8.153341D-01  Symmetry=e
              MO Center=  2.0D-01,  1.4D-04,  5.2D-01, r^2= 2.1D+00
   Bfn.  Coefficient  Atom+Function         Bfn.  Coefficient  Atom+Function  
  ----- ------------  ---------------      ----- ------------  ---------------
    22      1.540704  2 C  px                18     -0.683139  2 C  px         
    23     -0.638808  2 C  py                35      0.497323  5 H  s          
    36      0.327742  5 H  s                 33     -0.305516  4 H  s          
    19      0.283244  2 C  py                 7     -0.247889  1 O  px         
    34     -0.201339  4 H  s                 31     -0.191807  3 H  s          

 Vector   16  Occ=0.000000D+00  E= 9.094942D-01  Symmetry=a1
              MO Center=  3.8D-17,  1.3D-17,  9.0D-02, r^2= 1.4D+00
   Bfn.  Coefficient  Atom+Function         Bfn.  Coefficient  Atom+Function  
  ----- ------------  ---------------      ----- ------------  ---------------
    20      1.010490  2 C  pz                24     -0.985165  2 C  pz         
     6     -0.545659  1 O  s                 17     -0.492190  2 C  s          
     5      0.320474  1 O  pz                 2      0.243759  1 O  s          
     9      0.218019  1 O  pz                21      0.191382  2 C  s          

 Vector   17  Occ=0.000000D+00  E= 1.138452D+00  Symmetry=a1
              MO Center= -2.4D-16, -1.4D-16, -5.7D-01, r^2= 2.5D+00
   Bfn.  Coefficient  Atom+Function         Bfn.  Coefficient  Atom+Function  
  ----- ------------  ---------------      ----- ------------  ---------------
     6      1.661225  1 O  s                 21      1.436031  2 C  s          
     2     -0.919066  1 O  s                 24      0.632064  2 C  pz         
     9     -0.515877  1 O  pz                 5      0.487462  1 O  pz         
    17     -0.475929  2 C  s                 15     -0.408425  1 O  dzz        
    31     -0.338734  3 H  s                 33     -0.338734  4 H  s          

 Vector   18  Occ=0.000000D+00  E= 1.149811D+00  Symmetry=e
              MO Center= -2.5D-01,  2.1D-01,  8.2D-01, r^2= 1.8D+00
   Bfn.  Coefficient  Atom+Function         Bfn.  Coefficient  Atom+Function  
  ----- ------------  ---------------      ----- ------------  ---------------
    36      1.465001  5 H  s                 22      1.217978  2 C  px         
    32     -1.020090  3 H  s                 18     -0.863040  2 C  px         
    35     -0.772967  5 H  s                 31      0.538222  3 H  s          
    34     -0.444911  4 H  s                 27      0.251219  2 C  dxz        
    33      0.234745  4 H  s                 12     -0.187281  1 O  dxz        

 Vector   19  Occ=0.000000D+00  E= 1.149811D+00  Symmetry=e
              MO Center=  2.5D-01, -2.1D-01,  8.2D-01, r^2= 1.8D+00
   Bfn.  Coefficient  Atom+Function         Bfn.  Coefficient  Atom+Function  
  ----- ------------  ---------------      ----- ------------  ---------------
    34      1.434768  4 H  s                 23      1.217978  2 C  py         
    32     -1.102688  3 H  s                 19     -0.863040  2 C  py         
    33     -0.757016  4 H  s                 31      0.581803  3 H  s          
    36     -0.332080  5 H  s                 29      0.251219  2 C  dyz        
    14     -0.187281  1 O  dyz               26      0.181907  2 C  dxy        


 center of mass
 --------------
 x =   0.00000000 y =   0.00000000 z =  -0.20701887

 moments of inertia (a.u.)
 ------------------
          65.085777658471           0.000000000000           0.000000000000
           0.000000000000          65.085777658471           0.000000000000
           0.000000000000           0.000000000000          10.977606551383

  Mulliken analysis of the total density
  --------------------------------------

    Atom       Charge   Shell Charges
 -----------   ------   -------------------------------------------------------
    1 O    8     9.02   2.00  0.85  2.85  1.06  2.26  0.01
    2 C    6     6.05   2.00  0.63  1.94  0.54  0.83  0.12
    3 H    1     0.98   0.55  0.43
    4 H    1     0.98   0.55  0.43
    5 H    1     0.98   0.55  0.43

       Multipole analysis of the density wrt the origin
       ------------------------------------------------

     L   x y z        total         open         nuclear
     -   - - -        -----         ----         -------
     0   0 0 0     -1.000000      0.000000     17.000000

     1   1 0 0      0.000000      0.000000      0.000000
     1   0 1 0      0.000000      0.000000      0.000000
     1   0 0 1      1.408336      0.000000     -0.382028

     2   2 0 0    -11.467880      0.000000      5.446187
     2   1 1 0      0.000000      0.000000      0.000000
     2   1 0 1      0.000000      0.000000      0.000000
     2   0 2 0    -11.467880      0.000000      5.446187
     2   0 1 1      0.000000      0.000000      0.000000
     2   0 0 2    -14.329109      0.000000     35.860226


 Parallel integral file used       4 records with       0 large values

 Line search: 
     step= 1.00 grad=-1.2D-03 hess= 4.6D-04 energy=   -114.513671 mode=downhill
 new step= 1.31                   predicted energy=   -114.513715

          --------
          Step   1
          --------


                         Geometry "geometry" -> "geometry"
                         ---------------------------------

 Output coordinates in angstroms (scale by  1.889725989 to convert to a.u.)

  No.       Tag          Charge          X              Y              Z
 ---- ---------------- ---------- -------------- -------------- --------------
    1 o                    8.0000     0.00000000     0.00000000    -0.81404682
    2 c                    6.0000     0.00000000     0.00000000     0.53601059
    3 h                    1.0000     0.71231456     0.71231456     1.01066263
    4 h                    1.0000     0.26072523    -0.97303979     1.01066263
    5 h                    1.0000    -0.97303979     0.26072523     1.01066263

      Atomic Mass 
      ----------- 

      o                 15.994910
      c                 12.000000
      h                  1.007825


 Effective nuclear repulsion energy (a.u.)      34.3711191875

            Nuclear Dipole moment (a.u.) 
            ----------------------------
        X                 Y               Z
 ---------------- ---------------- ----------------
     0.0000000000     0.0000000000    -0.4994983058

      Symmetry information
      --------------------

 Group name             C3v       
 Group number             17
 Group order               6
 No. of unique centers     3

      Symmetry unique atoms

     1    2    3


          ---------------
          -cosmo- solvent
          ---------------
 dielectric constant -eps-  =  78.40
 charge screening approach  =   2
 screen = (eps-1)/(eps    ) =   0.98724
 -lineq- algorithm          =   1
 -bem- low  level           =   2
 -bem- high level           =   4
 -bem- from -octahedral-
 solvent radius (ang.)      =   0.500
 atomic radii = 
 --------------
    1  8.000  1.720
    2  6.000  2.000
    3  1.000  1.300
    4  1.000  1.300
    5  1.000  1.300

 solvent accessible surface
 --------------------------

 ---------- ATOMIC COORDINATES (A.U.) ------------ VDWR(ANG.) --
     1    0.00000000    0.00000000   -1.53832543     1.720
     2    0.00000000    0.00000000    1.01291315     2.000
     3    1.34607934    1.34607934    1.90987543     1.300
     4    0.49269924   -1.83877858    1.90987543     1.300
     5   -1.83877858    0.49269924    1.90987543     1.300
 number of segments per atom =         32
 number of   points per atom =        640
 atom (   nspa,  nppa )
 ----------------------
    1 (     24,   288 )     288
    2 (     25,   200 )     200
    3 (     15,   149 )     149
    4 (     11,   142 )     142
    5 (     11,   142 )     142
 number of -cosmo- surface points =       86
 molecular surface =     46.806 angstrom**2
 molecular volume  =     26.290 angstrom**3
 G(cav/disp)       =      1.094 kcal/mol
 ...... end of -cosmo- initialization ......


                                 NWChem SCF Module
                                 -----------------



  ao basis        = "ao basis"
  functions       =    36
  atoms           =     5
  closed shells   =     9
  open shells     =     0
  charge          =  -1.00
  wavefunction    = RHF 
  input vectors   = ./h3co_dat.movecs
  output vectors  = ./h3co_dat.movecs
  use symmetry    = T
  symmetry adapt  = T


 Summary of "ao basis" -> "ao basis" (cartesian)
 ------------------------------------------------------------------------------
       Tag                 Description            Shells   Functions and Types
 ---------------- ------------------------------  ------  ---------------------
 o                           6-31g*                  6       15   3s2p1d
 c                           6-31g*                  6       15   3s2p1d
 h                           6-31g*                  2        2   2s


      Symmetry analysis of basis
      --------------------------

        a1         16
        a2          0
        e          20


 Forming initial guess at       3.6s


 Loading old vectors from job with title :




      Symmetry analysis of molecular orbitals - initial
      -------------------------------------------------

  Numbering of irreducible representations: 

     1 a1          2 a2          3 e       

  Orbital symmetries:

     1 a1          2 a1          3 a1          4 a1          5 e       
     6 e           7 a1          8 e           9 e          10 a1      
    11 e          12 e          13 a1         14 e          15 e       
    16 a1         17 a1         18 e          19 e       


 Starting SCF solution at       3.7s



 ----------------------------------------------
         Quadratically convergent ROHF

 Convergence threshold     :          1.000E-04
 Maximum no. of iterations :           30
 Final Fock-matrix accuracy:          1.000E-07
 ----------------------------------------------

     COSMO gas phase

 #quartets = 6.629D+03 #integrals = 7.316D+04 #direct =  0.0% #cached =100.0%


 Integral file          = ./h3co_dat.aoints.0
 Record size in doubles =  65536        No. of integs per rec  =  43688
 Max. records in memory =      2        Max. records in file   =   7257
 No. of bits per label  =      8        No. of bits per value  =     64


File balance: exchanges=     0  moved=     0  time=   0.0


              iter       energy          gnorm     gmax       time
             ----- ------------------- --------- --------- --------
                 1     -114.3787215049  1.62D-01  6.72D-02      1.2
                 2     -114.3829774640  7.06D-03  2.28D-03      1.2
                 3     -114.3829835557  1.65D-05  4.71D-06      1.2
     COSMO solvation phase

              iter       energy          gnorm     gmax       time
             ----- ------------------- --------- --------- --------
                 1     -114.5105751661  1.31D-01  5.23D-02      1.3
                 2     -114.5136121820  2.60D-02  1.27D-02      1.3
                 3     -114.5136986190  4.83D-03  2.36D-03      1.4
                 4     -114.5136964822  8.74D-04  4.07D-04      1.4
                 5     -114.5136955197  1.57D-04  7.40D-05      1.5
                 6     -114.5136953233  2.83D-05  1.37D-05      1.5
 
                  COSMO solvation results
                  -----------------------
 
                 gas phase energy =      -114.3829835557
                 sol phase energy =      -114.5136953233
 (electrostatic) solvation energy =         0.1307117677 (   82.02 kcal/mol)


       Final RHF  results 
       ------------------ 

         Total SCF energy =   -114.513695323350
      One-electron energy =   -234.757551337639
      Two-electron energy =     81.563479046908
 Nuclear repulsion energy =     34.371119187533

        Time for solution =      0.4s



       Symmetry analysis of molecular orbitals - final
       -----------------------------------------------

  Numbering of irreducible representations: 

     1 a1          2 a2          3 e       

  Orbital symmetries:

     1 a1          2 a1          3 a1          4 a1          5 e       
     6 e           7 a1          8 e           9 e          10 a1      
    11 e          12 e          13 a1         14 e          15 e       
    16 a1         17 a1         18 e          19 e       

             Final eigenvalues
             -----------------

              1      
    1  -20.3943
    2  -11.2215
    3   -1.1898
    4   -0.8292
    5   -0.5413
    6   -0.5413
    7   -0.4767
    8   -0.3106
    9   -0.3106
   10    0.2760
   11    0.3627
   12    0.3627
   13    0.4152
   14    0.8159
   15    0.8159
   16    0.9093
   17    1.1410
   18    1.1463
   19    1.1463

                       ROHF Final Molecular Orbital Analysis
                       -------------------------------------

 Vector    2  Occ=2.000000D+00  E=-1.122151D+01  Symmetry=a1
              MO Center=  0.0D+00,  2.5D-21,  5.4D-01, r^2= 2.7D-02
   Bfn.  Coefficient  Atom+Function         Bfn.  Coefficient  Atom+Function  
  ----- ------------  ---------------      ----- ------------  ---------------
    16      0.995830  2 C  s          

 Vector    3  Occ=2.000000D+00  E=-1.189836D+00  Symmetry=a1
              MO Center= -2.2D-19, -8.1D-20, -4.7D-01, r^2= 6.4D-01
   Bfn.  Coefficient  Atom+Function         Bfn.  Coefficient  Atom+Function  
  ----- ------------  ---------------      ----- ------------  ---------------
     6      0.437653  1 O  s                  2      0.422547  1 O  s          
     1     -0.195880  1 O  s                 17      0.188709  2 C  s          

 Vector    4  Occ=2.000000D+00  E=-8.292198D-01  Symmetry=a1
              MO Center= -1.0D-17, -2.4D-17,  6.0D-01, r^2= 1.4D+00
   Bfn.  Coefficient  Atom+Function         Bfn.  Coefficient  Atom+Function  
  ----- ------------  ---------------      ----- ------------  ---------------
    21     -0.311368  2 C  s                 17     -0.305167  2 C  s          
     6      0.301653  1 O  s                  2      0.191056  1 O  s          
    20     -0.168078  2 C  pz                16      0.158125  2 C  s          

 Vector    5  Occ=2.000000D+00  E=-5.412554D-01  Symmetry=e
              MO Center=  1.5D-01,  1.2D-01,  4.6D-01, r^2= 1.5D+00
   Bfn.  Coefficient  Atom+Function         Bfn.  Coefficient  Atom+Function  
  ----- ------------  ---------------      ----- ------------  ---------------
    19      0.289267  2 C  py                18      0.265678  2 C  px         
    31      0.230525  3 H  s                 32      0.219909  3 H  s          
     4      0.180232  1 O  py                 3      0.165534  1 O  px         

 Vector    6  Occ=2.000000D+00  E=-5.412554D-01  Symmetry=e
              MO Center= -1.5D-01, -1.2D-01,  4.6D-01, r^2= 1.5D+00
   Bfn.  Coefficient  Atom+Function         Bfn.  Coefficient  Atom+Function  
  ----- ------------  ---------------      ----- ------------  ---------------
    18      0.289267  2 C  px                19     -0.265678  2 C  py         
    35     -0.204540  5 H  s                 33      0.194741  4 H  s          
    36     -0.195120  5 H  s                 34      0.185773  4 H  s          
     3      0.180232  1 O  px                 4     -0.165534  1 O  py         

 Vector    7  Occ=2.000000D+00  E=-4.766936D-01  Symmetry=a1
              MO Center= -1.3D-17,  0.0D+00, -5.0D-01, r^2= 1.2D+00
   Bfn.  Coefficient  Atom+Function         Bfn.  Coefficient  Atom+Function  
  ----- ------------  ---------------      ----- ------------  ---------------
     5      0.468315  1 O  pz                20     -0.361711  2 C  pz         
     6     -0.351200  1 O  s                  9      0.339458  1 O  pz         

 Vector    8  Occ=2.000000D+00  E=-3.105978D-01  Symmetry=e
              MO Center= -8.6D-02, -4.3D-02, -3.9D-01, r^2= 1.5D+00
   Bfn.  Coefficient  Atom+Function         Bfn.  Coefficient  Atom+Function  
  ----- ------------  ---------------      ----- ------------  ---------------
     3      0.443141  1 O  px                 7      0.412215  1 O  px         
     4     -0.318837  1 O  py                 8     -0.296586  1 O  py         
    36      0.274533  5 H  s                 34     -0.227270  4 H  s          
    35      0.162335  5 H  s          

 Vector    9  Occ=2.000000D+00  E=-3.105978D-01  Symmetry=e
              MO Center=  8.6D-02,  4.3D-02, -3.9D-01, r^2= 1.5D+00
   Bfn.  Coefficient  Atom+Function         Bfn.  Coefficient  Atom+Function  
  ----- ------------  ---------------      ----- ------------  ---------------
     4      0.443141  1 O  py                 8      0.412215  1 O  py         
     3      0.318837  1 O  px                 7      0.296586  1 O  px         
    32     -0.289716  3 H  s                 34      0.185789  4 H  s          
    31     -0.171313  3 H  s          

 Vector   10  Occ=0.000000D+00  E= 2.759696D-01  Symmetry=a1
              MO Center= -1.1D-16, -1.7D-16,  1.1D+00, r^2= 3.5D+00
   Bfn.  Coefficient  Atom+Function         Bfn.  Coefficient  Atom+Function  
  ----- ------------  ---------------      ----- ------------  ---------------
    21      2.437898  2 C  s                 32     -1.236117  3 H  s          
    34     -1.236117  4 H  s                 36     -1.236117  5 H  s          
    24      0.846862  2 C  pz                20      0.177050  2 C  pz         

 Vector   11  Occ=0.000000D+00  E= 3.626570D-01  Symmetry=e
              MO Center= -4.4D-01,  8.2D-02,  9.6D-01, r^2= 3.0D+00
   Bfn.  Coefficient  Atom+Function         Bfn.  Coefficient  Atom+Function  
  ----- ------------  ---------------      ----- ------------  ---------------
    36      1.852361  5 H  s                 22      1.404950  2 C  px         
    34     -0.990037  4 H  s                 32     -0.862323  3 H  s          
    23     -0.437043  2 C  py                18      0.361850  2 C  px         
     7     -0.321989  1 O  px         

 Vector   12  Occ=0.000000D+00  E= 3.626570D-01  Symmetry=e
              MO Center=  4.4D-01, -8.2D-02,  9.6D-01, r^2= 3.0D+00
   Bfn.  Coefficient  Atom+Function         Bfn.  Coefficient  Atom+Function  
  ----- ------------  ---------------      ----- ------------  ---------------
    32      1.641059  3 H  s                 34     -1.567323  4 H  s          
    23     -1.404950  2 C  py                22     -0.437043  2 C  px         
    19     -0.361850  2 C  py                 8      0.321989  1 O  py         

 Vector   13  Occ=0.000000D+00  E= 4.152176D-01  Symmetry=a1
              MO Center= -9.6D-17, -9.9D-17,  5.8D-01, r^2= 2.6D+00
   Bfn.  Coefficient  Atom+Function         Bfn.  Coefficient  Atom+Function  
  ----- ------------  ---------------      ----- ------------  ---------------
     6      1.814718  1 O  s                 24      1.768711  2 C  pz         
    21     -1.562011  2 C  s                  9      0.989740  1 O  pz         
     5      0.200771  1 O  pz         

 Vector   14  Occ=0.000000D+00  E= 8.158885D-01  Symmetry=e
              MO Center=  1.6D-01, -1.1D-01,  5.1D-01, r^2= 2.1D+00
   Bfn.  Coefficient  Atom+Function         Bfn.  Coefficient  Atom+Function  
  ----- ------------  ---------------      ----- ------------  ---------------
    22      1.650586  2 C  px                18     -0.737532  2 C  px         
    35      0.494806  5 H  s                 31     -0.321444  3 H  s          
    36      0.315811  5 H  s                  7     -0.264694  1 O  px         
    32     -0.205162  3 H  s                 33     -0.173362  4 H  s          
     3     -0.169869  1 O  px                23     -0.150127  2 C  py         

 Vector   15  Occ=0.000000D+00  E= 8.158885D-01  Symmetry=e
              MO Center= -1.6D-01,  1.1D-01,  5.1D-01, r^2= 2.1D+00
   Bfn.  Coefficient  Atom+Function         Bfn.  Coefficient  Atom+Function  
  ----- ------------  ---------------      ----- ------------  ---------------
    23      1.650586  2 C  py                19     -0.737532  2 C  py         
    33      0.471262  4 H  s                 31     -0.385767  3 H  s          
    34      0.300784  4 H  s                  8     -0.264694  1 O  py         
    32     -0.246217  3 H  s                  4     -0.169869  1 O  py         
    22      0.150127  2 C  px         

 Vector   16  Occ=0.000000D+00  E= 9.093253D-01  Symmetry=a1
              MO Center= -7.4D-18,  3.6D-18,  8.1D-02, r^2= 1.4D+00
   Bfn.  Coefficient  Atom+Function         Bfn.  Coefficient  Atom+Function  
  ----- ------------  ---------------      ----- ------------  ---------------
    20      1.007952  2 C  pz                24     -0.986686  2 C  pz         
     6     -0.547440  1 O  s                 17     -0.499625  2 C  s          
     5      0.321303  1 O  pz                 2      0.243367  1 O  s          
     9      0.217308  1 O  pz                21      0.202097  2 C  s          

 Vector   17  Occ=0.000000D+00  E= 1.140983D+00  Symmetry=a1
              MO Center= -2.9D-17,  9.7D-17, -6.1D-01, r^2= 2.4D+00
   Bfn.  Coefficient  Atom+Function         Bfn.  Coefficient  Atom+Function  
  ----- ------------  ---------------      ----- ------------  ---------------
     6      1.691045  1 O  s                 21      1.398133  2 C  s          
     2     -0.923572  1 O  s                 24      0.650956  2 C  pz         
     9     -0.518274  1 O  pz                 5      0.497181  1 O  pz         
    17     -0.468423  2 C  s                 15     -0.410388  1 O  dzz        
    31     -0.329729  3 H  s                 33     -0.329729  4 H  s          

 Vector   18  Occ=0.000000D+00  E= 1.146269D+00  Symmetry=e
              MO Center= -1.9D-01,  2.7D-01,  8.2D-01, r^2= 1.8D+00
   Bfn.  Coefficient  Atom+Function         Bfn.  Coefficient  Atom+Function  
  ----- ------------  ---------------      ----- ------------  ---------------
    36      1.412406  5 H  s                 22      1.212803  2 C  px         
    32     -1.150062  3 H  s                 18     -0.857807  2 C  px         
    35     -0.744970  5 H  s                 31      0.606598  3 H  s          
    34     -0.262344  4 H  s                 27      0.252064  2 C  dxz        
    12     -0.186383  1 O  dxz               26      0.186851  2 C  dxy        

 Vector   19  Occ=0.000000D+00  E= 1.146269D+00  Symmetry=e
              MO Center=  1.9D-01, -2.7D-01,  8.2D-01, r^2= 1.8D+00
   Bfn.  Coefficient  Atom+Function         Bfn.  Coefficient  Atom+Function  
  ----- ------------  ---------------      ----- ------------  ---------------
    34      1.479441  4 H  s                 23      1.212803  2 C  py         
    32     -0.966917  3 H  s                 19     -0.857807  2 C  py         
    33     -0.780328  4 H  s                 31      0.509998  3 H  s          
    36     -0.512524  5 H  s                 35      0.270330  5 H  s          
    29      0.252064  2 C  dyz               14     -0.186383  1 O  dyz        


 center of mass
 --------------
 x =   0.00000000 y =   0.00000000 z =  -0.21522586

 moments of inertia (a.u.)
 ------------------
          65.232978993038           0.000000000000           0.000000000000
           0.000000000000          65.232978993038           0.000000000000
           0.000000000000           0.000000000000          10.956647684609

  Mulliken analysis of the total density
  --------------------------------------

    Atom       Charge   Shell Charges
 -----------   ------   -------------------------------------------------------
    1 O    8     9.02   2.00  0.85  2.85  1.05  2.26  0.01
    2 C    6     6.05   2.00  0.63  1.93  0.55  0.83  0.12
    3 H    1     0.98   0.54  0.43
    4 H    1     0.98   0.54  0.43
    5 H    1     0.98   0.54  0.43

       Multipole analysis of the density wrt the origin
       ------------------------------------------------

     L   x y z        total         open         nuclear
     -   - - -        -----         ----         -------
     0   0 0 0     -1.000000      0.000000     17.000000

     1   1 0 0      0.000000      0.000000      0.000000
     1   0 1 0      0.000000      0.000000      0.000000
     1   0 0 1      1.404612      0.000000     -0.499498

     2   2 0 0    -11.492621      0.000000      5.435789
     2   1 1 0      0.000000      0.000000      0.000000
     2   1 0 1      0.000000      0.000000      0.000000
     2   0 2 0    -11.492621      0.000000      5.435789
     2   0 1 1      0.000000      0.000000      0.000000
     2   0 0 2    -14.355117      0.000000     36.030392


 Parallel integral file used       4 records with       0 large values

                              NWChem Gradients Module
                              -----------------------



  wavefunction    =   RHF     

  Using symmetry


                         RHF ENERGY GRADIENTS

    atom               coordinates                        gradient
                 x          y          z           x          y          z
   1 o       0.000000   0.000000  -1.538325    0.000000   0.000000  -0.008388
   2 c       0.000000   0.000000   1.012913    0.000000   0.000000   0.006198
   3 h       1.346079   1.346079   1.909875   -0.000006  -0.000006   0.000730
   4 h       0.492699  -1.838779   1.909875   -0.000002   0.000008   0.000730
   5 h      -1.838779   0.492699   1.909875    0.000008  -0.000002   0.000730

                 ----------------------------------------
                 |  Time  |  1-e(secs)   |  2-e(secs)   |
                 ----------------------------------------
                 |  CPU   |       0.02   |       0.18   |
                 ----------------------------------------
                 |  WALL  |       0.03   |       0.18   |
                 ----------------------------------------

  Step       Energy      Delta E   Gmax     Grms     Xrms     Xmax   Walltime
  ---- ---------------- -------- -------- -------- -------- -------- --------
@    1    -114.51369532 -7.7D-04  0.00839  0.00267  0.02009  0.04512      4.9
                                                                    



                                Z-matrix (autoz)
                                -------- 

 Units are Angstrom for bonds and degrees for angles

      Type          Name      I     J     K     L     M      Value     Gradient
      ----------- --------  ----- ----- ----- ----- ----- ---------- ----------
    1 Stretch                  1     2                       1.35006    0.00839
    2 Stretch                  2     3                       1.11359    0.00030
    3 Stretch                  2     4                       1.11359    0.00030
    4 Stretch                  2     5                       1.11359    0.00030
    5 Bend                     1     2     3               115.22896    0.00031
    6 Bend                     1     2     4               115.22896    0.00031
    7 Bend                     1     2     5               115.22896    0.00031
    8 Bend                     3     2     4               103.14896   -0.00036
    9 Bend                     3     2     5               103.14896   -0.00036
   10 Bend                     4     2     5               103.14896   -0.00036


          ---------------
          -cosmo- solvent
          ---------------
 dielectric constant -eps-  =  78.40
 charge screening approach  =   2
 screen = (eps-1)/(eps    ) =   0.98724
 -lineq- algorithm          =   1
 -bem- low  level           =   2
 -bem- high level           =   4
 -bem- from -octahedral-
 solvent radius (ang.)      =   0.500
 atomic radii = 
 --------------
    1  8.000  1.720
    2  6.000  2.000
    3  1.000  1.300
    4  1.000  1.300
    5  1.000  1.300

 solvent accessible surface
 --------------------------

 ---------- ATOMIC COORDINATES (A.U.) ------------ VDWR(ANG.) --
     1    0.00000000    0.00000000   -1.52298451     1.720
     2    0.00000000    0.00000000    1.00892187     2.000
     3    1.34690335    1.34690335    1.90609222     1.300
     4    0.49300084   -1.83990420    1.90609222     1.300
     5   -1.83990420    0.49300084    1.90609222     1.300
 number of segments per atom =         32
 number of   points per atom =        640
 atom (   nspa,  nppa )
 ----------------------
    1 (     24,   288 )     288
    2 (     25,   200 )     200
    3 (     15,   149 )     149
    4 (     11,   142 )     142
    5 (     11,   142 )     142
 number of -cosmo- surface points =       86
 molecular surface =     46.806 angstrom**2
 molecular volume  =     26.290 angstrom**3
 G(cav/disp)       =      1.094 kcal/mol
 ...... end of -cosmo- initialization ......


                                 NWChem SCF Module
                                 -----------------



  ao basis        = "ao basis"
  functions       =    36
  atoms           =     5
  closed shells   =     9
  open shells     =     0
  charge          =  -1.00
  wavefunction    = RHF 
  input vectors   = ./h3co_dat.movecs
  output vectors  = ./h3co_dat.movecs
  use symmetry    = T
  symmetry adapt  = T


 Summary of "ao basis" -> "ao basis" (cartesian)
 ------------------------------------------------------------------------------
       Tag                 Description            Shells   Functions and Types
 ---------------- ------------------------------  ------  ---------------------
 o                           6-31g*                  6       15   3s2p1d
 c                           6-31g*                  6       15   3s2p1d
 h                           6-31g*                  2        2   2s


      Symmetry analysis of basis
      --------------------------

        a1         16
        a2          0
        e          20


 Forming initial guess at       4.9s


 Loading old vectors from job with title :




      Symmetry analysis of molecular orbitals - initial
      -------------------------------------------------

  Numbering of irreducible representations: 

     1 a1          2 a2          3 e       

  Orbital symmetries:

     1 a1          2 a1          3 a1          4 a1          5 e       
     6 e           7 a1          8 e           9 e          10 a1      
    11 e          12 e          13 a1         14 e          15 e       
    16 a1         17 a1         18 e          19 e       


 Starting SCF solution at       4.9s



 ----------------------------------------------
         Quadratically convergent ROHF

 Convergence threshold     :          1.000E-04
 Maximum no. of iterations :           30
 Final Fock-matrix accuracy:          1.000E-07
 ----------------------------------------------

     COSMO gas phase

 #quartets = 6.630D+03 #integrals = 7.316D+04 #direct =  0.0% #cached =100.0%


 Integral file          = ./h3co_dat.aoints.0
 Record size in doubles =  65536        No. of integs per rec  =  43688
 Max. records in memory =      2        Max. records in file   =   7257
 No. of bits per label  =      8        No. of bits per value  =     64


File balance: exchanges=     0  moved=     0  time=   0.0


              iter       energy          gnorm     gmax       time
             ----- ------------------- --------- --------- --------
                 1     -114.3791609463  1.62D-01  6.62D-02      1.8
                 2     -114.3834062346  6.80D-03  2.37D-03      1.8
                 3     -114.3834113728  1.41D-05  5.22D-06      1.9
     COSMO solvation phase

              iter       energy          gnorm     gmax       time
[...]

 Vector   17  Occ=0.000000D+00  E= 1.140782D+00  Symmetry=a1
              MO Center=  3.9D-17,  6.2D-17, -6.1D-01, r^2= 2.4D+00
   Bfn.  Coefficient  Atom+Function         Bfn.  Coefficient  Atom+Function  
  ----- ------------  ---------------      ----- ------------  ---------------
     6      1.662631  1 O  s                 21      1.381494  2 C  s          
     2     -0.912615  1 O  s                 24      0.634674  2 C  pz         
     9     -0.535228  1 O  pz                 5      0.504374  1 O  pz         
    17     -0.457122  2 C  s                 15     -0.411107  1 O  dzz        
    31     -0.330360  3 H  s                 33     -0.330360  4 H  s          

 Vector   18  Occ=0.000000D+00  E= 1.145552D+00  Symmetry=e
              MO Center= -2.2D-01, -2.4D-01,  8.2D-01, r^2= 1.8D+00
   Bfn.  Coefficient  Atom+Function         Bfn.  Coefficient  Atom+Function  
  ----- ------------  ---------------      ----- ------------  ---------------
    34      1.309251  4 H  s                 36     -1.285414  5 H  s          
    23      0.866340  2 C  py                22     -0.839201  2 C  px         
    33     -0.694422  4 H  s                 35      0.681778  5 H  s          
    19     -0.615068  2 C  py                18      0.595801  2 C  px         
    29      0.181099  2 C  dyz               27     -0.175426  2 C  dxz        

 Vector   19  Occ=0.000000D+00  E= 1.145552D+00  Symmetry=e
              MO Center=  2.2D-01,  2.4D-01,  8.2D-01, r^2= 1.8D+00
   Bfn.  Coefficient  Atom+Function         Bfn.  Coefficient  Atom+Function  
  ----- ------------  ---------------      ----- ------------  ---------------
    32      1.498030  3 H  s                 22     -0.866340  2 C  px         
    23     -0.839201  2 C  py                31     -0.794549  3 H  s          
    36     -0.769659  5 H  s                 34     -0.728371  4 H  s          
    18      0.615068  2 C  px                19      0.595801  2 C  py         
    35      0.408224  5 H  s                 33      0.386325  4 H  s          


 center of mass
 --------------
 x =   0.00000000 y =   0.00000000 z =  -0.20914139

 moments of inertia (a.u.)
 ------------------
          64.445745857234           0.000000000000           0.000000000000
           0.000000000000          64.445745857234           0.000000000000
           0.000000000000           0.000000000000          10.975878566097

  Mulliken analysis of the total density
  --------------------------------------

    Atom       Charge   Shell Charges
 -----------   ------   -------------------------------------------------------
    1 O    8     9.01   2.00  0.85  2.85  1.05  2.25  0.01
    2 C    6     6.05   2.00  0.63  1.93  0.54  0.82  0.12
    3 H    1     0.98   0.54  0.44
    4 H    1     0.98   0.54  0.44
    5 H    1     0.98   0.54  0.44

       Multipole analysis of the density wrt the origin
       ------------------------------------------------

     L   x y z        total         open         nuclear
     -   - - -        -----         ----         -------
     0   0 0 0     -1.000000      0.000000     17.000000

     1   1 0 0      0.000000      0.000000      0.000000
     1   0 1 0      0.000000      0.000000      0.000000
     1   0 0 1      1.373078      0.000000     -0.410868

     2   2 0 0    -11.504051      0.000000      5.445330
     2   1 1 0      0.000000      0.000000      0.000000
     2   1 0 1      0.000000      0.000000      0.000000
     2   0 2 0    -11.504051      0.000000      5.445330
     2   0 1 1      0.000000      0.000000      0.000000
     2   0 0 2    -14.339481      0.000000     35.569772


 Parallel integral file used       4 records with       0 large values

 Line search: 
     step= 1.00 grad=-1.4D-08 hess= 2.6D-09 energy=   -114.513781 mode=accept  
 new step= 1.00                   predicted energy=   -114.513781

          --------
          Step   4
          --------


                         Geometry "geometry" -> "geometry"
                         ---------------------------------

 Output coordinates in angstroms (scale by  1.889725989 to convert to a.u.)

  No.       Tag          Charge          X              Y              Z
 ---- ---------------- ---------- -------------- -------------- --------------
    1 o                    8.0000     0.00000000     0.00000000    -0.80599289
    2 c                    6.0000     0.00000000     0.00000000     0.53411532
    3 h                    1.0000     0.71293941     0.71293941     1.00860974
    4 h                    1.0000     0.26095394    -0.97389334     1.00860974
    5 h                    1.0000    -0.97389334     0.26095394     1.00860974

      Atomic Mass 
      ----------- 

      o                 15.994910
      c                 12.000000
      h                  1.007825


 Effective nuclear repulsion energy (a.u.)      34.5290767474

            Nuclear Dipole moment (a.u.) 
            ----------------------------
        X                 Y               Z
 ---------------- ---------------- ----------------
     0.0000000000     0.0000000000    -0.4108679894

      Symmetry information
      --------------------

 Group name             C3v       
 Group number             17
 Group order               6
 No. of unique centers     3

      Symmetry unique atoms

     1    2    3


          ---------------
          -cosmo- solvent
          ---------------
 dielectric constant -eps-  =  78.40
 charge screening approach  =   2
 screen = (eps-1)/(eps    ) =   0.98724
 -lineq- algorithm          =   1
 -bem- low  level           =   2
 -bem- high level           =   4
 -bem- from -octahedral-
 solvent radius (ang.)      =   0.500
 atomic radii = 
 --------------
    1  8.000  1.720
    2  6.000  2.000
    3  1.000  1.300
    4  1.000  1.300
    5  1.000  1.300

 solvent accessible surface
 --------------------------

 ---------- ATOMIC COORDINATES (A.U.) ------------ VDWR(ANG.) --
     1    0.00000000    0.00000000   -1.52310571     1.720
     2    0.00000000    0.00000000    1.00933160     2.000
     3    1.34726013    1.34726013    1.90599604     1.300
     4    0.49313143   -1.84039156    1.90599604     1.300
     5   -1.84039156    0.49313143    1.90599604     1.300
 number of segments per atom =         32
 number of   points per atom =        640
 atom (   nspa,  nppa )
 ----------------------
    1 (     24,   288 )     288
    2 (     25,   200 )     200
    3 (     15,   149 )     149
    4 (     11,   142 )     142
    5 (     11,   142 )     142
 number of -cosmo- surface points =       86
 molecular surface =     46.806 angstrom**2
 molecular volume  =     26.290 angstrom**3
 G(cav/disp)       =      1.094 kcal/mol
 ...... end of -cosmo- initialization ......


                                 NWChem SCF Module
                                 -----------------



  ao basis        = "ao basis"
  functions       =    36
  atoms           =     5
  closed shells   =     9
  open shells     =     0
  charge          =  -1.00
  wavefunction    = RHF 
  input vectors   = ./h3co_dat.movecs
  output vectors  = ./h3co_dat.movecs
  use symmetry    = T
  symmetry adapt  = T


 Summary of "ao basis" -> "ao basis" (cartesian)
 ------------------------------------------------------------------------------
       Tag                 Description            Shells   Functions and Types
 ---------------- ------------------------------  ------  ---------------------
 o                           6-31g*                  6       15   3s2p1d
 c                           6-31g*                  6       15   3s2p1d
 h                           6-31g*                  2        2   2s


      Symmetry analysis of basis
      --------------------------

        a1         16
        a2          0
        e          20


  The SCF is already converged 

         Total SCF energy =   -114.513780864128

                              NWChem Gradients Module
                              -----------------------



  wavefunction    =   RHF     

  Using symmetry


                         RHF ENERGY GRADIENTS

    atom               coordinates                        gradient
                 x          y          z           x          y          z
   1 o       0.000000   0.000000  -1.523106    0.000000   0.000000   0.000000
   2 c       0.000000   0.000000   1.009332    0.000000   0.000000   0.000000
   3 h       1.347260   1.347260   1.905996    0.000000   0.000000   0.000000
   4 h       0.493131  -1.840392   1.905996    0.000000   0.000000   0.000000
   5 h      -1.840392   0.493131   1.905996    0.000000   0.000000   0.000000

                 ----------------------------------------
                 |  Time  |  1-e(secs)   |  2-e(secs)   |
                 ----------------------------------------
                 |  CPU   |       0.02   |       0.18   |
                 ----------------------------------------
                 |  WALL  |       0.03   |       0.18   |
                 ----------------------------------------

  Step       Energy      Delta E   Gmax     Grms     Xrms     Xmax   Walltime
  ---- ---------------- -------- -------- -------- -------- -------- --------
@    4    -114.51378086 -1.1D-08  0.00000  0.00000  0.00005  0.00010      9.7
                                     ok       ok                    



                                Z-matrix (autoz)
                                -------- 

 Units are Angstrom for bonds and degrees for angles

      Type          Name      I     J     K     L     M      Value     Gradient
      ----------- --------  ----- ----- ----- ----- ----- ---------- ----------
    1 Stretch                  1     2                       1.34011    0.00000
    2 Stretch                  2     3                       1.11432    0.00000
    3 Stretch                  2     4                       1.11432    0.00000
    4 Stretch                  2     5                       1.11432    0.00000
    5 Bend                     1     2     3               115.20226    0.00000
    6 Bend                     1     2     4               115.20226    0.00000
    7 Bend                     1     2     5               115.20226    0.00000
    8 Bend                     3     2     4               103.18067    0.00000
    9 Bend                     3     2     5               103.18067    0.00000
   10 Bend                     4     2     5               103.18067    0.00000


      ----------------------
      Optimization converged
      ----------------------


  Step       Energy      Delta E   Gmax     Grms     Xrms     Xmax   Walltime
  ---- ---------------- -------- -------- -------- -------- -------- --------
@    4    -114.51378086 -1.1D-08  0.00000  0.00000  0.00005  0.00010      9.7
                                     ok       ok                    



                                Z-matrix (autoz)
                                -------- 

 Units are Angstrom for bonds and degrees for angles

      Type          Name      I     J     K     L     M      Value     Gradient
      ----------- --------  ----- ----- ----- ----- ----- ---------- ----------
    1 Stretch                  1     2                       1.34011    0.00000
    2 Stretch                  2     3                       1.11432    0.00000
    3 Stretch                  2     4                       1.11432    0.00000
    4 Stretch                  2     5                       1.11432    0.00000
    5 Bend                     1     2     3               115.20226    0.00000
    6 Bend                     1     2     4               115.20226    0.00000
    7 Bend                     1     2     5               115.20226    0.00000
    8 Bend                     3     2     4               103.18067    0.00000
    9 Bend                     3     2     5               103.18067    0.00000
   10 Bend                     4     2     5               103.18067    0.00000



                         Geometry "geometry" -> "geometry"
                         ---------------------------------

 Output coordinates in angstroms (scale by  1.889725989 to convert to a.u.)

  No.       Tag          Charge          X              Y              Z
 ---- ---------------- ---------- -------------- -------------- --------------
    1 o                    8.0000     0.00000000     0.00000000    -0.80599289
    2 c                    6.0000     0.00000000     0.00000000     0.53411532
    3 h                    1.0000     0.71293941     0.71293941     1.00860974
    4 h                    1.0000     0.26095394    -0.97389334     1.00860974
    5 h                    1.0000    -0.97389334     0.26095394     1.00860974

      Atomic Mass 
      ----------- 

      o                 15.994910
      c                 12.000000
      h                  1.007825


 Effective nuclear repulsion energy (a.u.)      34.5290767474

            Nuclear Dipole moment (a.u.) 
            ----------------------------
        X                 Y               Z
 ---------------- ---------------- ----------------
     0.0000000000     0.0000000000    -0.4108679894

      Symmetry information
      --------------------

 Group name             C3v       
 Group number             17
 Group order               6
 No. of unique centers     3

      Symmetry unique atoms

     1    2    3


                Final and change from initial internal coordinates
                --------------------------------------------------



                                Z-matrix (autoz)
                                -------- 

 Units are Angstrom for bonds and degrees for angles

      Type          Name      I     J     K     L     M      Value       Change
      ----------- --------  ----- ----- ----- ----- ----- ---------- ----------
    1 Stretch                  1     2                       1.34011   -0.01330
    2 Stretch                  2     3                       1.11432    0.01336
    3 Stretch                  2     4                       1.11432    0.01336
    4 Stretch                  2     5                       1.11432    0.01336
    5 Bend                     1     2     3               115.20226    1.88428
    6 Bend                     1     2     4               115.20226    1.88428
    7 Bend                     1     2     5               115.20226    1.88428
    8 Bend                     3     2     4               103.18067   -2.18472
    9 Bend                     3     2     5               103.18067   -2.18472
   10 Bend                     4     2     5               103.18067   -2.18472

 ==============================================================================
                                internuclear distances
 ------------------------------------------------------------------------------
       center one      |      center two      | atomic units |  angstroms
 ------------------------------------------------------------------------------
    2 c                |   1 o                |     2.53244  |     1.34011
    3 h                |   2 c                |     2.10576  |     1.11432
    4 h                |   2 c                |     2.10576  |     1.11432
    5 h                |   2 c                |     2.10576  |     1.11432
 ------------------------------------------------------------------------------
                         number of included internuclear distances:          4
 ==============================================================================



 ==============================================================================
                                 internuclear angles
 ------------------------------------------------------------------------------
        center 1       |       center 2       |       center 3       |  degrees
 ------------------------------------------------------------------------------
    1 o                |   2 c                |   3 h                |   115.20
    1 o                |   2 c                |   4 h                |   115.20
    1 o                |   2 c                |   5 h                |   115.20
    3 h                |   2 c                |   4 h                |   103.18
    3 h                |   2 c                |   5 h                |   103.18
    4 h                |   2 c                |   5 h                |   103.18
 ------------------------------------------------------------------------------
                            number of included internuclear angles:          6
 ==============================================================================




 Task  times  cpu:        4.2s     wall:        8.7s


                                NWChem Input Module
  Summary of allocated global arrays
-----------------------------------
  No active global arrays



                         GA Statistics for process    0
                         ------------------------------

       create   destroy   get      put      acc     scatter   gather  read&inc
calls: 5085     5085     5.39e+04 1.07e+04 2.96e+04    0        0     2681     
number of processes/call 1.30e+00 1.43e+00 1.13e+00 0.00e+00 0.00e+00
bytes total:             3.97e+07 2.08e+07 1.60e+07 0.00e+00 0.00e+00 2.14e+04
bytes remote:            8.95e+06 1.93e+06 4.45e+06 0.00e+00 0.00e+00 0.00e+00
Max memory consumed for GA by this process: 87136 bytes
MA_summarize_allocated_blocks: starting scan ...
MA_summarize_allocated_blocks: scan completed: 0 heap blocks, 0 stack blocks
MA usage statistics:

	allocation statistics:
					      heap	     stack
					      ----	     -----
	current number of blocks	         0	         0
	maximum number of blocks	        23	        32
	current total bytes		         0	         0
	maximum total bytes		   1069912	  32696368
	maximum total K-bytes		      1070	     32697
	maximum total M-bytes		         2	        33
                               -------------------





                                     CITATION
                                     --------
                Please cite the following reference when publishing
                           results obtained with NWChem:

                 M. Valiev, E.J. Bylaska, N. Govind, K. Kowalski,
              T.P. Straatsma, H.J.J. van Dam, D. Wang, J. Nieplocha,
                        E. Apra, T.L. Windus, W.A. de Jong
                 "NWChem: a comprehensive and scalable open-source
                  solution for large scale molecular simulations"
                      Comput. Phys. Commun. 181, 1477 (2010)
                           doi:10.1016/j.cpc.2010.04.018

                              AUTHORS & CONTRIBUTORS
                              ----------------------
          E. Apra, E. J. Bylaska, W. A. de Jong, N. Govind, K. Kowalski,
       T. P. Straatsma, M. Valiev, H. J. J. van Dam, D. Wang, T. L. Windus,
        J. Hammond, J. Autschbach, K. Bhaskaran-Nair, J. Brabec, K. Lopata,
     F. Aquino, S. Hirata, M. T. Hackler, T. Risthaus, M. Malagoli, J. Mullin,
        P. Nichols, R. Peverati, J. Pittner, Y. Zhao, P.-D. Fan, A. Fonari,
     R. J. Harrison, M. Dupuis, D. Silverstein, D. M. A. Smith, J. Nieplocha,
       V. Tipparaju, M. Krishnan, B. E. Van Kuiken,  A. Vazquez-Mayagoitia,
        L. Jensen, M. Swart, Q. Wu, T. Van Voorhis, A. A. Auer, M. Nooijen,
      L. D. Crosby, E. Brown, G. Cisneros, G. I. Fann, H. Fruchtl, J. Garza,
   K. Hirao, R. Kendall, J. A. Nichols, K. Tsemekhman, K. Wolinski, J. Anchell,
       D. Bernholdt, P. Borowski, T. Clark, D. Clerc, H. Dachsel, M. Deegan,
        K. Dyall, D. Elwood, E. Glendening, M. Gutowski, A. Hess, J. Jaffe,
   B. Johnson, J. Ju, R. Kobayashi, R. Kutteh, Z. Lin, R. Littlefield, X. Long,
        B. Meng,T. Nakajima, S. Niu, L. Pollack, M. Rosing, K. Glaesemann,
      G. Sandrone, M. Stave, H. Taylor, G. Thomas, J. H. van Lenthe, A. Wong,
                                     Z.Zhang.

 Total times  cpu:        4.2s     wall:        9.8s
