 argument  1 = qmd_dft_h2o_rescale.nw



============================== echo of input deck ==============================
#
# water - S0 HF/6-31G* geometry
# ground state HF/6-31G* MD
# time step = 10 a.u.
# number of steps = 200
# Rescale thermostat
# 200 K
# translations and rotations every 10 steps
# random seed set to 12345
#
start qmd_dft_h2o_rescale
echo

print low
geometry noautosym noautoz
 O   0.00000000    -0.01681748     0.11334792
 H   0.00000000     0.81325914    -0.34310308
 H   0.00000000    -0.67863597    -0.56441201
end

basis
  * library 6-31G*
end

dft
 xc hfexch 1.0
end

qmd
 nstep_nucl  200
 dt_nucl     10.d0
 targ_temp   200.d0
 com_step    10
 rand_seed   12345
 thermostat  rescale
end
task dft qmd
================================================================================


                                         
                                         


              Northwest Computational Chemistry Package (NWChem) 6.5
              ------------------------------------------------------


                    Environmental Molecular Sciences Laboratory
                       Pacific Northwest National Laboratory
                                Richland, WA 99352

                              Copyright (c) 1994-2013
                       Pacific Northwest National Laboratory
                            Battelle Memorial Institute

             NWChem is an open-source computational chemistry package
                        distributed under the terms of the
                      Educational Community License (ECL) 2.0
             A copy of the license is included with this distribution
                              in the LICENSE.TXT file

                                  ACKNOWLEDGMENT
                                  --------------

            This software and its documentation were developed at the
            EMSL at Pacific Northwest National Laboratory, a multiprogram
            national laboratory, operated for the U.S. Department of Energy
            by Battelle under Contract Number DE-AC05-76RL01830. Support
            for this work was provided by the Department of Energy Office
            of Biological and Environmental Research, Office of Basic
            Energy Sciences, and the Office of Advanced Scientific Computing.


           Job information
           ---------------

    hostname        = gozer
    program         = ../../../bin/LINUX64/nwchem
    date            = Mon Aug 31 12:02:59 2015

    compiled        = Fri_Aug_28_16:21:51_2015
    source          = /home/fisc331/nwchem/nwchem-trunk-lp
    nwchem branch   = Development
    nwchem revision = 27006
    ga revision     = 10558
    input           = qmd_dft_h2o_rescale.nw
    prefix          = qmd_dft_h2o_rescale.
    data base       = ./qmd_dft_h2o_rescale.db
    status          = startup
    nproc           =        1
    time left       =     -1s



           Memory information
           ------------------

    heap     =   13107196 doubles =    100.0 Mbytes
    stack    =   13107201 doubles =    100.0 Mbytes
    global   =   26214400 doubles =    200.0 Mbytes (distinct from heap & stack)
    total    =   52428797 doubles =    400.0 Mbytes
    verify   = yes
    hardfail = no 


           Directory information
           ---------------------

  0 permanent = .
  0 scratch   = .




                                NWChem Input Module
                                -------------------



 Scaling coordinates for geometry "geometry" by  1.889725989
 (inverse scale =  0.529177249)



                             Geometry "geometry" -> ""
                             -------------------------

 Output coordinates in angstroms (scale by  1.889725989 to convert to a.u.)

  No.       Tag          Charge          X              Y              Z
 ---- ---------------- ---------- -------------- -------------- --------------
    1 O                    8.0000     0.00000000    -0.01682581     0.11342109
    2 H                    1.0000     0.00000000     0.81325081    -0.34302991
    3 H                    1.0000     0.00000000    -0.67864430    -0.56433884

      Atomic Mass 
      ----------- 

      O                 15.994910
      H                  1.007825


 Effective nuclear repulsion energy (a.u.)       9.2887672039

            Nuclear Dipole moment (a.u.) 
            ----------------------------
        X                 Y               Z
 ---------------- ---------------- ----------------
     0.0000000000     0.0000000000     0.0000000000


            XYZ format geometry
            -------------------
     3
 geometry
 O                     0.00000000    -0.01682581     0.11342109
 H                     0.00000000     0.81325081    -0.34302991
 H                     0.00000000    -0.67864430    -0.56433884

 ==============================================================================
                                internuclear distances
 ------------------------------------------------------------------------------
       center one      |      center two      | atomic units |  angstroms
 ------------------------------------------------------------------------------
    2 H                |   1 O                |     1.79013  |     0.94730
    3 H                |   1 O                |     1.79012  |     0.94729
 ------------------------------------------------------------------------------
                         number of included internuclear distances:          2
 ==============================================================================



 ==============================================================================
                                 internuclear angles
 ------------------------------------------------------------------------------
        center 1       |       center 2       |       center 3       |  degrees
 ------------------------------------------------------------------------------
    2 H                |   1 O                |   3 H                |   105.51
 ------------------------------------------------------------------------------
                            number of included internuclear angles:          1
 ==============================================================================



  library name resolved from: environment
  library file name is: </home/fisc331/nwchem/nwchem-trunk-lp/src/basis/libraries/>
  


 Summary of "ao basis" -> "" (cartesian)
 ------------------------------------------------------------------------------
       Tag                 Description            Shells   Functions and Types
 ---------------- ------------------------------  ------  ---------------------
 *                           6-31G*                   on all atoms 


 calling qmd_driver


                                 NWChem QMD Module
                                 -----------------




                                QMD Run Parameters
                                ------------------


    No. of nuclear steps:                 200
       Nuclear time step:               10.00
        Target temp. (K):              200.00
              Thermostat:             rescale
             Random seed:              -12345
      Nuclear integrator:     velocity-verlet
 No restart file found
 Beginning with random velocities
       Current temp. (K):              119.88

                                 NWChem DFT Module
                                 -----------------


                      Basis "ao basis" -> "ao basis" (cartesian)
                      -----
  O (Oxygen)
  ----------
            Exponent  Coefficients 
       -------------- ---------------------------------------------------------
  1 S  5.48467170E+03  0.001831
  1 S  8.25234950E+02  0.013950
  1 S  1.88046960E+02  0.068445
  1 S  5.29645000E+01  0.232714
  1 S  1.68975700E+01  0.470193
  1 S  5.79963530E+00  0.358521

  2 S  1.55396160E+01 -0.110778
  2 S  3.59993360E+00 -0.148026
  2 S  1.01376180E+00  1.130767

  3 P  1.55396160E+01  0.070874
  3 P  3.59993360E+00  0.339753
  3 P  1.01376180E+00  0.727159

  4 S  2.70005800E-01  1.000000

  5 P  2.70005800E-01  1.000000

  6 D  8.00000000E-01  1.000000

  H (Hydrogen)
  ------------
            Exponent  Coefficients 
       -------------- ---------------------------------------------------------
  1 S  1.87311370E+01  0.033495
  1 S  2.82539370E+00  0.234727
  1 S  6.40121700E-01  0.813757

  2 S  1.61277800E-01  1.000000



 Summary of "ao basis" -> "ao basis" (cartesian)
 ------------------------------------------------------------------------------
       Tag                 Description            Shells   Functions and Types
 ---------------- ------------------------------  ------  ---------------------
 O                           6-31G*                  6       15   3s2p1d
 H                           6-31G*                  2        2   2s



  Caching 1-el integrals 
   Time after variat. SCF:      0.0
   Time prior to 1st pass:      0.0


         Total DFT energy =      -76.010746503175
      One electron energy =     -123.224464383055
           Coulomb energy =       46.889099463273
    Exchange-Corr. energy =       -8.964148787318
 Nuclear repulsion energy =        9.288767203925

 Numeric. integr. density =        0.000000000000

     Total iterative time =      0.0s




                         DFT ENERGY GRADIENTS

    atom               coordinates                        gradient
                 x          y          z           x          y          z
   1 O       0.000000  -0.031796   0.214335    0.000000   0.000003  -0.000061
   2 H       0.000000   1.536821  -0.648233   -0.000000  -0.000004   0.000028
   3 H       0.000000  -1.282452  -1.066446   -0.000000   0.000002   0.000033


                                 NWChem DFT Module
                                 -----------------



  Caching 1-el integrals 
   Time after variat. SCF:      0.1
   Time prior to 1st pass:      0.1


         Total DFT energy =      -76.010734415024
      One electron energy =     -123.248199860916
           Coulomb energy =       46.900038280753
    Exchange-Corr. energy =       -8.965599287550
 Nuclear repulsion energy =        9.303026452689

 Numeric. integr. density =        0.000000000000

     Total iterative time =      0.0s




                         DFT ENERGY GRADIENTS

    atom               coordinates                        gradient
                 x          y          z           x          y          z
   1 O      -0.000000  -0.031693   0.214770   -0.000000   0.001872  -0.000551
   2 H       0.000000   1.529878  -0.651585   -0.000000  -0.002956   0.000662
   3 H       0.000000  -1.277145  -1.070004    0.000000   0.001084  -0.000110



            QMD Run Information
            -------------------
  Time elapsed (fs) :                     0.241888
  Kin. energy (a.u.):        1            0.000950
  Pot. energy (a.u.):        1          -76.010734
  Tot. energy (a.u.):        1          -76.009784
  Target temp. (K)  :        1              200.00
  Current temp. (K) :        1              200.00
  Dipole (a.u.)     :        1  -2.293334E-16   1.266743E-01  -8.581625E-01



                                 NWChem DFT Module
                                 -----------------



  Caching 1-el integrals 
   Time after variat. SCF:      0.3
   Time prior to 1st pass:      0.3


         Total DFT energy =      -76.010698523813
      One electron energy =     -123.270929924997
           Coulomb energy =       46.910414431113
    Exchange-Corr. energy =       -8.966976601466
 Nuclear repulsion energy =        9.316793571537

 Numeric. integr. density =        0.000000000000

     Total iterative time =      0.0s




                         DFT ENERGY GRADIENTS

    atom               coordinates                        gradient
                 x          y          z           x          y          z
   1 O      -0.000000  -0.031596   0.215210   -0.000000   0.003700  -0.001012
   2 H       0.000000   1.523053  -0.654994    0.000000  -0.005854   0.001279
   3 H      -0.000000  -1.271864  -1.073579    0.000000   0.002154  -0.000267



            QMD Run Information
            -------------------
  Time elapsed (fs) :                     0.483777
  Kin. energy (a.u.):        2            0.000950
  Pot. energy (a.u.):        2          -76.010699
  Tot. energy (a.u.):        2          -76.009748
  Target temp. (K)  :        2              200.00
  Current temp. (K) :        2              200.00
  Dipole (a.u.)     :        2  -2.676964E-16   1.264745E-01  -8.606829E-01



                                 NWChem DFT Module
                                 -----------------



  Caching 1-el integrals 
   Time after variat. SCF:      0.4
   Time prior to 1st pass:      0.4


         Total DFT energy =      -76.010640727135
      One electron energy =     -123.292141721745
           Coulomb energy =       46.920037829413
    Exchange-Corr. energy =       -8.968255980561
 Nuclear repulsion energy =        9.329719145758

 Numeric. integr. density =        0.000000000000

     Total iterative time =      0.0s




                         DFT ENERGY GRADIENTS

    atom               coordinates                        gradient
                 x          y          z           x          y          z
   1 O      -0.000000  -0.031509   0.215662    0.000000   0.005433  -0.001394
   2 H       0.000000   1.516417  -0.658540   -0.000000  -0.008639   0.001844
   3 H      -0.000000  -1.266599  -1.077209    0.000000   0.003206  -0.000450



            QMD Run Information
            -------------------
  Time elapsed (fs) :                     0.725665
  Kin. energy (a.u.):        3            0.000950
  Pot. energy (a.u.):        3          -76.010641
  Tot. energy (a.u.):        3          -76.009691
  Target temp. (K)  :        3              200.00
  Current temp. (K) :        3              200.00
  Dipole (a.u.)     :        3  -1.986373E-16   1.263205E-01  -8.632397E-01



                                 NWChem DFT Module
                                 -----------------



  Caching 1-el integrals 
   Time after variat. SCF:      0.5
   Time prior to 1st pass:      0.5


         Total DFT energy =      -76.010563910294
      One electron energy =     -123.311182274417
           Coulomb energy =       46.928580712858
    Exchange-Corr. energy =       -8.969396101813
 Nuclear repulsion energy =        9.341433753079

 Numeric. integr. density =        0.000000000000

     Total iterative time =      0.0s




                         DFT ENERGY GRADIENTS

    atom               coordinates                        gradient
                 x          y          z           x          y          z
   1 O      -0.000000  -0.031439   0.216134    0.000000   0.007012  -0.001645
   2 H       0.000000   1.510048  -0.662300   -0.000000  -0.011243   0.002314
   3 H      -0.000000  -1.261345  -1.080928    0.000000   0.004230  -0.000669



            QMD Run Information
            -------------------
  Time elapsed (fs) :                     0.967554
  Kin. energy (a.u.):        4            0.000950
  Pot. energy (a.u.):        4          -76.010564
  Tot. energy (a.u.):        4          -76.009614
  Target temp. (K)  :        4              200.00
  Current temp. (K) :        4              200.00
  Dipole (a.u.)     :        4   4.413664E-17   1.262306E-01  -8.658591E-01



                                 NWChem DFT Module
                                 -----------------



  Caching 1-el integrals 
   Time after variat. SCF:      0.6
   Time prior to 1st pass:      0.6


         Total DFT energy =      -76.010471862328
      One electron energy =     -123.327361986729
           Coulomb energy =       46.935698281158
    Exchange-Corr. energy =       -8.970353338416
 Nuclear repulsion energy =        9.351545181659

 Numeric. integr. density =        0.000000000000

     Total iterative time =      0.0s




                         DFT ENERGY GRADIENTS

    atom               coordinates                        gradient
                 x          y          z           x          y          z
   1 O      -0.000000  -0.031391   0.216631   -0.000000   0.008371  -0.001709
   2 H       0.000000   1.504032  -0.666350    0.000000  -0.013590   0.002646
   3 H      -0.000000  -1.256100  -1.084770    0.000000   0.005219  -0.000936



            QMD Run Information
            -------------------
  Time elapsed (fs) :                     1.209442
  Kin. energy (a.u.):        5            0.000950
  Pot. energy (a.u.):        5          -76.010472
  Tot. energy (a.u.):        5          -76.009522
  Target temp. (K)  :        5              200.00
  Current temp. (K) :        5              200.00
  Dipole (a.u.)     :        5   6.225445E-16   1.262232E-01  -8.685645E-01



                                 NWChem DFT Module
                                 -----------------



  Caching 1-el integrals 
   Time after variat. SCF:      0.7
   Time prior to 1st pass:      0.7


         Total DFT energy =      -76.010369082659
      One electron energy =     -123.339262095900
           Coulomb energy =       46.940235871166
    Exchange-Corr. energy =       -8.970985744241
 Nuclear repulsion energy =        9.359642886317

 Numeric. integr. density =        0.000000000000

     Total iterative time =      0.0s




                         DFT ENERGY GRADIENTS

    atom               coordinates                        gradient
                 x          y          z           x          y          z
   1 O      -0.000000  -0.031369   0.217160   -0.000000   0.009443  -0.001517
   2 H       0.000000   1.498462  -0.670758   -0.000000  -0.015602   0.002787
   3 H      -0.000000  -1.250875  -1.088759    0.000000   0.006159  -0.001270



            QMD Run Information
            -------------------
  Time elapsed (fs) :                     1.451331
  Kin. energy (a.u.):        6            0.000950
  Pot. energy (a.u.):        6          -76.010369
  Tot. energy (a.u.):        6          -76.009419
  Target temp. (K)  :        6              200.00
  Current temp. (K) :        6              200.00
  Dipole (a.u.)     :        6   2.337296E-16   1.262887E-01  -8.714151E-01



                                 NWChem DFT Module
                                 -----------------



  Caching 1-el integrals 
   Time after variat. SCF:      0.8
   Time prior to 1st pass:      0.8


         Total DFT energy =      -76.010260490753
      One electron energy =     -123.347902634591
           Coulomb energy =       46.943813000927
    Exchange-Corr. energy =       -8.971485776808
 Nuclear repulsion energy =        9.365314919718

 Numeric. integr. density =        0.000000000000

     Total iterative time =      0.0s




                         DFT ENERGY GRADIENTS

    atom               coordinates                        gradient
                 x          y          z           x          y          z
   1 O      -0.000000  -0.031379   0.217726   -0.000000   0.010156  -0.001038
   2 H       0.000000   1.493439  -0.675581   -0.000000  -0.017199   0.002700
   3 H      -0.000000  -1.245688  -1.092911    0.000000   0.007043  -0.001662



            QMD Run Information
            -------------------
  Time elapsed (fs) :                     1.693219
  Kin. energy (a.u.):        7            0.000950
  Pot. energy (a.u.):        7          -76.010260
  Tot. energy (a.u.):        7          -76.009310
  Target temp. (K)  :        7              200.00
  Current temp. (K) :        7              200.00
  Dipole (a.u.)     :        7  -2.905528E-16   1.265129E-01  -8.743330E-01



                                 NWChem DFT Module
                                 -----------------



  Caching 1-el integrals 
   Time after variat. SCF:      0.9
   Time prior to 1st pass:      0.9


         Total DFT energy =      -76.010150807625
      One electron energy =     -123.351602030669
           Coulomb energy =       46.944952268300
    Exchange-Corr. energy =       -8.971673701822
 Nuclear repulsion energy =        9.368172656566

 Numeric. integr. density =        0.000000000000

     Total iterative time =      0.0s




                         DFT ENERGY GRADIENTS

    atom               coordinates                        gradient
                 x          y          z           x          y          z
   1 O      -0.000000  -0.031426   0.218330    0.000000   0.010452  -0.000204
   2 H       0.000000   1.489069  -0.680855   -0.000000  -0.018304   0.002336
   3 H      -0.000000  -1.240574  -1.097228    0.000000   0.007852  -0.002132



            QMD Run Information
            -------------------
  Time elapsed (fs) :                     1.935107
  Kin. energy (a.u.):        8            0.000950
  Pot. energy (a.u.):        8          -76.010151
  Tot. energy (a.u.):        8          -76.009201
  Target temp. (K)  :        8              200.00
  Current temp. (K) :        8              200.00
  Dipole (a.u.)     :        8  -1.514458E-16   1.268547E-01  -8.773552E-01



                                 NWChem DFT Module
                                 -----------------



  Caching 1-el integrals 
   Time after variat. SCF:      1.0
   Time prior to 1st pass:      1.0


         Total DFT energy =      -76.010043936739
      One electron energy =     -123.349031455155
           Coulomb energy =       46.942508568380
    Exchange-Corr. energy =       -8.971414892130
 Nuclear repulsion energy =        9.367893842167

 Numeric. integr. density =        0.000000000000

     Total iterative time =      0.0s




                         DFT ENERGY GRADIENTS

    atom               coordinates                        gradient
                 x          y          z           x          y          z
   1 O      -0.000000  -0.031513   0.218973   -0.000000   0.010285   0.001016
   2 H       0.000000   1.485451  -0.686594    0.000000  -0.018860   0.001665
   3 H      -0.000000  -1.235578  -1.101698   -0.000000   0.008575  -0.002681



            QMD Run Information
            -------------------
  Time elapsed (fs) :                     2.176996
  Kin. energy (a.u.):        9            0.000950
  Pot. energy (a.u.):        9          -76.010044
  Tot. energy (a.u.):        9          -76.009094
  Target temp. (K)  :        9              200.00
  Current temp. (K) :        9              200.00
  Dipole (a.u.)     :        9   3.935807E-16   1.273312E-01  -8.804901E-01



                                 NWChem DFT Module
                                 -----------------



  Caching 1-el integrals 
   Time after variat. SCF:      1.1
   Time prior to 1st pass:      1.1


         Total DFT energy =      -76.009942168088
      One electron energy =     -123.340953234947
           Coulomb energy =       46.937575615270
    Exchange-Corr. energy =       -8.970830152772
 Nuclear repulsion energy =        9.364265604361

 Numeric. integr. density =        0.000000000000

     Total iterative time =      0.0s




                         DFT ENERGY GRADIENTS

    atom               coordinates                        gradient
                 x          y          z           x          y          z
   1 O      -0.000000  -0.031641   0.219652    0.000000   0.009631   0.002654
   2 H       0.000000   1.482669  -0.692777   -0.000000  -0.018824   0.000665
   3 H      -0.000000  -1.230756  -1.106292    0.000000   0.009192  -0.003319



            QMD Run Information
            -------------------
  Time elapsed (fs) :                     2.418884
  Kin. energy (a.u.):       10            0.000950
  Pot. energy (a.u.):       10          -76.009942
  Tot. energy (a.u.):       10          -76.008992
  Target temp. (K)  :       10              200.00
  Current temp. (K) :       10              200.00
  Dipole (a.u.)     :       10  -3.889781E-16   1.279319E-01  -8.837183E-01



                                 NWChem DFT Module
                                 -----------------



  Caching 1-el integrals 
   Time after variat. SCF:      1.2
   Time prior to 1st pass:      1.2


         Total DFT energy =      -76.009845649937
      One electron energy =     -123.326861631524
           Coulomb energy =       46.929657810431
    Exchange-Corr. energy =       -8.969863966090
 Nuclear repulsion energy =        9.357222137246

 Numeric. integr. density =        0.000000000000

     Total iterative time =      0.0s




                         DFT ENERGY GRADIENTS

    atom               coordinates                        gradient
                 x          y          z           x          y          z
   1 O      -0.000000  -0.031811   0.220361   -0.000000   0.008493   0.004700
   2 H       0.000000   1.480780  -0.699359   -0.000000  -0.018187  -0.000662
   3 H      -0.000000  -1.226168  -1.110968    0.000000   0.009694  -0.004038



            QMD Run Information
            -------------------
  Time elapsed (fs) :                     2.660773
  Kin. energy (a.u.):       11            0.000950
  Pot. energy (a.u.):       11          -76.009846
  Tot. energy (a.u.):       11          -76.008896
  Target temp. (K)  :       11              200.00
  Current temp. (K) :       11              200.00
  Dipole (a.u.)     :       11   7.203564E-16   1.286550E-01  -8.869974E-01



                                 NWChem DFT Module
                                 -----------------



  Caching 1-el integrals 
   Time after variat. SCF:      1.3
   Time prior to 1st pass:      1.3


         Total DFT energy =      -76.009752214243
      One electron energy =     -123.306936252169
           Coulomb energy =       46.918855793533
    Exchange-Corr. energy =       -8.968528839204
 Nuclear repulsion energy =        9.346857083597

 Numeric. integr. density =        0.000000000000

     Total iterative time =      0.0s




                         DFT ENERGY GRADIENTS

    atom               coordinates                        gradient
                 x          y          z           x          y          z
   1 O      -0.000000  -0.032021   0.221093   -0.000000   0.006903   0.007130
   2 H       0.000000   1.479804  -0.706265    0.000000  -0.016975  -0.002297
   3 H      -0.000000  -1.221869  -1.115675    0.000000   0.010072  -0.004833



            QMD Run Information
            -------------------
  Time elapsed (fs) :                     2.902661
  Kin. energy (a.u.):       12            0.000950
  Pot. energy (a.u.):       12          -76.009752
  Tot. energy (a.u.):       12          -76.008802
  Target temp. (K)  :       12              200.00
  Current temp. (K) :       12              200.00
  Dipole (a.u.)     :       12   2.512284E-16   1.294865E-01  -8.902907E-01



                                 NWChem DFT Module
                                 -----------------



  Caching 1-el integrals 
   Time after variat. SCF:      1.4
   Time prior to 1st pass:      1.4


         Total DFT energy =      -76.009657721460
      One electron energy =     -123.281605645740
           Coulomb energy =       46.905392859639
    Exchange-Corr. energy =       -8.966853179359
 Nuclear repulsion energy =        9.333408244000

 Numeric. integr. density =        0.000000000000

     Total iterative time =      0.0s




                         DFT ENERGY GRADIENTS

    atom               coordinates                        gradient
                 x          y          z           x          y          z
   1 O       0.000000  -0.032266   0.221839    0.000000   0.004916   0.009898
   2 H       0.000000   1.479724  -0.713411   -0.000000  -0.015238  -0.004204
   3 H      -0.000000  -1.217905  -1.120363    0.000000   0.010323  -0.005694



            QMD Run Information
            -------------------
  Time elapsed (fs) :                     3.144550
  Kin. energy (a.u.):       13            0.000950
  Pot. energy (a.u.):       13          -76.009658
  Tot. energy (a.u.):       13          -76.008708
  Target temp. (K)  :       13              200.00
  Current temp. (K) :       13              200.00
  Dipole (a.u.)     :       13  -2.933988E-16   1.304076E-01  -8.935603E-01



                                 NWChem DFT Module
                                 -----------------



  Caching 1-el integrals 
   Time after variat. SCF:      1.5
   Time prior to 1st pass:      1.5


         Total DFT energy =      -76.009556785628
      One electron energy =     -123.251525164200
           Coulomb energy =       46.889638342497
    Exchange-Corr. energy =       -8.964888559017
 Nuclear repulsion energy =        9.317218595093

 Numeric. integr. density =        0.000000000000

     Total iterative time =      0.0s




                         DFT ENERGY GRADIENTS

    atom               coordinates                        gradient
                 x          y          z           x          y          z
   1 O       0.000000  -0.032541   0.222590    0.000000   0.002607   0.012941
   2 H       0.000000   1.480492  -0.720708   -0.000000  -0.013055  -0.006330
   3 H      -0.000000  -1.214303  -1.124985    0.000000   0.010448  -0.006611



            QMD Run Information
            -------------------
  Time elapsed (fs) :                     3.386438
  Kin. energy (a.u.):       14            0.000950
  Pot. energy (a.u.):       14          -76.009557
  Tot. energy (a.u.):       14          -76.008607
  Target temp. (K)  :       14              200.00
  Current temp. (K) :       14              200.00
  Dipole (a.u.)     :       14  -1.150665E-15   1.313804E-01  -8.967559E-01



                                 NWChem DFT Module
                                 -----------------



  Caching 1-el integrals 
   Time after variat. SCF:      1.6
   Time prior to 1st pass:      1.6


         Total DFT energy =      -76.009443599741
      One electron energy =     -123.217305906390
           Coulomb energy =       46.871833258151
    Exchange-Corr. energy =       -8.962657337897
 Nuclear repulsion energy =        9.298686386395

 Numeric. integr. density =        0.000000000000

     Total iterative time =      0.0s




                         DFT ENERGY GRADIENTS

    atom               coordinates                        gradient
                 x          y          z           x          y          z
   1 O       0.000000  -0.032841   0.223339   -0.000000   0.000046   0.016201
   2 H       0.000000   1.482036  -0.728072   -0.000000  -0.010502  -0.008631
   3 H      -0.000000  -1.211079  -1.129504    0.000000   0.010456  -0.007570



            QMD Run Information
            -------------------
  Time elapsed (fs) :                     3.628326
  Kin. energy (a.u.):       15            0.000950
  Pot. energy (a.u.):       15          -76.009444
  Tot. energy (a.u.):       15          -76.008494
  Target temp. (K)  :       15              200.00
  Current temp. (K) :       15              200.00
  Dipole (a.u.)     :       15   2.152106E-16   1.324109E-01  -8.998726E-01



                                 NWChem DFT Module
                                 -----------------



  Caching 1-el integrals 
   Time after variat. SCF:      1.7
   Time prior to 1st pass:      1.7


         Total DFT energy =      -76.009312703110
      One electron energy =     -123.179706811160
           Coulomb energy =       46.852390953318
    Exchange-Corr. energy =       -8.960216659373
 Nuclear repulsion energy =        9.278219814105

 Numeric. integr. density =        0.000000000000

     Total iterative time =      0.0s




                         DFT ENERGY GRADIENTS

    atom               coordinates                        gradient
                 x          y          z           x          y          z
   1 O       0.000000  -0.033162   0.224079   -0.000000  -0.002690   0.019613
   2 H       0.000000   1.484271  -0.735433   -0.000000  -0.007665  -0.011051
   3 H      -0.000000  -1.208231  -1.133894    0.000000   0.010355  -0.008562



            QMD Run Information
            -------------------
  Time elapsed (fs) :                     3.870215
  Kin. energy (a.u.):       16            0.000950
  Pot. energy (a.u.):       16          -76.009313
  Tot. energy (a.u.):       16          -76.008363
  Target temp. (K)  :       16              200.00
  Current temp. (K) :       16              200.00
  Dipole (a.u.)     :       16   1.065832E-16   1.334656E-01  -9.028767E-01



                                 NWChem DFT Module
                                 -----------------



  Caching 1-el integrals 
   Time after variat. SCF:      1.8
   Time prior to 1st pass:      1.8


         Total DFT energy =      -76.009159447559
      One electron energy =     -123.139395753130
           Coulomb energy =       46.831643283191
    Exchange-Corr. energy =       -8.957609144222
 Nuclear repulsion energy =        9.256202166602

 Numeric. integr. density =        0.000000000000

     Total iterative time =      0.0s




                         DFT ENERGY GRADIENTS

    atom               coordinates                        gradient
                 x          y          z           x          y          z
   1 O       0.000000  -0.033497   0.224807    0.000000  -0.005534   0.023123
   2 H       0.000000   1.487111  -0.742735   -0.000000  -0.004620  -0.013545
   3 H      -0.000000  -1.205750  -1.138137    0.000000   0.010153  -0.009578



            QMD Run Information
            -------------------
  Time elapsed (fs) :                     4.112103
  Kin. energy (a.u.):       17            0.000950
  Pot. energy (a.u.):       17          -76.009159
  Tot. energy (a.u.):       17          -76.008209
  Target temp. (K)  :       17              200.00
  Current temp. (K) :       17              200.00
  Dipole (a.u.)     :       17  -8.024222E-16   1.345274E-01  -9.057544E-01



                                 NWChem DFT Module
                                 -----------------



  Caching 1-el integrals 
   Time after variat. SCF:      1.9
   Time prior to 1st pass:      1.9


         Total DFT energy =      -76.008980229909
      One electron energy =     -123.096961328676
           Coulomb energy =       46.809881699092
    Exchange-Corr. energy =       -8.954872242054
 Nuclear repulsion energy =        9.232971641729

 Numeric. integr. density =        0.000000000000

     Total iterative time =      0.0s




                         DFT ENERGY GRADIENTS

    atom               coordinates                        gradient
                 x          y          z           x          y          z
   1 O       0.000000  -0.033843   0.225518   -0.000000  -0.008430   0.026682
   2 H       0.000000   1.490474  -0.749935   -0.000000  -0.001432  -0.016074
   3 H      -0.000000  -1.203619  -1.142224    0.000000   0.009862  -0.010608



            QMD Run Information
            -------------------
  Time elapsed (fs) :                     4.353992
  Kin. energy (a.u.):       18            0.000950
  Pot. energy (a.u.):       18          -76.008980
  Tot. energy (a.u.):       18          -76.008030
  Target temp. (K)  :       18              200.00
  Current temp. (K) :       18              200.00
  Dipole (a.u.)     :       18  -4.990309E-16   1.355824E-01  -9.084976E-01



                                 NWChem DFT Module
                                 -----------------



  Caching 1-el integrals 
   Time after variat. SCF:      2.0
   Time prior to 1st pass:      2.0


         Total DFT energy =      -76.008772517155
      One electron energy =     -123.052898744275
           Coulomb energy =       46.787350751550
    Exchange-Corr. energy =       -8.952037387199
 Nuclear repulsion energy =        9.208812862769

 Numeric. integr. density =        0.000000000000

     Total iterative time =      0.0s




                         DFT ENERGY GRADIENTS

    atom               coordinates                        gradient
                 x          y          z           x          y          z
   1 O       0.000000  -0.034197   0.226210   -0.000000  -0.011335   0.030253
   2 H       0.000000   1.494289  -0.757003   -0.000000   0.001844  -0.018606
   3 H      -0.000000  -1.201821  -1.146151    0.000000   0.009491  -0.011648



            QMD Run Information
            -------------------
  Time elapsed (fs) :                     4.595880
  Kin. energy (a.u.):       19            0.000950
  Pot. energy (a.u.):       19          -76.008773
  Tot. energy (a.u.):       19          -76.007822
  Target temp. (K)  :       19              200.00
  Current temp. (K) :       19              200.00
  Dipole (a.u.)     :       19  -6.251686E-17   1.366202E-01  -9.111025E-01



                                 NWChem DFT Module
                                 -----------------



  Caching 1-el integrals 
   Time after variat. SCF:      2.1
   Time prior to 1st pass:      2.1


         Total DFT energy =      -76.008534752517
      One electron energy =     -123.007609589723
           Coulomb energy =       46.764248455416
    Exchange-Corr. energy =       -8.949130044265
 Nuclear repulsion energy =        9.183956426055

 Numeric. integr. density =        0.000000000000

     Total iterative time =      0.0s




                         DFT ENERGY GRADIENTS

    atom               coordinates                        gradient
                 x          y          z           x          y          z
   1 O       0.000000  -0.034555   0.226883   -0.000000  -0.014215   0.033807
   2 H       0.000000   1.498495  -0.763915   -0.000000   0.005168  -0.021116
   3 H      -0.000000  -1.200338  -1.149914    0.000000   0.009047  -0.012691



            QMD Run Information
            -------------------
  Time elapsed (fs) :                     4.837769
  Kin. energy (a.u.):       20            0.000950
  Pot. energy (a.u.):       20          -76.008535
  Tot. energy (a.u.):       20          -76.007585
  Target temp. (K)  :       20              200.00
  Current temp. (K) :       20              200.00
  Dipole (a.u.)     :       20  -8.483224E-17   1.376329E-01  -9.135676E-01



                                 NWChem DFT Module
                                 -----------------



  Caching 1-el integrals 
   Time after variat. SCF:      2.3
   Time prior to 1st pass:      2.3


         Total DFT energy =      -76.008266212317
      One electron energy =     -122.961409376856
           Coulomb energy =       46.740730461459
    Exchange-Corr. energy =       -8.946170242670
 Nuclear repulsion energy =        9.158582945751

 Numeric. integr. density =        0.000000000000

     Total iterative time =      0.0s




                         DFT ENERGY GRADIENTS

    atom               coordinates                        gradient
                 x          y          z           x          y          z
   1 O       0.000000  -0.034916   0.227534   -0.000000  -0.017045   0.037319
   2 H       0.000000   1.503045  -0.770653   -0.000000   0.008507  -0.023585
   3 H      -0.000000  -1.199157  -1.153514    0.000000   0.008538  -0.013734



            QMD Run Information
            -------------------
  Time elapsed (fs) :                     5.079657
  Kin. energy (a.u.):       21            0.000950
  Pot. energy (a.u.):       21          -76.008266
  Tot. energy (a.u.):       21          -76.007316
  Target temp. (K)  :       21              200.00
  Current temp. (K) :       21              200.00
  Dipole (a.u.)     :       21  -8.472382E-16   1.386151E-01  -9.158918E-01



                                 NWChem DFT Module
                                 -----------------



  Caching 1-el integrals 
   Time after variat. SCF:      2.4
   Time prior to 1st pass:      2.4


         Total DFT energy =      -76.007966864798
      One electron energy =     -122.914538588144
           Coulomb energy =       46.716915955783
    Exchange-Corr. energy =       -8.943173333388
 Nuclear repulsion energy =        9.132829100951

 Numeric. integr. density =        0.000000000000

     Total iterative time =      0.0s




                         DFT ENERGY GRADIENTS

    atom               coordinates                        gradient
                 x          y          z           x          y          z
   1 O       0.000000  -0.035279   0.228163   -0.000000  -0.019810   0.040772
   2 H       0.000000   1.507908  -0.777202   -0.000000   0.011842  -0.026000
   3 H      -0.000000  -1.198271  -1.156944    0.000000   0.007968  -0.014772



            QMD Run Information
            -------------------
  Time elapsed (fs) :                     5.321546
  Kin. energy (a.u.):       22            0.000950
  Pot. energy (a.u.):       22          -76.007967
  Tot. energy (a.u.):       22          -76.007017
  Target temp. (K)  :       22              200.00
  Current temp. (K) :       22              200.00
  Dipole (a.u.)     :       22  -6.392337E-16   1.395627E-01  -9.180732E-01



                                 NWChem DFT Module
                                 -----------------



  Caching 1-el integrals 
   Time after variat. SCF:      2.5
   Time prior to 1st pass:      2.5


         Total DFT energy =      -76.007637268345
      One electron energy =     -122.867175121175
           Coulomb energy =       46.692894299068
    Exchange-Corr. energy =       -8.940150840106
 Nuclear repulsion energy =        9.106794393868

 Numeric. integr. density =        0.000000000000

     Total iterative time =      0.0s




                         DFT ENERGY GRADIENTS

    atom               coordinates                        gradient
                 x          y          z           x          y          z
   1 O       0.000000  -0.035641   0.228768   -0.000000  -0.022500   0.044150
   2 H       0.000000   1.513065  -0.783543   -0.000000   0.015158  -0.028349
   3 H      -0.000000  -1.197680  -1.160197    0.000000   0.007342  -0.015801



            QMD Run Information
            -------------------
  Time elapsed (fs) :                     5.563434
  Kin. energy (a.u.):       23            0.000950
  Pot. energy (a.u.):       23          -76.007637
  Tot. energy (a.u.):       23          -76.006687
  Target temp. (K)  :       23              200.00
  Current temp. (K) :       23              200.00
  Dipole (a.u.)     :       23   8.240284E-16   1.404732E-01  -9.201069E-01



                                 NWChem DFT Module
                                 -----------------



  Caching 1-el integrals 
   Time after variat. SCF:      2.6
   Time prior to 1st pass:      2.6


         Total DFT energy =      -76.007278545040
      One electron energy =     -122.819448270063
           Coulomb energy =       46.668732572652
    Exchange-Corr. energy =       -8.937111422997
 Nuclear repulsion energy =        9.080548575368

 Numeric. integr. density =        0.000000000000

     Total iterative time =      0.0s




                         DFT ENERGY GRADIENTS

    atom               coordinates                        gradient
                 x          y          z           x          y          z
   1 O       0.000000  -0.036002   0.229345   -0.000000  -0.025109   0.047441
   2 H       0.000000   1.518514  -0.789653   -0.000000   0.018450  -0.030624
   3 H      -0.000000  -1.197397  -1.163254    0.000000   0.006659  -0.016817



            QMD Run Information
            -------------------
  Time elapsed (fs) :                     5.805322
  Kin. energy (a.u.):       24            0.000950
  Pot. energy (a.u.):       24          -76.007279
  Tot. energy (a.u.):       24          -76.006329
  Target temp. (K)  :       24              200.00
  Current temp. (K) :       24              200.00
  Dipole (a.u.)     :       24   3.887647E-16   1.413444E-01  -9.219833E-01



                                 NWChem DFT Module
                                 -----------------



  Caching 1-el integrals 
   Time after variat. SCF:      2.7
   Time prior to 1st pass:      2.7


         Total DFT energy =      -76.006892488335
      One electron energy =     -122.771457374218
           Coulomb energy =       46.644485726237
    Exchange-Corr. energy =       -8.934062165769
 Nuclear repulsion energy =        9.054141325415

 Numeric. integr. density =        0.000000000000

     Total iterative time =      0.0s




                         DFT ENERGY GRADIENTS

    atom               coordinates                        gradient
                 x          y          z           x          y          z
   1 O       0.000000  -0.036361   0.229892   -0.000000  -0.027638   0.050629
   2 H       0.000000   1.524272  -0.795496   -0.000000   0.021719  -0.032817
   3 H      -0.000000  -1.197449  -1.166086    0.000000   0.005919  -0.017812



            QMD Run Information
            -------------------
  Time elapsed (fs) :                     6.047211
  Kin. energy (a.u.):       25            0.000950
  Pot. energy (a.u.):       25          -76.006892
  Tot. energy (a.u.):       25          -76.005942
  Target temp. (K)  :       25              200.00
  Current temp. (K) :       25              200.00
  Dipole (a.u.)     :       25  -6.729333E-16   1.421742E-01  -9.236847E-01



                                 NWChem DFT Module
                                 -----------------



  Caching 1-el integrals 
   Time after variat. SCF:      2.8
   Time prior to 1st pass:      2.8


         Total DFT energy =      -76.006481924472
      One electron energy =     -122.723303691347
           Coulomb energy =       46.620213791472
    Exchange-Corr. energy =       -8.931010743559
 Nuclear repulsion energy =        9.027618718962

 Numeric. integr. density =        0.000000000000

     Total iterative time =      0.0s




                         DFT ENERGY GRADIENTS

    atom               coordinates                        gradient
                 x          y          z           x          y          z
   1 O       0.000000  -0.036718   0.230401   -0.000000  -0.030087   0.053695
   2 H       0.000000   1.530372  -0.801014   -0.000000   0.024970  -0.034918
   3 H      -0.000000  -1.197886  -1.168641    0.000000   0.005118  -0.018778



            QMD Run Information
            -------------------
  Time elapsed (fs) :                     6.289099
  Kin. energy (a.u.):       26            0.000950
  Pot. energy (a.u.):       26          -76.006482
  Tot. energy (a.u.):       26          -76.005532
  Target temp. (K)  :       26              200.00
  Current temp. (K) :       26              200.00
  Dipole (a.u.)     :       26   8.969346E-16   1.429599E-01  -9.251814E-01



                                 NWChem DFT Module
                                 -----------------



  Caching 1-el integrals 
   Time after variat. SCF:      2.9
   Time prior to 1st pass:      2.9


         Total DFT energy =      -76.006051591868
      One electron energy =     -122.675155507686
           Coulomb energy =       46.596016409456
    Exchange-Corr. energy =       -8.927969750908
 Nuclear repulsion energy =        9.001057257270

 Numeric. integr. density =        0.000000000000

     Total iterative time =      0.0s




                         DFT ENERGY GRADIENTS

    atom               coordinates                        gradient
                 x          y          z           x          y          z
   1 O       0.000000  -0.037071   0.230860   -0.000000  -0.032459   0.056608
   2 H       0.000000   1.536871  -0.806111   -0.000000   0.028212  -0.036909
   3 H      -0.000000  -1.198788  -1.170837    0.000000   0.004247  -0.019698



            QMD Run Information
            -------------------
  Time elapsed (fs) :                     6.530988
  Kin. energy (a.u.):       27            0.000950
  Pot. energy (a.u.):       27          -76.006052
  Tot. energy (a.u.):       27          -76.005102
  Target temp. (K)  :       27              200.00
  Current temp. (K) :       27              200.00
  Dipole (a.u.)     :       27   5.471047E-16   1.436964E-01  -9.264244E-01



                                 NWChem DFT Module
                                 -----------------



  Caching 1-el integrals 
   Time after variat. SCF:      3.0
   Time prior to 1st pass:      3.0


         Total DFT energy =      -76.005610099478
      One electron energy =     -122.627390475273
           Coulomb energy =       46.572106853047
    Exchange-Corr. energy =       -8.924965957275
 Nuclear repulsion energy =        8.974639480022

 Numeric. integr. density =        0.000000000000

     Total iterative time =      0.0s




                         DFT ENERGY GRADIENTS

    atom               coordinates                        gradient
                 x          y          z           x          y          z
   1 O       0.000000  -0.037416   0.231252   -0.000000  -0.034749   0.059312
   2 H       0.000000   1.543831  -0.810626   -0.000000   0.031450  -0.038764
   3 H      -0.000000  -1.200277  -1.172539    0.000000   0.003299  -0.020548



            QMD Run Information
            -------------------
  Time elapsed (fs) :                     6.772876
  Kin. energy (a.u.):       28            0.000950
  Pot. energy (a.u.):       28          -76.005610
  Tot. energy (a.u.):       28          -76.004660
  Target temp. (K)  :       28              200.00
  Current temp. (K) :       28              200.00
  Dipole (a.u.)     :       28   1.061641E-15   1.443742E-01  -9.273348E-01



                                 NWChem DFT Module
                                 -----------------



  Caching 1-el integrals 
   Time after variat. SCF:      3.1
   Time prior to 1st pass:      3.1


         Total DFT energy =      -76.005174009395
      One electron energy =     -122.580900709579
           Coulomb energy =       46.548967863231
    Exchange-Corr. energy =       -8.922059764309
 Nuclear repulsion energy =        8.948818601262

 Numeric. integr. density =        0.000000000000

     Total iterative time =      0.0s




                         DFT ENERGY GRADIENTS

    atom               coordinates                        gradient
                 x          y          z           x          y          z
   1 O       0.000000  -0.037745   0.231546   -0.000000  -0.036938   0.061711
   2 H       0.000000   1.551297  -0.814288   -0.000000   0.034671  -0.040426
   3 H      -0.000000  -1.202518  -1.173537    0.000000   0.002267  -0.021285



            QMD Run Information
            -------------------
  Time elapsed (fs) :                     7.014765
  Kin. energy (a.u.):       29            0.000950
  Pot. energy (a.u.):       29          -76.005174
  Tot. energy (a.u.):       29          -76.004224
  Target temp. (K)  :       29              200.00
  Current temp. (K) :       29              200.00
  Dipole (a.u.)     :       29   7.101708E-16   1.449750E-01  -9.277901E-01



                                 NWChem DFT Module
                                 -----------------



  Caching 1-el integrals 
   Time after variat. SCF:      3.2
   Time prior to 1st pass:      3.2


         Total DFT energy =      -76.004775204602
      One electron energy =     -122.537670046201
           Coulomb energy =       46.527640950930
    Exchange-Corr. energy =       -8.919381289627
 Nuclear repulsion energy =        8.924635180296

 Numeric. integr. density =        0.000000000000

     Total iterative time =      0.0s




                         DFT ENERGY GRADIENTS

    atom               coordinates                        gradient
                 x          y          z           x          y          z
   1 O       0.000000  -0.038042   0.231694   -0.000000  -0.038966   0.063639
   2 H       0.000000   1.559195  -0.816662   -0.000000   0.037807  -0.041800
   3 H      -0.000000  -1.205703  -1.173525    0.000000   0.001158  -0.021839



            QMD Run Information
            -------------------
  Time elapsed (fs) :                     7.256653
  Kin. energy (a.u.):       30            0.000950
  Pot. energy (a.u.):       30          -76.004775
  Tot. energy (a.u.):       30          -76.003825
  Target temp. (K)  :       30              200.00
  Current temp. (K) :       30              200.00
  Dipole (a.u.)     :       30   2.018880E-15   1.454649E-01  -9.276152E-01



                                 NWChem DFT Module
                                 -----------------



  Caching 1-el integrals 
   Time after variat. SCF:      3.3
   Time prior to 1st pass:      3.3


         Total DFT energy =      -76.004469421221
      One electron energy =     -122.501377317278
           Coulomb energy =       46.509922007720
    Exchange-Corr. energy =       -8.917152017164
 Nuclear repulsion energy =        8.904137905501

 Numeric. integr. density =        0.000000000000

     Total iterative time =      0.0s




                         DFT ENERGY GRADIENTS

    atom               coordinates                        gradient
                 x          y          z           x          y          z
   1 O       0.000000  -0.038276   0.231637   -0.000000  -0.040712   0.064842
   2 H       0.000000   1.567163  -0.817143   -0.000000   0.040690  -0.042736
   3 H      -0.000000  -1.209947  -1.172137    0.000000   0.000021  -0.022107



            QMD Run Information
            -------------------
  Time elapsed (fs) :                     7.498541
  Kin. energy (a.u.):       31            0.000950
  Pot. energy (a.u.):       31          -76.004469
  Tot. energy (a.u.):       31          -76.003519
  Target temp. (K)  :       31              200.00
  Current temp. (K) :       31              200.00
  Dipole (a.u.)     :       31   2.479231E-15   1.458418E-01  -9.266283E-01



                                 NWChem DFT Module
                                 -----------------



  Caching 1-el integrals 
   Time after variat. SCF:      3.4
   Time prior to 1st pass:      3.4


         Total DFT energy =      -76.004332039122
      One electron energy =     -122.477901572834
           Coulomb energy =       46.498958671396
    Exchange-Corr. energy =       -8.915772336078
 Nuclear repulsion energy =        8.890383198394

 Numeric. integr. density =        0.000000000000

     Total iterative time =      0.0s




                         DFT ENERGY GRADIENTS

    atom               coordinates                        gradient
                 x          y          z           x          y          z
   1 O       0.000000  -0.038406   0.231322   -0.000000  -0.041960   0.065022
   2 H       0.000000   1.574372  -0.815154   -0.000000   0.042997  -0.043040
   3 H      -0.000000  -1.215093  -1.169123    0.000000  -0.001036  -0.021983



            QMD Run Information
            -------------------
  Time elapsed (fs) :                     7.740430
  Kin. energy (a.u.):       32            0.000950
  Pot. energy (a.u.):       32          -76.004332
  Tot. energy (a.u.):       32          -76.003382
  Target temp. (K)  :       32              200.00
  Current temp. (K) :       32              200.00
  Dipole (a.u.)     :       32   1.833247E-15   1.459281E-01  -9.246509E-01



                                 NWChem DFT Module
                                 -----------------



  Caching 1-el integrals 
   Time after variat. SCF:      3.5
   Time prior to 1st pass:      3.5


         Total DFT energy =      -76.004421619150
      One electron energy =     -122.472098785341
           Coulomb energy =       46.497053195674
    Exchange-Corr. energy =       -8.915526106279
 Nuclear repulsion energy =        8.886150076796

 Numeric. integr. density =        0.000000000000

     Total iterative time =      0.0s




                         DFT ENERGY GRADIENTS

    atom               coordinates                        gradient
                 x          y          z           x          y          z
   1 O       0.000000  -0.038397   0.230749   -0.000000  -0.042521   0.064034
   2 H       0.000000   1.579725  -0.810568   -0.000000   0.044382  -0.042610
   3 H      -0.000000  -1.220593  -1.164623    0.000000  -0.001861  -0.021424



            QMD Run Information
            -------------------
  Time elapsed (fs) :                     7.982318
  Kin. energy (a.u.):       33            0.000950
  Pot. energy (a.u.):       33          -76.004422
  Tot. energy (a.u.):       33          -76.003472
  Target temp. (K)  :       33              200.00
  Current temp. (K) :       33              200.00
  Dipole (a.u.)     :       33   1.792148E-15   1.457344E-01  -9.218071E-01



                                 NWChem DFT Module
                                 -----------------



  Caching 1-el integrals 
   Time after variat. SCF:      3.6
   Time prior to 1st pass:      3.6


         Total DFT energy =      -76.004736477890
      One electron energy =     -122.485098541888
           Coulomb energy =       46.504699630886
    Exchange-Corr. energy =       -8.916468861963
 Nuclear repulsion energy =        8.892131295075

 Numeric. integr. density =        0.000000000000

     Total iterative time =      0.0s




                         DFT ENERGY GRADIENTS

    atom               coordinates                        gradient
                 x          y          z           x          y          z
   1 O       0.000000  -0.038246   0.229988   -0.000000  -0.042318   0.062019
   2 H       0.000000   1.582479  -0.803916   -0.000000   0.044666  -0.041508
   3 H      -0.000000  -1.225750  -1.159182    0.000000  -0.002348  -0.020510



            QMD Run Information
            -------------------
  Time elapsed (fs) :                     8.224207
  Kin. energy (a.u.):       34            0.000950
  Pot. energy (a.u.):       34          -76.004736
  Tot. energy (a.u.):       34          -76.003786
  Target temp. (K)  :       34              200.00
  Current temp. (K) :       34              200.00
  Dipole (a.u.)     :       34   4.579661E-15   1.452424E-01  -9.184981E-01



                                 NWChem DFT Module
                                 -----------------



  Caching 1-el integrals 
   Time after variat. SCF:      3.7
   Time prior to 1st pass:      3.7


         Total DFT energy =      -76.005219378561
      One electron energy =     -122.513560206344
           Coulomb energy =       46.519881797613
    Exchange-Corr. energy =       -8.918350378774
 Nuclear repulsion energy =        8.906809408944

 Numeric. integr. density =        0.000000000000

     Total iterative time =      0.0s




                         DFT ENERGY GRADIENTS

    atom               coordinates                        gradient
                 x          y          z           x          y          z
   1 O       0.000000  -0.037979   0.229128   -0.000000  -0.041421   0.059248
   2 H       0.000000   1.582596  -0.796041   -0.000000   0.043901  -0.039893
   3 H      -0.000000  -1.230102  -1.153423    0.000000  -0.002479  -0.019355



            QMD Run Information
            -------------------
  Time elapsed (fs) :                     8.466095
  Kin. energy (a.u.):       35            0.000950
  Pot. energy (a.u.):       35          -76.005219
  Tot. energy (a.u.):       35          -76.004269
  Target temp. (K)  :       35              200.00
  Current temp. (K) :       35              200.00
  Dipole (a.u.)     :       35   4.519964E-15   1.445803E-01  -9.150459E-01



                                 NWChem DFT Module
                                 -----------------



  Caching 1-el integrals 
   Time after variat. SCF:      3.8
   Time prior to 1st pass:      3.8


         Total DFT energy =      -76.005797621125
      One electron energy =     -122.553325364307
           Coulomb energy =       46.540662806338
    Exchange-Corr. energy =       -8.920938394961
 Nuclear repulsion energy =        8.927803331804

 Numeric. integr. density =        0.000000000000

     Total iterative time =      0.0s




                         DFT ENERGY GRADIENTS

    atom               coordinates                        gradient
                 x          y          z           x          y          z
   1 O       0.000000  -0.037633   0.228244   -0.000000  -0.039954   0.056007
   2 H       0.000000   1.580524  -0.787654   -0.000000   0.042269  -0.037929
   3 H      -0.000000  -1.233526  -1.147774    0.000000  -0.002315  -0.018079



            QMD Run Information
            -------------------
  Time elapsed (fs) :                     8.707984
  Kin. energy (a.u.):       36            0.000950
  Pot. energy (a.u.):       36          -76.005798
  Tot. energy (a.u.):       36          -76.004848
  Target temp. (K)  :       36              200.00
  Current temp. (K) :       36              200.00
  Dipole (a.u.)     :       36   6.023534E-15   1.437487E-01  -9.116612E-01



                                 NWChem DFT Module
                                 -----------------



  Caching 1-el integrals 
   Time after variat. SCF:      3.9
   Time prior to 1st pass:      3.9


         Total DFT energy =      -76.006411480032
      One electron energy =     -122.600379306152
           Coulomb energy =       46.564970272484
    Exchange-Corr. energy =       -8.923970551931
 Nuclear repulsion energy =        8.952968105566

 Numeric. integr. density =        0.000000000000

     Total iterative time =      0.0s




                         DFT ENERGY GRADIENTS

    atom               coordinates                        gradient
                 x          y          z           x          y          z
   1 O       0.000000  -0.037237   0.227374   -0.000000  -0.038041   0.052501
   2 H       0.000000   1.576830  -0.779189   -0.000000   0.039971  -0.035738
   3 H      -0.000000  -1.236114  -1.142436    0.000000  -0.001930  -0.016763



            QMD Run Information
            -------------------
  Time elapsed (fs) :                     8.949872
  Kin. energy (a.u.):       37            0.000950
  Pot. energy (a.u.):       37          -76.006411
  Tot. energy (a.u.):       37          -76.005461
  Target temp. (K)  :       37              200.00
  Current temp. (K) :       37              200.00
  Dipole (a.u.)     :       37   6.960712E-15   1.428013E-01  -9.084621E-01



                                 NWChem DFT Module
                                 -----------------



  Caching 1-el integrals 
   Time after variat. SCF:      4.0
   Time prior to 1st pass:      4.0


         Total DFT energy =      -76.007020701279
      One electron energy =     -122.651888310317
           Coulomb energy =       46.591395775225
    Exchange-Corr. energy =       -8.927270992710
 Nuclear repulsion energy =        8.980742826523

 Numeric. integr. density =        0.000000000000

     Total iterative time =      0.0s




                         DFT ENERGY GRADIENTS

    atom               coordinates                        gradient
                 x          y          z           x          y          z
   1 O       0.000000  -0.036812   0.226536   -0.000000  -0.035776   0.048848
   2 H       0.000000   1.572012  -0.770853   -0.000000   0.037171  -0.033397
   3 H      -0.000000  -1.238040  -1.137460    0.000000  -0.001396  -0.015451



            QMD Run Information
            -------------------
  Time elapsed (fs) :                     9.191760
  Kin. energy (a.u.):       38            0.000950
  Pot. energy (a.u.):       38          -76.007021
  Tot. energy (a.u.):       38          -76.006071
  Target temp. (K)  :       38              200.00
  Current temp. (K) :       38              200.00
  Dipole (a.u.)     :       38   6.300005E-15   1.417686E-01  -9.054647E-01



                                 NWChem DFT Module
                                 -----------------



  Caching 1-el integrals 
   Time after variat. SCF:      4.2
   Time prior to 1st pass:      4.2


         Total DFT energy =      -76.007600664751
      One electron energy =     -122.705994093476
           Coulomb energy =       46.619027283024
    Exchange-Corr. energy =       -8.930725672550
 Nuclear repulsion energy =        9.010091818252

 Numeric. integr. density =        0.000000000000

     Total iterative time =      0.0s




                         DFT ENERGY GRADIENTS

    atom               coordinates                        gradient
                 x          y          z           x          y          z
   1 O       0.000000  -0.036371   0.225731   -0.000000  -0.033225   0.045110
   2 H       0.000000   1.566445  -0.762721   -0.000000   0.033989  -0.030945
   3 H      -0.000000  -1.239478  -1.132822    0.000000  -0.000764  -0.014165



            QMD Run Information
            -------------------
  Time elapsed (fs) :                     9.433649
  Kin. energy (a.u.):       39            0.000950
  Pot. energy (a.u.):       39          -76.007601
  Tot. energy (a.u.):       39          -76.006651
  Target temp. (K)  :       39              200.00
  Current temp. (K) :       39              200.00
  Dipole (a.u.)     :       39   1.007246E-14   1.406699E-01  -9.026461E-01



                                 NWChem DFT Module
                                 -----------------



  Caching 1-el integrals 
   Time after variat. SCF:      4.3
   Time prior to 1st pass:      4.3


         Total DFT energy =      -76.008136993059
      One electron energy =     -122.761515892858
           Coulomb energy =       46.647292944660
    Exchange-Corr. energy =       -8.934262836506
 Nuclear repulsion energy =        9.040348791644

 Numeric. integr. density =        0.000000000000

     Total iterative time =      0.0s




                         DFT ENERGY GRADIENTS

    atom               coordinates                        gradient
                 x          y          z           x          y          z
   1 O       0.000000  -0.035920   0.224958   -0.000000  -0.030431   0.041320
   2 H       0.000000   1.560399  -0.754799   -0.000000   0.030507  -0.028405
   3 H      -0.000000  -1.240574  -1.128475    0.000000  -0.000076  -0.012915



            QMD Run Information
            -------------------
  Time elapsed (fs) :                     9.675537
  Kin. energy (a.u.):       40            0.000950
  Pot. energy (a.u.):       40          -76.008137
  Tot. energy (a.u.):       40          -76.007187
  Target temp. (K)  :       40              200.00
  Current temp. (K) :       40              200.00
  Dipole (a.u.)     :       40   9.172002E-15   1.395170E-01  -8.999710E-01



                                 NWChem DFT Module
                                 -----------------



  Caching 1-el integrals 
   Time after variat. SCF:      4.4
   Time prior to 1st pass:      4.4


         Total DFT energy =      -76.008621494208
      One electron energy =     -122.817699437799
           Coulomb energy =       46.675832510159
    Exchange-Corr. energy =       -8.937837066620
 Nuclear repulsion energy =        9.071082500052

 Numeric. integr. density =        0.000000000000

     Total iterative time =      0.0s




                         DFT ENERGY GRADIENTS

    atom               coordinates                        gradient
                 x          y          z           x          y          z
   1 O       0.000000  -0.035466   0.224212   -0.000000  -0.027426   0.037491
   2 H       0.000000   1.554066  -0.747068   -0.000000   0.026786  -0.025789
   3 H      -0.000000  -1.241448  -1.124362    0.000000   0.000641  -0.011702



            QMD Run Information
            -------------------
  Time elapsed (fs) :                     9.917426
  Kin. energy (a.u.):       41            0.000950
  Pot. energy (a.u.):       41          -76.008621
  Tot. energy (a.u.):       41          -76.007671
  Target temp. (K)  :       41              200.00
  Current temp. (K) :       41              200.00
  Dipole (a.u.)     :       41   9.945878E-15   1.383175E-01  -8.974031E-01



                                 NWChem DFT Module
                                 -----------------



  Caching 1-el integrals 
   Time after variat. SCF:      4.5
   Time prior to 1st pass:      4.5


         Total DFT energy =      -76.009049632570
      One electron energy =     -122.874047249197
           Coulomb energy =       46.704411719433
    Exchange-Corr. energy =       -8.941418648186
 Nuclear repulsion energy =        9.102004545380

 Numeric. integr. density =        0.000000000000

     Total iterative time =      0.0s




                         DFT ENERGY GRADIENTS

    atom               coordinates                        gradient
                 x          y          z           x          y          z
   1 O       0.000000  -0.035011   0.223487   -0.000000  -0.024232   0.033631
   2 H       0.000000   1.547583  -0.739495   -0.000000   0.022867  -0.023103
   3 H      -0.000000  -1.242192  -1.120434    0.000000   0.001365  -0.010528



            QMD Run Information
            -------------------
  Time elapsed (fs) :                    10.159314
  Kin. energy (a.u.):       42            0.000950
  Pot. energy (a.u.):       42          -76.009050
  Tot. energy (a.u.):       42          -76.008100
  Target temp. (K)  :       42              200.00
  Current temp. (K) :       42              200.00
  Dipole (a.u.)     :       42   1.276685E-14   1.370764E-01  -8.949099E-01



                                 NWChem DFT Module
                                 -----------------



  Caching 1-el integrals 
   Time after variat. SCF:      4.6
   Time prior to 1st pass:      4.6


         Total DFT energy =      -76.009419080457
      One electron energy =     -122.930212289277
           Coulomb energy =       46.732869322944
    Exchange-Corr. energy =       -8.944986972097
 Nuclear repulsion energy =        9.132910857974

 Numeric. integr. density =        0.000000000000

     Total iterative time =      0.0s




                         DFT ENERGY GRADIENTS

    atom               coordinates                        gradient
                 x          y          z           x          y          z
   1 O       0.000000  -0.034557   0.222779   -0.000000  -0.020867   0.029742
   2 H       0.000000   1.541056  -0.732051   -0.000000   0.018786  -0.020353
   3 H      -0.000000  -1.242878  -1.116645    0.000000   0.002082  -0.009389



            QMD Run Information
            -------------------
  Time elapsed (fs) :                    10.401203
  Kin. energy (a.u.):       43            0.000950
  Pot. energy (a.u.):       43          -76.009419
  Tot. energy (a.u.):       43          -76.008469
  Target temp. (K)  :       43              200.00
  Current temp. (K) :       43              200.00
  Dipole (a.u.)     :       43   1.355550E-14   1.357977E-01  -8.924628E-01



                                 NWChem DFT Module
                                 -----------------



  Caching 1-el integrals 
   Time after variat. SCF:      4.7
   Time prior to 1st pass:      4.7


         Total DFT energy =      -76.009728928887
      One electron energy =     -122.985932102901
           Coulomb energy =       46.761084664777
    Exchange-Corr. energy =       -8.948526483167
 Nuclear repulsion energy =        9.163644992405

 Numeric. integr. density =        0.000000000000

     Total iterative time =      0.0s




                         DFT ENERGY GRADIENTS

    atom               coordinates                        gradient
                 x          y          z           x          y          z
   1 O       0.000000  -0.034104   0.222084   -0.000000  -0.017347   0.025828
   2 H       0.000000   1.534567  -0.724704   -0.000000   0.014569  -0.017544
   3 H      -0.000000  -1.243565  -1.112954    0.000000   0.002778  -0.008284



            QMD Run Information
            -------------------
  Time elapsed (fs) :                    10.643091
  Kin. energy (a.u.):       44            0.000950
  Pot. energy (a.u.):       44          -76.009729
  Tot. energy (a.u.):       44          -76.008779
  Target temp. (K)  :       44              200.00
  Current temp. (K) :       44              200.00
  Dipole (a.u.)     :       44   1.612146E-14   1.344848E-01  -8.900370E-01



                                 NWChem DFT Module
                                 -----------------



  Caching 1-el integrals 
   Time after variat. SCF:      4.8
   Time prior to 1st pass:      4.8


         Total DFT energy =      -76.009979283570
      One electron energy =     -123.040986477142
           Coulomb energy =       46.788957081107
    Exchange-Corr. energy =       -8.952024091633
 Nuclear repulsion energy =        9.194074204098

 Numeric. integr. density =        0.000000000000

     Total iterative time =      0.0s




                         DFT ENERGY GRADIENTS

    atom               coordinates                        gradient
                 x          y          z           x          y          z
   1 O       0.000000  -0.033656   0.221396   -0.000000  -0.013688   0.021891
   2 H       0.000000   1.528186  -0.717426   -0.000000   0.010243  -0.014681
   3 H      -0.000000  -1.244304  -1.109325    0.000000   0.003445  -0.007210



            QMD Run Information
            -------------------
  Time elapsed (fs) :                    10.884979
  Kin. energy (a.u.):       45            0.000950
  Pot. energy (a.u.):       45          -76.009979
  Tot. energy (a.u.):       45          -76.009029
  Target temp. (K)  :       45              200.00
  Current temp. (K) :       45              200.00
  Dipole (a.u.)     :       45   1.767916E-14   1.331410E-01  -8.876104E-01



                                 NWChem DFT Module
                                 -----------------



  Caching 1-el integrals 
   Time after variat. SCF:      4.9
   Time prior to 1st pass:      4.9


         Total DFT energy =      -76.010171090488
      One electron energy =     -123.095167502750
           Coulomb energy =       46.816391471481
    Exchange-Corr. energy =       -8.955467347132
 Nuclear repulsion energy =        9.224072287913

 Numeric. integr. density =        0.000000000000

     Total iterative time =      0.0s




                         DFT ENERGY GRADIENTS

    atom               coordinates                        gradient
                 x          y          z           x          y          z
   1 O       0.000000  -0.033212   0.220714   -0.000000  -0.009910   0.017936
   2 H       0.000000   1.521979  -0.710192   -0.000000   0.005836  -0.011771
   3 H      -0.000000  -1.245139  -1.105723    0.000000   0.004074  -0.006165



            QMD Run Information
            -------------------
  Time elapsed (fs) :                    11.126868
  Kin. energy (a.u.):       46            0.000950
  Pot. energy (a.u.):       46          -76.010171
  Tot. energy (a.u.):       46          -76.009221
  Target temp. (K)  :       46              200.00
  Current temp. (K) :       46              200.00
  Dipole (a.u.)     :       46   2.194976E-14   1.317700E-01  -8.851624E-01



                                 NWChem DFT Module
                                 -----------------



  Caching 1-el integrals 
   Time after variat. SCF:      5.0
   Time prior to 1st pass:      5.0


         Total DFT energy =      -76.010306110347
      One electron energy =     -123.148254738934
           Coulomb energy =       46.843286380832
    Exchange-Corr. energy =       -8.958842918541
 Nuclear repulsion energy =        9.253505166296

 Numeric. integr. density =        0.000000000000

     Total iterative time =      0.0s




                         DFT ENERGY GRADIENTS

    atom               coordinates                        gradient
                 x          y          z           x          y          z
   1 O       0.000000  -0.032775   0.220032   -0.000000  -0.006034   0.013971
   2 H       0.000000   1.516009  -0.702976   -0.000000   0.001379  -0.008826
   3 H      -0.000000  -1.246113  -1.102115    0.000000   0.004655  -0.005145



            QMD Run Information
            -------------------
  Time elapsed (fs) :                    11.368756
  Kin. energy (a.u.):       47            0.000950
  Pot. energy (a.u.):       47          -76.010306
  Tot. energy (a.u.):       47          -76.009356
  Target temp. (K)  :       47              200.00
  Current temp. (K) :       47              200.00
  Dipole (a.u.)     :       47   2.698723E-14   1.303761E-01  -8.826731E-01



                                 NWChem DFT Module
                                 -----------------



  Caching 1-el integrals 
   Time after variat. SCF:      5.1
   Time prior to 1st pass:      5.1


         Total DFT energy =      -76.010387010583
      One electron energy =     -123.199990210788
           Coulomb energy =       46.869521961243
    Exchange-Corr. energy =       -8.962135049082
 Nuclear repulsion energy =        9.282216288045

 Numeric. integr. density =        0.000000000000

     Total iterative time =      0.0s




                         DFT ENERGY GRADIENTS

    atom               coordinates                        gradient
                 x          y          z           x          y          z
   1 O       0.000000  -0.032345   0.219347   -0.000000  -0.002089   0.010006
   2 H       0.000000   1.510349  -0.695756   -0.000000  -0.003091  -0.005858
   3 H      -0.000000  -1.247270  -1.098466    0.000000   0.005181  -0.004148



            QMD Run Information
            -------------------
  Time elapsed (fs) :                    11.610645
  Kin. energy (a.u.):       48            0.000950
  Pot. energy (a.u.):       48          -76.010387
  Tot. energy (a.u.):       48          -76.009437
  Target temp. (K)  :       48              200.00
  Current temp. (K) :       48              200.00
  Dipole (a.u.)     :       48   3.168515E-14   1.289647E-01  -8.801222E-01



                                 NWChem DFT Module
                                 -----------------



  Caching 1-el integrals 
   Time after variat. SCF:      5.2
   Time prior to 1st pass:      5.2


         Total DFT energy =      -76.010417570129
      One electron energy =     -123.250048812740
           Coulomb energy =       46.894945604256
    Exchange-Corr. energy =       -8.965323709176
 Nuclear repulsion energy =        9.310009347531

 Numeric. integr. density =        0.000000000000

     Total iterative time =      0.0s




                         DFT ENERGY GRADIENTS

    atom               coordinates                        gradient
                 x          y          z           x          y          z
   1 O       0.000000  -0.031925   0.218656   -0.000000   0.001887   0.006059
   2 H       0.000000   1.505078  -0.688512   -0.000000  -0.007528  -0.002888
   3 H      -0.000000  -1.248658  -1.094741    0.000000   0.005641  -0.003172



            QMD Run Information
            -------------------
  Time elapsed (fs) :                    11.852533
  Kin. energy (a.u.):       49            0.000950
  Pot. energy (a.u.):       49          -76.010418
  Tot. energy (a.u.):       49          -76.009468
  Target temp. (K)  :       49              200.00
  Current temp. (K) :       49              200.00
  Dipole (a.u.)     :       49   3.941471E-14   1.275430E-01  -8.774887E-01



                                 NWChem DFT Module
                                 -----------------



  Caching 1-el integrals 
   Time after variat. SCF:      5.3
   Time prior to 1st pass:      5.3


         Total DFT energy =      -76.010403011611
      One electron energy =     -123.298000027056
           Coulomb energy =       46.919353167302
    Exchange-Corr. energy =       -8.968382186077
[...]
   2 H      -0.000000   1.601736  -0.558777    0.000000   0.014792   0.008671
   3 H      -0.000000  -1.388936  -0.999637    0.000000  -0.023376  -0.001999



            QMD Run Information
            -------------------
  Time elapsed (fs) :                    45.475025
  Kin. energy (a.u.):      188            0.000950
  Pot. energy (a.u.):      188          -76.008646
  Tot. energy (a.u.):      188          -76.007696
  Target temp. (K)  :      188              200.00
  Current temp. (K) :      188              200.00
  Dipole (a.u.)     :      188  -3.493779E-08   1.130258E-01  -8.035948E-01



                                 NWChem DFT Module
                                 -----------------



  Caching 1-el integrals 
   Time after variat. SCF:     20.0
   Time prior to 1st pass:     20.0


         Total DFT energy =      -76.008502504459
      One electron energy =     -123.040883754435
           Coulomb energy =       46.816055117830
    Exchange-Corr. energy =       -8.953081146210
 Nuclear repulsion energy =        9.169407278357

 Numeric. integr. density =        0.000000000000

     Total iterative time =      0.0s




                         DFT ENERGY GRADIENTS

    atom               coordinates                        gradient
                 x          y          z           x          y          z
   1 O       0.000000  -0.028522   0.204703   -0.000000   0.015074  -0.004845
   2 H      -0.000000   1.597498  -0.556765    0.000000   0.011945   0.010096
   3 H      -0.000000  -1.395085  -1.005048    0.000000  -0.027019  -0.005251



            QMD Run Information
            -------------------
  Time elapsed (fs) :                    45.716914
  Kin. energy (a.u.):      189            0.000950
  Pot. energy (a.u.):      189          -76.008503
  Tot. energy (a.u.):      189          -76.007552
  Target temp. (K)  :      189              200.00
  Current temp. (K) :      189              200.00
  Dipole (a.u.)     :      189  -3.612289E-08   1.101866E-01  -8.043585E-01



                                 NWChem DFT Module
                                 -----------------



  Caching 1-el integrals 
   Time after variat. SCF:     20.1
   Time prior to 1st pass:     20.1


         Total DFT energy =      -76.008343432529
      One electron energy =     -123.031373388168
           Coulomb energy =       46.810977966207
    Exchange-Corr. energy =       -8.952464874565
 Nuclear repulsion energy =        9.164516863997

 Numeric. integr. density =        0.000000000000

     Total iterative time =      0.0s




                         DFT ENERGY GRADIENTS

    atom               coordinates                        gradient
                 x          y          z           x          y          z
   1 O       0.000000  -0.027867   0.204952   -0.000000   0.021651  -0.003402
   2 H      -0.000000   1.592226  -0.555156    0.000000   0.008573   0.011664
   3 H      -0.000000  -1.400221  -1.010617    0.000000  -0.030224  -0.008261



            QMD Run Information
            -------------------
  Time elapsed (fs) :                    45.958802
  Kin. energy (a.u.):      190            0.000950
  Pot. energy (a.u.):      190          -76.008343
  Tot. energy (a.u.):      190          -76.007393
  Target temp. (K)  :      190              200.00
  Current temp. (K) :      190              200.00
  Dipole (a.u.)     :      190  -3.659076E-08   1.073142E-01  -8.054120E-01



                                 NWChem DFT Module
                                 -----------------



  Caching 1-el integrals 
   Time after variat. SCF:     20.2
   Time prior to 1st pass:     20.2


         Total DFT energy =      -76.008179044285
      One electron energy =     -123.029614108542
           Coulomb energy =       46.809980637330
    Exchange-Corr. energy =       -8.952381078599
 Nuclear repulsion energy =        9.163835505527

 Numeric. integr. density =        0.000000000000

     Total iterative time =      0.0s




                         DFT ENERGY GRADIENTS

    atom               coordinates                        gradient
                 x          y          z           x          y          z
   1 O       0.000000  -0.027226   0.205238   -0.000000   0.028191  -0.002384
   2 H      -0.000000   1.585963  -0.554059    0.000000   0.004717   0.013345
   3 H      -0.000000  -1.404121  -1.016245   -0.000000  -0.032908  -0.010961



            QMD Run Information
            -------------------
  Time elapsed (fs) :                    46.200691
  Kin. energy (a.u.):      191            0.000950
  Pot. energy (a.u.):      191          -76.008179
  Tot. energy (a.u.):      191          -76.007229
  Target temp. (K)  :      191              200.00
  Current temp. (K) :      191              200.00
  Dipole (a.u.)     :      191  -3.762862E-08   1.046414E-01  -8.067106E-01



                                 NWChem DFT Module
                                 -----------------



  Caching 1-el integrals 
   Time after variat. SCF:     20.3
   Time prior to 1st pass:     20.3


         Total DFT energy =      -76.008023995286
      One electron energy =     -123.035592592402
           Coulomb energy =       46.812751030661
    Exchange-Corr. energy =       -8.952792625233
 Nuclear repulsion energy =        9.167610191687

 Numeric. integr. density =        0.000000000000

     Total iterative time =      0.0s




                         DFT ENERGY GRADIENTS

    atom               coordinates                        gradient
                 x          y          z           x          y          z
   1 O       0.000000  -0.026624   0.205560   -0.000000   0.034544  -0.001808
   2 H      -0.000000   1.578814  -0.553616    0.000000   0.000443   0.015110
   3 H      -0.000000  -1.406526  -1.021801   -0.000000  -0.034986  -0.013302



            QMD Run Information
            -------------------
  Time elapsed (fs) :                    46.442579
  Kin. energy (a.u.):      192            0.000950
  Pot. energy (a.u.):      192          -76.008024
  Tot. energy (a.u.):      192          -76.007074
  Target temp. (K)  :      192              200.00
  Current temp. (K) :      192              200.00
  Dipole (a.u.)     :      192  -3.731965E-08   1.020980E-01  -8.083045E-01



                                 NWChem DFT Module
                                 -----------------



  Caching 1-el integrals 
   Time after variat. SCF:     20.4
   Time prior to 1st pass:     20.4


         Total DFT energy =      -76.007898135590
      One electron energy =     -123.048587307829
           Coulomb energy =       46.818392146127
    Exchange-Corr. energy =       -8.953594570377
 Nuclear repulsion energy =        9.175891596490

 Numeric. integr. density =        0.000000000000

     Total iterative time =      0.0s




                         DFT ENERGY GRADIENTS

    atom               coordinates                        gradient
                 x          y          z           x          y          z
   1 O       0.000000  -0.026091   0.205918   -0.000000   0.040441  -0.001680
   2 H      -0.000000   1.570982  -0.553993    0.000000  -0.004096   0.016873
   3 H      -0.000000  -1.407160  -1.027111   -0.000000  -0.036345  -0.015193



            QMD Run Information
            -------------------
  Time elapsed (fs) :                    46.684468
  Kin. energy (a.u.):      193            0.000950
  Pot. energy (a.u.):      193          -76.007898
  Tot. energy (a.u.):      193          -76.006948
  Target temp. (K)  :      193              200.00
  Current temp. (K) :      193              200.00
  Dipole (a.u.)     :      193  -3.762840E-08   9.996953E-02  -8.102026E-01



                                 NWChem DFT Module
                                 -----------------



  Caching 1-el integrals 
   Time after variat. SCF:     20.6
   Time prior to 1st pass:     20.6


         Total DFT energy =      -76.007825745712
      One electron energy =     -123.069360300068
           Coulomb energy =       46.828088080088
    Exchange-Corr. energy =       -8.954920234213
 Nuclear repulsion energy =        9.188366708481

 Numeric. integr. density =        0.000000000000

     Total iterative time =      0.0s




                         DFT ENERGY GRADIENTS

    atom               coordinates                        gradient
                 x          y          z           x          y          z
   1 O       0.000000  -0.025662   0.206309   -0.000000   0.045553  -0.001975
   2 H      -0.000000   1.562812  -0.555349    0.000000  -0.008658   0.018532
   3 H      -0.000000  -1.405790  -1.031949   -0.000000  -0.036895  -0.016557



            QMD Run Information
            -------------------
  Time elapsed (fs) :                    46.926356
  Kin. energy (a.u.):      194            0.000950
  Pot. energy (a.u.):      194          -76.007826
  Tot. energy (a.u.):      194          -76.006876
  Target temp. (K)  :      194              200.00
  Current temp. (K) :      194              200.00
  Dipole (a.u.)     :      194  -3.810327E-08   9.822421E-02  -8.123949E-01



                                 NWChem DFT Module
                                 -----------------



  Caching 1-el integrals 
   Time after variat. SCF:     20.7
   Time prior to 1st pass:     20.7


         Total DFT energy =      -76.007831683397
      One electron energy =     -123.095616916488
           Coulomb energy =       46.840139287095
    Exchange-Corr. energy =       -8.956560995390
 Nuclear repulsion energy =        9.204206941387

 Numeric. integr. density =        0.000000000000

     Total iterative time =      0.0s




                         DFT ENERGY GRADIENTS

    atom               coordinates                        gradient
                 x          y          z           x          y          z
   1 O       0.000000  -0.025376   0.206721   -0.000000   0.049446  -0.002628
   2 H      -0.000000   1.554800  -0.557787    0.000000  -0.012886   0.019922
   3 H      -0.000000  -1.402318  -1.036060   -0.000000  -0.036560  -0.017294



            QMD Run Information
            -------------------
  Time elapsed (fs) :                    47.168244
  Kin. energy (a.u.):      195            0.000950
  Pot. energy (a.u.):      195          -76.007832
  Tot. energy (a.u.):      195          -76.006882
  Target temp. (K)  :      195              200.00
  Current temp. (K) :      195              200.00
  Dipole (a.u.)     :      195  -3.826176E-08   9.717863E-02  -8.147986E-01



                                 NWChem DFT Module
                                 -----------------



  Caching 1-el integrals 
   Time after variat. SCF:     20.8
   Time prior to 1st pass:     20.8


         Total DFT energy =      -76.007933288997
      One electron energy =     -123.125487143951
           Coulomb energy =       46.853904136918
    Exchange-Corr. energy =       -8.958423774663
 Nuclear repulsion energy =        9.222073492699

 Numeric. integr. density =        0.000000000000

     Total iterative time =      0.0s




                         DFT ENERGY GRADIENTS

    atom               coordinates                        gradient
                 x          y          z           x          y          z
   1 O       0.000000  -0.025261   0.207141   -0.000000   0.051743  -0.003530
   2 H      -0.000000   1.547518  -0.561298    0.000000  -0.016395   0.020887
   3 H      -0.000000  -1.396873  -1.039217   -0.000000  -0.035348  -0.017357



            QMD Run Information
            -------------------
  Time elapsed (fs) :                    47.410133
  Kin. energy (a.u.):      196            0.000950
  Pot. energy (a.u.):      196          -76.007933
  Tot. energy (a.u.):      196          -76.006983
  Target temp. (K)  :      196              200.00
  Current temp. (K) :      196              200.00
  Dipole (a.u.)     :      196  -3.754101E-08   9.688250E-02  -8.173239E-01



                                 NWChem DFT Module
                                 -----------------



  Caching 1-el integrals 
   Time after variat. SCF:     20.9
   Time prior to 1st pass:     20.9


         Total DFT energy =      -76.008132069853
      One electron energy =     -123.156299737077
           Coulomb energy =       46.868122349610
    Exchange-Corr. energy =       -8.960341175696
 Nuclear repulsion energy =        9.240386493310

 Numeric. integr. density =        0.000000000000

     Total iterative time =      0.0s




                         DFT ENERGY GRADIENTS

    atom               coordinates                        gradient
                 x          y          z           x          y          z
   1 O       0.000000  -0.025324   0.207552   -0.000000   0.052219  -0.004551
   2 H      -0.000000   1.541467  -0.565744    0.000000  -0.018872   0.021303
   3 H      -0.000000  -1.389822  -1.041294   -0.000000  -0.033347  -0.016753



            QMD Run Information
            -------------------
  Time elapsed (fs) :                    47.652021
  Kin. energy (a.u.):      197            0.000950
  Pot. energy (a.u.):      197          -76.008132
  Tot. energy (a.u.):      197          -76.007182
  Target temp. (K)  :      197              200.00
  Current temp. (K) :      197              200.00
  Dipole (a.u.)     :      197  -4.045257E-08   9.736081E-02  -8.198533E-01



                                 NWChem DFT Module
                                 -----------------



  Caching 1-el integrals 
   Time after variat. SCF:     21.0
   Time prior to 1st pass:     21.0


         Total DFT energy =      -76.008411306613
      One electron energy =     -123.185655968947
           Coulomb energy =       46.881662335820
    Exchange-Corr. energy =       -8.962163849127
 Nuclear repulsion energy =        9.257746175642

 Numeric. integr. density =        0.000000000000

     Total iterative time =      0.0s




                         DFT ENERGY GRADIENTS

    atom               coordinates                        gradient
                 x          y          z           x          y          z
   1 O       0.000000  -0.025552   0.207941   -0.000000   0.050889  -0.005578
   2 H      -0.000000   1.536946  -0.570894    0.000000  -0.020171   0.021131
   3 H      -0.000000  -1.381676  -1.042314   -0.000000  -0.030718  -0.015554



            QMD Run Information
            -------------------
  Time elapsed (fs) :                    47.893910
  Kin. energy (a.u.):      198            0.000950
  Pot. energy (a.u.):      198          -76.008411
  Tot. energy (a.u.):      198          -76.007461
  Target temp. (K)  :      198              200.00
  Current temp. (K) :      198              200.00
  Dipole (a.u.)     :      198  -4.372932E-08   9.852120E-02  -8.222898E-01



                                 NWChem DFT Module
                                 -----------------



  Caching 1-el integrals 
   Time after variat. SCF:     21.1
   Time prior to 1st pass:     21.1


         Total DFT energy =      -76.008741909227
      One electron energy =     -123.211938239076
           Coulomb energy =       46.893752464339
    Exchange-Corr. energy =       -8.963791174766
 Nuclear repulsion energy =        9.273235040276

 Numeric. integr. density =        0.000000000000

     Total iterative time =      0.0s




                         DFT ENERGY GRADIENTS

    atom               coordinates                        gradient
                 x          y          z           x          y          z
   1 O       0.000000  -0.025917   0.208301   -0.000000   0.047972  -0.006539
   2 H      -0.000000   1.534000  -0.576505    0.000000  -0.020330   0.020410
   3 H      -0.000000  -1.372940  -1.042415   -0.000000  -0.027642  -0.013871



            QMD Run Information
            -------------------
  Time elapsed (fs) :                    48.135798
  Kin. energy (a.u.):      199            0.000950
  Pot. energy (a.u.):      199          -76.008742
  Tot. energy (a.u.):      199          -76.007792
  Target temp. (K)  :      199              200.00
  Current temp. (K) :      199              200.00
  Dipole (a.u.)     :      199  -4.437377E-08   1.002126E-01  -8.245696E-01



                                 NWChem DFT Module
                                 -----------------



  Caching 1-el integrals 
   Time after variat. SCF:     21.2
   Time prior to 1st pass:     21.2


         Total DFT energy =      -76.009091828454
      One electron energy =     -123.234401906943
           Coulomb energy =       46.904028587309
    Exchange-Corr. energy =       -8.965177137964
 Nuclear repulsion energy =        9.286458629144

 Numeric. integr. density =        0.000000000000

     Total iterative time =      0.0s




                         DFT ENERGY GRADIENTS

    atom               coordinates                        gradient
                 x          y          z           x          y          z
   1 O       0.000000  -0.026385   0.208632   -0.000000   0.043792  -0.007404
   2 H      -0.000000   1.532492  -0.582375    0.000000  -0.019510   0.019227
   3 H      -0.000000  -1.364009  -1.041799   -0.000000  -0.024282  -0.011823



            QMD Run Information
            -------------------
  Time elapsed (fs) :                    48.377687
  Kin. energy (a.u.):      200            0.000950
  Pot. energy (a.u.):      200          -76.009092
  Tot. energy (a.u.):      200          -76.008142
  Target temp. (K)  :      200              200.00
  Current temp. (K) :      200              200.00
  Dipole (a.u.)     :      200  -4.441356E-08   1.022931E-01  -8.266702E-01




                                NWChem Input Module
                                -------------------




                                     CITATION
                                     --------
                Please cite the following reference when publishing
                           results obtained with NWChem:

                 M. Valiev, E.J. Bylaska, N. Govind, K. Kowalski,
              T.P. Straatsma, H.J.J. van Dam, D. Wang, J. Nieplocha,
                        E. Apra, T.L. Windus, W.A. de Jong
                 "NWChem: a comprehensive and scalable open-source
                  solution for large scale molecular simulations"
                      Comput. Phys. Commun. 181, 1477 (2010)
                           doi:10.1016/j.cpc.2010.04.018

                                      AUTHORS
                                      -------
          E. Apra, E. J. Bylaska, W. A. de Jong, N. Govind, K. Kowalski,
       T. P. Straatsma, M. Valiev, H. J. J. van Dam, D. Wang, T. L. Windus,
        J. Hammond, J. Autschbach, K. Bhaskaran-Nair, J. Brabec, K. Lopata,
        S. Krishnamoorthy, W. Ma, M. Klemm, O. Villa, Y. Chen, V. Anisimov,
    F. Aquino, S. Hirata, M. T. Hackler, T. Risthaus, M. Malagoli, A. Marenich,
   A. Otero-de-la-Roza, J. Mullin, P. Nichols, R. Peverati, J. Pittner, Y. Zhao,
          P.-D. Fan, A. Fonari, M. Williamson, R. J. Harrison, M. Dupuis,
     D. Silverstein, D. M. A. Smith, J. Nieplocha, V. Tipparaju, M. Krishnan,
       B. E. Van Kuiken, A. Vazquez-Mayagoitia, L. Jensen, M. Swart, Q. Wu,
   T. Van Voorhis, A. A. Auer, M. Nooijen, L. D. Crosby, E. Brown, G. Cisneros,
     G. I. Fann, H. Fruchtl, J. Garza, K. Hirao, R. A. Kendall, J. A. Nichols,
       K. Tsemekhman, K. Wolinski, J. Anchell, D. E. Bernholdt, P. Borowski,
       T. Clark, D. Clerc, H. Dachsel, M. J. O. Deegan, K. Dyall, D. Elwood,
      E. Glendening, M. Gutowski, A. C. Hess, J. Jaffe, B. G. Johnson, J. Ju,
        R. Kobayashi, R. Kutteh, Z. Lin, R. Littlefield, X. Long, B. Meng,
      T. Nakajima, S. Niu, L. Pollack, M. Rosing, K. Glaesemann, G. Sandrone,
      M. Stave, H. Taylor, G. Thomas, J. H. van Lenthe, A. T. Wong, Z. Zhang.

 Total times  cpu:       21.3s     wall:       24.3s
