 argument  1 = /data/edo/nwchem/nwchem_libstdcpp-error/QA/tests/metagga_li4h4_1_m05_0/metagga_li4h4_1_m05_0.nw
  NWChem w/ OpenMP: maximum threads =    1
 


============================== echo of input deck ==============================
echo
start metagga_dat
geometry
 li    1.41886094    -0.97519294    -0.00213685
 h     0.52227920     0.01448403    -1.37641561
 h    -0.99294465     3.13015382    -0.16071498
 h     0.52812846     0.02093224     1.36933229
 li   -0.72646082    -1.23567921     1.93800611
 li    0.10745306     1.27247387    -0.00525518
 li   -0.73084646    -1.24632666    -1.93625430
 h    -0.26448317     3.39416572     0.20706284
end
charge +1

basis "ao basis" spherical
  * library def2-svpd
end
basis "cd basis" spherical
 * library "Weigend Coulomb Fitting"
end
dft
  direct
  odft
  mult 2
  grid fine
  convergence energy 1d-8
  xc xm05
  maxiter 100
  print low
end

driver
  clear
  tight
  maxiter 100
end

task dft optimize
task dft frequencies
================================================================================


                                         
                                         
 
 
             Northwest Computational Chemistry Package (NWChem) 7.3.1
             --------------------------------------------------------
 
 
                    Environmental Molecular Sciences Laboratory
                       Pacific Northwest National Laboratory
                                Richland, WA 99352
 
                              Copyright (c) 1994-2025
                       Pacific Northwest National Laboratory
                            Battelle Memorial Institute
 
             NWChem is an open-source computational chemistry package
                        distributed under the terms of the
                      Educational Community License (ECL) 2.0
             A copy of the license is included with this distribution
                              in the LICENSE.TXT file
 
                                  ACKNOWLEDGMENT
                                  --------------

            This software and its documentation were developed at the
            EMSL at Pacific Northwest National Laboratory, a multiprogram
            national laboratory, operated for the U.S. Department of Energy
            by Battelle under Contract Number DE-AC05-76RL01830. Support
            for this work was provided by the Department of Energy Office
            of Biological and Environmental Research, Office of Basic
            Energy Sciences, and the Office of Advanced Scientific Computing.


           Job information
           ---------------

    hostname        = mica
    program         = /data/edo/nwchem/nwchem_libstdcpp-error/bin/LINUX64/nwchem
    date            = Mon Dec 22 15:47:19 2025

    compiled        = Mon_Dec_22_14:15:38_2025
    source          = /data/edo/nwchem/nwchem_libstdcpp-error
    nwchem branch   = 7.3.1
    nwchem revision = v7.2.0-beta1-1748-g62ee6c31a1
    ga revision     = 5.9.2
    use scalapack   = T
    input           = /data/edo/nwchem/nwchem_libstdcpp-error/QA/tests/metagga_li4h4_1_m05_0/metagga_li4h4_1_m05_0.nw
    prefix          = metagga_dat.
    data base       = ./metagga_dat.db
    status          = startup
    nproc           =        5
    time left       =     -1s



           Memory information
           ------------------

    heap     =     26214394 doubles =      200.0 Mbytes
    stack    =     26214399 doubles =      200.0 Mbytes
    global   =     52428800 doubles =      400.0 Mbytes (distinct from heap & stack)
    total    =    104857593 doubles =      800.0 Mbytes
    verify   = yes
    hardfail = no 


           Directory information
           ---------------------
 
  0 permanent = .
  0 scratch   = .
 
 
 
 
                                NWChem Input Module
                                -------------------
 
 

 Scaling coordinates for geometry "geometry" by  1.889725989
 (inverse scale =  0.529177249)

 C1  symmetry detected

          ------
          auto-z
          ------
  autoz: The atoms group into disjoint clusters
 cluster   1:    1    2    4    5    6    7 
 cluster   2:    3    8 
 Connecting clusters   1   2 via atoms    6    8 r = 2.16
  autoz: regenerating connections with new bonds
  no constraints, skipping   0.000000000000000E+000
  no constraints, skipping   0.000000000000000E+000
 
 
                             Geometry "geometry" -> ""
                             -------------------------
 
 Output coordinates in angstroms (scale by  1.889725989 to convert to a.u.)
 
  No.       Tag          Charge          X              Y              Z
 ---- ---------------- ---------- -------------- -------------- --------------
    1 li                   3.0000     0.13257940     0.96667326     1.41874016
    2 h                    1.0000    -1.36522107     0.16984278     0.52788867
    3 h                    1.0000    -0.58281575    -3.07967626    -0.99188022
    4 h                    1.0000     1.35505258    -0.20337315     0.52255489
    5 li                   3.0000     2.08141841     0.96652607    -0.73449921
    6 li                   3.0000    -0.17610917    -1.25987892     0.10764017
    7 li                   3.0000    -1.75667512     1.49466863    -0.72310576
    8 h                    1.0000    -0.25065631    -3.39076049    -0.26488940
 
      Atomic Mass 
      ----------- 
 
      li                 7.016000
      h                  1.007825
 

 Effective nuclear repulsion energy (a.u.)      19.9211429500

            Nuclear Dipole moment (a.u.) 
            ----------------------------
        X                 Y               Z
 ---------------- ---------------- ----------------
    -0.0000000000     0.0000000000     0.0000000000
 


                                Z-matrix (autoz)
                                -------- 

 Units are Angstrom for bonds and degrees for angles
 
      Type          Name      I     J     K     L     M      Value
      ----------- --------  ----- ----- ----- ----- ----- ----------
    1 Stretch                  1     2                       1.91624
    2 Stretch                  1     4                       1.91484
    3 Stretch                  1     5                       2.90421
    4 Stretch                  1     6                       2.60227
    5 Stretch                  1     7                       2.90440
    6 Stretch                  2     6                       1.90649
    7 Stretch                  2     7                       1.86370
    8 Stretch                  3     8                       0.85768
    9 Stretch                  4     5                       1.86453
   10 Stretch                  4     6                       1.90599
   11 Stretch                  6     8                       2.16448
   12 Bend                     1     2     6                85.80208
   13 Bend                     1     2     7               100.40688
   14 Bend                     1     4     5               100.41924
   15 Bend                     1     4     6                85.85497
   16 Bend                     1     5     4                40.42561
   17 Bend                     1     6     8               158.92904
   18 Bend                     1     6     2                47.25617
   19 Bend                     1     6     4                47.21506
   20 Bend                     1     7     2                40.45990
   21 Bend                     2     1     4                91.56676
   22 Bend                     2     1     5               100.35837
   23 Bend                     2     1     6                46.94175
   24 Bend                     2     1     7                39.13322
   25 Bend                     2     6     8               139.00253
   26 Bend                     2     6     4                92.14247
   27 Bend                     3     8     6                78.58874
   28 Bend                     4     1     5                39.15515
   29 Bend                     4     1     6                46.92997
   30 Bend                     4     1     7               100.44087
   31 Bend                     4     6     8               127.64997
   32 Bend                     5     1     6                72.90287
   33 Bend                     5     1     7                83.67014
   34 Bend                     5     4     6               120.93022
   35 Bend                     6     1     7                72.95245
   36 Bend                     6     2     7               121.07321
   37 Torsion                  1     2     6     8         150.87810
   38 Torsion                  1     2     6     4         -16.23365
   39 Torsion                  1     4     6     8        -153.10508
   40 Torsion                  1     4     6     2          16.24472
   41 Torsion                  1     5     4     6          91.40421
   42 Torsion                  1     6     8     3         170.20710
   43 Torsion                  1     6     2     7          99.62719
   44 Torsion                  1     6     4     5         -99.66917
   45 Torsion                  1     7     2     6         -91.36249
   46 Torsion                  2     1     4     5         104.55310
   47 Torsion                  2     1     4     6         -16.15442
   48 Torsion                  2     1     5     4         -79.60379
   49 Torsion                  2     1     6     8        -117.37340
   50 Torsion                  2     1     6     4         157.62627
   51 Torsion                  2     6     8     3          73.98766
   52 Torsion                  2     6     1     4        -157.62627
   53 Torsion                  2     6     1     5        -123.01619
   54 Torsion                  2     6     1     7         -34.52517
   55 Torsion                  2     6     4     5         -83.42444
   56 Torsion                  2     7     1     4          79.48887
   57 Torsion                  2     7     1     5         115.02276
   58 Torsion                  2     7     1     6          41.00711
   59 Torsion                  3     8     6     4        -122.36319
   60 Torsion                  4     1     2     6          16.15123
   61 Torsion                  4     1     2     7        -104.69239
   62 Torsion                  4     1     6     8          85.00032
   63 Torsion                  4     5     1     6         -41.08136
   64 Torsion                  4     5     1     7        -115.15025
   65 Torsion                  4     6     1     5          34.61008
   66 Torsion                  4     6     1     7         123.10110
   67 Torsion                  4     6     2     7          83.39354
   68 Torsion                  5     1     2     6          54.56156
   69 Torsion                  5     1     2     7         -66.28207
   70 Torsion                  5     1     4     6        -120.70752
   71 Torsion                  5     1     6     8         119.61040
   72 Torsion                  5     4     1     6         120.70752
   73 Torsion                  5     4     1     7          66.18092
   74 Torsion                  5     4     6     8         107.22576
   75 Torsion                  6     1     2     7        -120.84363
   76 Torsion                  6     2     1     7         120.84363
   77 Torsion                  6     4     1     7         -54.52660
   78 Torsion                  7     1     6     8        -151.89857
   79 Torsion                  7     2     6     8        -109.49471
 
 
            XYZ format geometry
            -------------------
     8
 geometry
 li                    0.13257940     0.96667326     1.41874016
 h                    -1.36522107     0.16984278     0.52788867
 h                    -0.58281575    -3.07967626    -0.99188022
 h                     1.35505258    -0.20337315     0.52255489
 li                    2.08141841     0.96652607    -0.73449921
 li                   -0.17610917    -1.25987892     0.10764017
 li                   -1.75667512     1.49466863    -0.72310576
 h                    -0.25065631    -3.39076049    -0.26488940
 
 ==============================================================================
                                internuclear distances
 ------------------------------------------------------------------------------
       center one      |      center two      | atomic units |  angstroms
 ------------------------------------------------------------------------------
    6 li               |   1 li               |     4.91758  |     2.60227
 ------------------------------------------------------------------------------
                         number of included internuclear distances:          1
 ==============================================================================





 Summary of "ao basis" -> "" (spherical)
 ------------------------------------------------------------------------------
       Tag                 Description            Shells   Functions and Types
 ---------------- ------------------------------  ------  ---------------------
 *                         def2-svpd                  on all atoms 




 Summary of "cd basis" -> "" (spherical)
 ------------------------------------------------------------------------------
       Tag                 Description            Shells   Functions and Types
 ---------------- ------------------------------  ------  ---------------------
 *                  Weigend Coulomb Fitting           on all atoms 


 
  Deleted DRIVER restart files 
 
 
 
                           NWChem Geometry Optimization
                           ----------------------------
 
 
  no constraints, skipping   0.000000000000000E+000
 maximum gradient threshold         (gmax) =   0.000015
 rms gradient threshold             (grms) =   0.000010
 maximum cartesian step threshold   (xmax) =   0.000060
 rms cartesian step threshold       (xrms) =   0.000040
 fixed trust radius                (trust) =   0.300000
 maximum step size to saddle      (sadstp) =   0.100000
 energy precision                  (eprec) =   5.0D-06
 maximum number of steps          (nptopt) =  100
 initial hessian option           (inhess) =    0
 line search option               (linopt) =    1
 hessian update option            (modupd) =    1
 saddle point option              (modsad) =    0
 initial eigen-mode to follow     (moddir) =    0
 initial variable to follow       (vardir) =    0
 follow first negative mode     (firstneg) =    T
 apply conjugacy                    (opcg) =    F
 source of zmatrix                         =   autoz   


          -------------------
          Energy Minimization
          -------------------

 
 Names of Z-matrix variables 
    1              2              3              4              5         
    6              7              8              9             10         
   11             12             13             14             15         
   16             17             18             19             20         
   21             22             23             24             25         
   26             27             28             29             30         
   31             32             33             34             35         
   36             37             38             39             40         
   41             42             43             44             45         
   46             47             48             49             50         
   51             52             53             54             55         
   56             57             58             59             60         
   61             62             63             64             65         
   66             67             68             69             70         
   71             72             73             74             75         
   76             77             78             79         
 
 Variables with the same non-blank name are constrained to be equal
 
 
 Using diagonal initial Hessian 
 Scaling for Hessian diagonals: bonds = 1.00  angles = 0.25  torsions = 0.10

          --------
          Step   0
          --------
 
 
                         Geometry "geometry" -> "geometry"
                         ---------------------------------
 
 Output coordinates in angstroms (scale by  1.889725989 to convert to a.u.)
 
  No.       Tag          Charge          X              Y              Z
 ---- ---------------- ---------- -------------- -------------- --------------
    1 li                   3.0000     0.13257940     0.96667326     1.41874016
    2 h                    1.0000    -1.36522107     0.16984278     0.52788867
    3 h                    1.0000    -0.58281575    -3.07967626    -0.99188022
    4 h                    1.0000     1.35505258    -0.20337315     0.52255489
    5 li                   3.0000     2.08141841     0.96652607    -0.73449921
    6 li                   3.0000    -0.17610917    -1.25987892     0.10764017
    7 li                   3.0000    -1.75667512     1.49466863    -0.72310576
    8 h                    1.0000    -0.25065631    -3.39076049    -0.26488940
 
      Atomic Mass 
      ----------- 
 
      li                 7.016000
      h                  1.007825
 

 Effective nuclear repulsion energy (a.u.)      19.9211429500

            Nuclear Dipole moment (a.u.) 
            ----------------------------
        X                 Y               Z
 ---------------- ---------------- ----------------
    -0.0000000000     0.0000000000     0.0000000000
 
 
                                 NWChem DFT Module
                                 -----------------
 
 
                      Basis "ao basis" -> "ao basis" (spherical)
                      -----
  li (Lithium)
  ------------
            Exponent  Coefficients 
       -------------- ---------------------------------------------------------
  1 S  2.66277855E+02  0.006492
  1 S  4.00697834E+01  0.047748
  1 S  9.05599444E+00  0.202688
  1 S  2.45030091E+00  0.486066
  1 S  7.22095719E-01  0.436270
 
  2 S  5.28108847E-02  1.000000
 
  3 S  2.09609488E-02  1.000000
 
  4 P  1.45000000E+00  0.258600
  4 P  3.00000000E-01  1.000000
 
  5 P  8.20000000E-02  1.000000
 
  6 P  2.63476625E-02  1.000000
 
  h (Hydrogen)
  ------------
            Exponent  Coefficients 
       -------------- ---------------------------------------------------------
  1 S  1.30107010E+01  0.019682
  1 S  1.96225720E+00  0.137965
  1 S  4.44537960E-01  0.478319
 
  2 S  1.21949620E-01  1.000000
 
  3 P  8.00000000E-01  1.000000
 
  4 P  1.17040990E-01  1.000000
 


 Summary of "ao basis" -> "ao basis" (spherical)
 ------------------------------------------------------------------------------
       Tag                 Description            Shells   Functions and Types
 ---------------- ------------------------------  ------  ---------------------
 li                        def2-svpd                 6       12   3s3p
 h                         def2-svpd                 4        8   2s2p


                      Basis "cd basis" -> "cd basis" (spherical)
                      -----
  li (Lithium)
  ------------
            Exponent  Coefficients 
       -------------- ---------------------------------------------------------
  1 S  4.98368973E+02  0.020791
  1 S  1.62934274E+02  0.054218
  1 S  5.73246735E+01  0.177678
  1 S  2.16427314E+01  0.418115
  1 S  8.73453750E+00  0.653524
  1 S  3.74910390E+00  0.549262
  1 S  1.70067540E+00  0.170143
 
  2 S  8.09085900E-01  1.000000
 
  3 S  4.00093300E-01  1.000000
 
  4 S  2.03579300E-01  1.000000
 
  5 S  1.05420100E-01  1.000000
 
  6 S  5.49139000E-02  1.000000
 
  7 P  1.07024696E+01  0.007292
  7 P  3.65515430E+00  0.006094
 
  8 P  1.24640130E+00  1.000000
 
  9 P  4.24628200E-01  1.000000
 
 10 P  1.44619200E-01  1.000000
 
 11 D  1.15106470E+00 -0.001431
 11 D  6.01911200E-01  0.003897
 
 12 D  3.10957300E-01  1.000000
 
 13 D  1.60003200E-01  1.000000
 
 14 F  5.96791800E-01  0.001049
 14 F  1.79068700E-01  0.000647
 
 15 G  1.04601300E+00  1.000000
 
  h (Hydrogen)
  ------------
            Exponent  Coefficients 
       -------------- ---------------------------------------------------------
  1 S  1.56752927E+01  0.018689
  1 S  3.60635780E+00  0.063167
  1 S  1.20800160E+00  0.120461
 
  2 S  4.72679400E-01  1.000000
 
  3 S  2.01810000E-01  1.000000
 
  4 P  2.02813650E+00  1.000000
  4 P  5.35873000E-01  1.000000
 
  5 D  2.21651240E+00  1.000000
 


 Summary of "cd basis" -> "cd basis" (spherical)
 ------------------------------------------------------------------------------
       Tag                 Description            Shells   Functions and Types
 ---------------- ------------------------------  ------  ---------------------
 li                 Weigend Coulomb Fitting         15       49   6s4p3d1f1g
 h                  Weigend Coulomb Fitting          5       11   3s1p1d


 
  Caching 1-el integrals 
   Time after variat. SCF:      0.4
   Time prior to 1st pass:      0.4
 Local filesystem for scratch_dir

           Memory utilization after 1st SCF pass: 
           Heap Space remaining (MW):       25.92            25921610
          Stack Space remaining (MW):       26.21            26213388

   convergence    iter        energy       DeltaE   RMS-Dens  Diis-err    time
 ---------------- ----- ----------------- --------- --------- ---------  ------
 d= 0,ls=0.0,diis     1    -31.8955523920 -5.18D+01  1.15D-02  3.52D-02     1.3
                                                     6.54D-03  3.07D-02
 d= 0,ls=0.0,diis     2    -31.9143512203 -1.88D-02  5.12D-03  1.15D-02     2.1
                                                     2.76D-03  1.09D-02
 d= 0,ls=0.0,diis     3    -31.9278108696 -1.35D-02  1.82D-03  2.06D-03     3.0
                                                     7.64D-04  1.56D-03
 d= 0,ls=0.0,diis     4    -31.9306145017 -2.80D-03  7.54D-04  4.27D-05     3.9
                                                     1.93D-04  3.03D-05
 d= 0,ls=0.0,diis     5    -31.9306524381 -3.79D-05  3.59D-04  1.10D-05     4.9
                                                     6.60D-05  6.31D-06
  Resetting Diis
 d= 0,ls=0.0,diis     6    -31.9306641922 -1.18D-05  1.58D-04  3.42D-06     5.8
                                                     2.52D-05  1.86D-06
 d= 0,ls=0.0,diis     7    -31.9306696341 -5.44D-06  3.57D-05  6.75D-08     6.7
                                                     7.67D-06  5.28D-08
 d= 0,ls=0.0,diis     8    -31.9306695365  9.75D-08  2.77D-05  1.20D-07     7.6
                                                     4.24D-06  7.46D-08
 d= 0,ls=0.0,diis     9    -31.9306697356 -1.99D-07  4.58D-06  3.56D-09     8.5
                                                     8.80D-07  1.90D-09
 d= 0,ls=0.0,diis    10    -31.9306697411 -5.50D-09  8.25D-07  9.07D-11     9.5
                                                     2.48D-07  8.56D-11


         Total DFT energy =      -31.930669741122
      One electron energy =      -78.788728964328
           Coulomb energy =       35.307973449517
    Exchange-Corr. energy =       -8.371057176325
 Nuclear repulsion energy =       19.921142950014

 Numeric. integr. density =       15.000002999501

     Total iterative time =      9.1s



     --------------------------
     Expectation value of S2:  
     --------------------------
      <S2> =      0.7511 (Exact =     0.7500)
 
  int_init: cando_txs set to always be  F
  intd_init: cando_txs set to always be  F


                         DFT ENERGY GRADIENTS

    atom               coordinates                        gradient
                 x          y          z           x          y          z
   1 li      0.250539   1.826748   2.681030    0.000020  -0.000001   0.000003
   2 h      -2.579894   0.320956   0.997565    0.000015  -0.000097  -0.000023
   3 h      -1.101362  -5.819744  -1.874382   -0.015985   0.015206  -0.035162
   4 h       2.560678  -0.384320   0.987486   -0.000060  -0.000081  -0.000022
   5 li      3.933310   1.826469  -1.388002    0.000001   0.000015  -0.000015
   6 li     -0.332798  -2.380826   0.203410    0.000019  -0.000037  -0.000023
   7 li     -3.319635   2.824514  -1.366472   -0.000018   0.000012   0.000001
   8 h      -0.473672  -6.407608  -0.500568    0.016008  -0.015017   0.035242
 
  no constraints, skipping   0.000000000000000E+000

@ Step       Energy      Delta E   Gmax     Grms     Xrms     Xmax   Walltime
@ ---- ---------------- -------- -------- -------- -------- -------- --------
@    0     -31.93066974  0.0D+00  0.04151  0.00467  0.00000  0.00000     12.0
                                                                    



                                Z-matrix (autoz)
                                -------- 

 Units are Angstrom for bonds and degrees for angles
 
      Type          Name      I     J     K     L     M      Value     Gradient
      ----------- --------  ----- ----- ----- ----- ----- ---------- ----------
    1 Stretch                  1     2                       1.91624   -0.00000
    2 Stretch                  1     4                       1.91484   -0.00001
    3 Stretch                  1     5                       2.90421    0.00000
    4 Stretch                  1     6                       2.60227   -0.00004
    5 Stretch                  1     7                       2.90440    0.00001
    6 Stretch                  2     6                       1.90649   -0.00004
    7 Stretch                  2     7                       1.86370    0.00001
    8 Stretch                  3     8                       0.85768    0.04151
    9 Stretch                  4     5                       1.86453    0.00002
   10 Stretch                  4     6                       1.90599   -0.00005
   11 Stretch                  6     8                       2.16448   -0.00020
   12 Bend                     1     2     6                85.80208   -0.00001
   13 Bend                     1     2     7               100.40688    0.00000
   14 Bend                     1     4     5               100.41924   -0.00000
   15 Bend                     1     4     6                85.85497   -0.00000
   16 Bend                     1     5     4                40.42561   -0.00001
   17 Bend                     1     6     8               158.92904   -0.00000
   18 Bend                     1     6     2                47.25617    0.00002
   19 Bend                     1     6     4                47.21506    0.00001
   20 Bend                     1     7     2                40.45990   -0.00000
   21 Bend                     2     1     4                91.56676   -0.00002
   22 Bend                     2     1     5               100.35837   -0.00001
   23 Bend                     2     1     6                46.94175   -0.00001
   24 Bend                     2     1     7                39.13322    0.00000
   25 Bend                     2     6     8               139.00253   -0.00002
   26 Bend                     2     6     4                92.14247    0.00003
   27 Bend                     3     8     6                78.58874   -0.00014
   28 Bend                     4     1     5                39.15515    0.00001
   29 Bend                     4     1     6                46.92997   -0.00001
   30 Bend                     4     1     7               100.44087   -0.00001
   31 Bend                     4     6     8               127.64997   -0.00001
   32 Bend                     5     1     6                72.90287   -0.00000
   33 Bend                     5     1     7                83.67014   -0.00001
   34 Bend                     5     4     6               120.93022   -0.00000
   35 Bend                     6     1     7                72.95245   -0.00000
   36 Bend                     6     2     7               121.07321    0.00000
   37 Torsion                  1     2     6     8         150.87810    0.00001
   38 Torsion                  1     2     6     4         -16.23365   -0.00000
   39 Torsion                  1     4     6     8        -153.10508   -0.00000
   40 Torsion                  1     4     6     2          16.24472    0.00000
   41 Torsion                  1     5     4     6          91.40421   -0.00000
   42 Torsion                  1     6     8     3         170.20710    0.00002
   43 Torsion                  1     6     2     7          99.62719   -0.00000
   44 Torsion                  1     6     4     5         -99.66917    0.00000
   45 Torsion                  1     7     2     6         -91.36249    0.00001
   46 Torsion                  2     1     4     5         104.55310    0.00000
   47 Torsion                  2     1     4     6         -16.15442    0.00000
   48 Torsion                  2     1     5     4         -79.60379    0.00001
   49 Torsion                  2     1     6     8        -117.37340    0.00001
   50 Torsion                  2     1     6     4         157.62627    0.00000
   51 Torsion                  2     6     8     3          73.98766    0.00002
   52 Torsion                  2     6     1     4        -157.62627   -0.00000
   53 Torsion                  2     6     1     5        -123.01619    0.00000
   54 Torsion                  2     6     1     7         -34.52517   -0.00000
   55 Torsion                  2     6     4     5         -83.42444    0.00000
   56 Torsion                  2     7     1     4          79.48887   -0.00002
   57 Torsion                  2     7     1     5         115.02276   -0.00001
   58 Torsion                  2     7     1     6          41.00711   -0.00001
   59 Torsion                  3     8     6     4        -122.36319    0.00003
   60 Torsion                  4     1     2     6          16.15123   -0.00001
   61 Torsion                  4     1     2     7        -104.69239   -0.00001
   62 Torsion                  4     1     6     8          85.00032    0.00000
   63 Torsion                  4     5     1     6         -41.08136    0.00001
   64 Torsion                  4     5     1     7        -115.15025    0.00001
   65 Torsion                  4     6     1     5          34.61008    0.00001
   66 Torsion                  4     6     1     7         123.10110    0.00000
   67 Torsion                  4     6     2     7          83.39354   -0.00000
   68 Torsion                  5     1     2     6          54.56156   -0.00000
   69 Torsion                  5     1     2     7         -66.28207   -0.00000
   70 Torsion                  5     1     4     6        -120.70752    0.00000
   71 Torsion                  5     1     6     8         119.61040    0.00001
   72 Torsion                  5     4     1     6         120.70752   -0.00000
   73 Torsion                  5     4     1     7          66.18092    0.00000
   74 Torsion                  5     4     6     8         107.22576    0.00000
   75 Torsion                  6     1     2     7        -120.84363   -0.00000
   76 Torsion                  6     2     1     7         120.84363    0.00000
   77 Torsion                  6     4     1     7         -54.52660    0.00001
   78 Torsion                  7     1     6     8        -151.89857    0.00001
   79 Torsion                  7     2     6     8        -109.49471    0.00000
 
  no constraints, skipping   0.000000000000000E+000
  no constraints, skipping   0.000000000000000E+000
  no constraints, skipping   0.000000000000000E+000
  no constraints, skipping   0.000000000000000E+000
 
                                 NWChem DFT Module
                                 -----------------
 
 
 
  Caching 1-el integrals 
   Time after variat. SCF:     12.1
   Time prior to 1st pass:     12.1
 Local filesystem for scratch_dir

           Memory utilization after 1st SCF pass: 
           Heap Space remaining (MW):       25.92            25921610
          Stack Space remaining (MW):       26.21            26213388

   convergence    iter        energy       DeltaE   RMS-Dens  Diis-err    time
 ---------------- ----- ----------------- --------- --------- ---------  ------
 d= 0,ls=0.0,diis     1    -31.9331298438 -5.19D+01  1.01D-03  1.04D-03    13.1
                                                     7.69D-04  1.02D-03
 d= 0,ls=0.0,diis     2    -31.9337563034 -6.26D-04  3.41D-04  2.42D-04    14.0
                                                     2.45D-04  2.36D-04
 d= 0,ls=0.0,diis     3    -31.9339940343 -2.38D-04  2.54D-04  7.74D-06    14.9
                                                     8.44D-05  5.49D-06
 d= 0,ls=0.0,diis     4    -31.9340004383 -6.40D-06  1.37D-04  2.30D-06    15.8
                                                     2.30D-05  1.28D-06
 d= 0,ls=0.0,diis     5    -31.9340042517 -3.81D-06  2.71D-05  5.59D-08    16.7
                                                     6.63D-06  3.31D-08
 d= 0,ls=0.0,diis     6    -31.9340043332 -8.15D-08  6.44D-06  6.55D-09    17.6
                                                     1.55D-06  3.17D-09
 d= 0,ls=0.0,diis     7    -31.9340043429 -9.68D-09  9.80D-07  3.20D-10    18.5
                                                     5.60D-07  2.99D-10


         Total DFT energy =      -31.934004342875
      One electron energy =      -78.905342576355
           Coulomb energy =       35.363183674553
    Exchange-Corr. energy =       -8.397317165539
 Nuclear repulsion energy =       20.005471724466

 Numeric. integr. density =       15.000000901840

     Total iterative time =      6.3s



     --------------------------
     Expectation value of S2:  
     --------------------------
      <S2> =      0.7511 (Exact =     0.7500)
 
 Line search: 
     step= 1.00 grad=-7.9D-03 hess= 4.6D-03 energy=    -31.934004 mode=downhill
 new step= 0.87                   predicted energy=    -31.934087
  no constraints, skipping   0.000000000000000E+000
  no constraints, skipping   0.000000000000000E+000
  no constraints, skipping   0.000000000000000E+000
  no constraints, skipping   0.000000000000000E+000

          --------
          Step   1
          --------
 
 
                         Geometry "geometry" -> "geometry"
                         ---------------------------------
 
 Output coordinates in angstroms (scale by  1.889725989 to convert to a.u.)
 
  No.       Tag          Charge          X              Y              Z
 ---- ---------------- ---------- -------------- -------------- --------------
    1 li                   3.0000     0.13225420     0.95966479     1.42088255
    2 h                    1.0000    -1.36751086     0.17372761     0.52382090
    3 h                    1.0000    -0.56129482    -3.10095141    -0.94652203
    4 h                    1.0000     1.35181991    -0.20678380     0.51615471
    5 li                   3.0000     2.08159775     0.97054910    -0.73187163
    6 li                   3.0000    -0.18219221    -1.25619830     0.09297122
    7 li                   3.0000    -1.75501096     1.50891228    -0.71732639
    8 h                    1.0000    -0.26209004    -3.38489834    -0.29566005
 
      Atomic Mass 
      ----------- 
 
      li                 7.016000
      h                  1.007825
 

 Effective nuclear repulsion energy (a.u.)      19.9929844527

            Nuclear Dipole moment (a.u.) 
            ----------------------------
        X                 Y               Z
 ---------------- ---------------- ----------------
    -0.0172522205     0.0564605846    -0.0155698339
 
 
                                 NWChem DFT Module
                                 -----------------
 
 
 
  Caching 1-el integrals 
   Time after variat. SCF:     18.6
   Time prior to 1st pass:     18.6
 Local filesystem for scratch_dir

           Memory utilization after 1st SCF pass: 
           Heap Space remaining (MW):       25.92            25921610
          Stack Space remaining (MW):       26.21            26213388

   convergence    iter        energy       DeltaE   RMS-Dens  Diis-err    time
 ---------------- ----- ----------------- --------- --------- ---------  ------
 d= 0,ls=0.0,diis     1    -31.9341781834 -5.19D+01  1.53D-04  2.22D-05    19.6
                                                     1.16D-04  2.22D-05
 d= 0,ls=0.0,diis     2    -31.9341910142 -1.28D-05  5.14D-05  5.23D-06    20.5
                                                     3.74D-05  5.08D-06
 d= 0,ls=0.0,diis     3    -31.9341961491 -5.13D-06  3.76D-05  1.62D-07    21.4
                                                     1.16D-05  1.19D-07
 d= 0,ls=0.0,diis     4    -31.9341962799 -1.31D-07  1.93D-05  5.11D-08    22.3
                                                     3.08D-06  2.76D-08
 d= 0,ls=0.0,diis     5    -31.9341963657 -8.57D-08  3.05D-06  8.04D-10    23.2
                                                     5.57D-07  4.59D-10
 d= 0,ls=0.0,diis     6    -31.9341963668 -1.15D-09  6.96D-07  8.11D-11    24.1
                                                     1.46D-07  4.06D-11


         Total DFT energy =      -31.934196366824
      One electron energy =      -78.889066776421
           Coulomb energy =       35.355505291826
    Exchange-Corr. energy =       -8.393619334965
 Nuclear repulsion energy =       19.992984452736

 Numeric. integr. density =       15.000001137612

     Total iterative time =      5.5s



     --------------------------
     Expectation value of S2:  
     --------------------------
      <S2> =      0.7511 (Exact =     0.7500)
 
  int_init: cando_txs set to always be  F
  intd_init: cando_txs set to always be  F


                         DFT ENERGY GRADIENTS

    atom               coordinates                        gradient
                 x          y          z           x          y          z
   1 li      0.249924   1.813503   2.685079    0.000010  -0.000038   0.000002
   2 h      -2.584221   0.328298   0.989878   -0.000014   0.000073   0.000033
   3 h      -1.060693  -5.859948  -1.788667    0.001220  -0.000887   0.002471
   4 h       2.554569  -0.390765   0.975391    0.000008   0.000038   0.000026
   5 li      3.933649   1.834072  -1.383037    0.000001  -0.000014  -0.000009
   6 li     -0.344293  -2.373871   0.175690   -0.000024   0.000089  -0.000129
   7 li     -3.316490   2.851431  -1.355550   -0.000019  -0.000022   0.000018
   8 h      -0.495278  -6.396530  -0.558716   -0.001182   0.000761  -0.002412
 
  no constraints, skipping   0.000000000000000E+000

  Step       Energy      Delta E   Gmax     Grms     Xrms     Xmax   Walltime
  ---- ---------------- -------- -------- -------- -------- -------- --------
@    1     -31.93419637 -3.5D-03  0.00289  0.00033  0.02663  0.08526     26.6
                                                                    



                                Z-matrix (autoz)
                                -------- 

 Units are Angstrom for bonds and degrees for angles
 
      Type          Name      I     J     K     L     M      Value     Gradient
      ----------- --------  ----- ----- ----- ----- ----- ---------- ----------
    1 Stretch                  1     2                       1.91617   -0.00000
    2 Stretch                  1     4                       1.91480   -0.00000
    3 Stretch                  1     5                       2.90421    0.00000
    4 Stretch                  1     6                       2.60236    0.00001
    5 Stretch                  1     7                       2.90437   -0.00000
    6 Stretch                  2     6                       1.90665    0.00003
    7 Stretch                  2     7                       1.86368   -0.00002
    8 Stretch                  3     8                       0.77057   -0.00289
    9 Stretch                  4     5                       1.86447   -0.00000
   10 Stretch                  4     6                       1.90619    0.00001
   11 Stretch                  6     8                       2.16536    0.00011
   12 Bend                     1     2     6                85.80321   -0.00001
   13 Bend                     1     2     7               100.40839    0.00001
   14 Bend                     1     4     5               100.42230    0.00000
   15 Bend                     1     4     6                85.85419    0.00000
   16 Bend                     1     5     4                40.42433   -0.00000
   17 Bend                     1     6     8               158.92446   -0.00001
   18 Bend                     1     6     2                47.25201   -0.00000
   19 Bend                     1     6     4                47.21183   -0.00000
   20 Bend                     1     7     2                40.45854   -0.00000
   21 Bend                     2     1     4                91.57286    0.00001
   22 Bend                     2     1     5               100.36208    0.00000
   23 Bend                     2     1     6                46.94478    0.00001
   24 Bend                     2     1     7                39.13306   -0.00001
   25 Bend                     2     6     8               139.01578    0.00000
   26 Bend                     2     6     4                92.13472   -0.00001
   27 Bend                     3     8     6                78.67757   -0.00014
   28 Bend                     4     1     5                39.15338   -0.00000
   29 Bend                     4     1     6                46.93398    0.00000
   30 Bend                     4     1     7               100.44079    0.00001
   31 Bend                     4     6     8               127.64368    0.00000
   32 Bend                     5     1     6                72.90563   -0.00000
   33 Bend                     5     1     7                83.66931    0.00001
   34 Bend                     5     4     6               120.93216   -0.00000
   35 Bend                     6     1     7                72.95300    0.00000
   36 Bend                     6     2     7               121.06866    0.00000
   37 Torsion                  1     2     6     8         150.87034   -0.00001
   38 Torsion                  1     2     6     4         -16.23497    0.00000
   39 Torsion                  1     4     6     8        -153.10249    0.00001
   40 Torsion                  1     4     6     2          16.24579   -0.00000
   41 Torsion                  1     5     4     6          91.40552    0.00001
   42 Torsion                  1     6     8     3         170.10489    0.00002
   43 Torsion                  1     6     2     7          99.62950    0.00001
   44 Torsion                  1     6     4     5         -99.67232   -0.00001
   45 Torsion                  1     7     2     6         -91.36385    0.00000
   46 Torsion                  2     1     4     5         104.55188   -0.00001
   47 Torsion                  2     1     4     6         -16.15755   -0.00000
   48 Torsion                  2     1     5     4         -79.60830   -0.00001
   49 Torsion                  2     1     6     8        -117.39893    0.00000
   50 Torsion                  2     1     6     4         157.62306    0.00000
   51 Torsion                  2     6     8     3          73.86882    0.00003
   52 Torsion                  2     6     1     4        -157.62306   -0.00000
   53 Torsion                  2     6     1     5        -123.01586   -0.00000
   54 Torsion                  2     6     1     7         -34.52673    0.00001
   55 Torsion                  2     6     4     5         -83.42653   -0.00001
   56 Torsion                  2     7     1     4          79.49892    0.00001
   57 Torsion                  2     7     1     5         115.03047    0.00000
   58 Torsion                  2     7     1     6          41.01171    0.00001
   59 Torsion                  3     8     6     4        -122.48895    0.00001
   60 Torsion                  4     1     2     6          16.15463    0.00000
   61 Torsion                  4     1     2     7        -104.68459   -0.00000
   62 Torsion                  4     1     6     8          84.97802    0.00000
   63 Torsion                  4     5     1     6         -41.08290   -0.00000
   64 Torsion                  4     5     1     7        -115.15253   -0.00000
   65 Torsion                  4     6     1     5          34.60720   -0.00000
   66 Torsion                  4     6     1     7         123.09633    0.00001
   67 Torsion                  4     6     2     7          83.39454    0.00001
   68 Torsion                  5     1     2     6          54.56401   -0.00000
   69 Torsion                  5     1     2     7         -66.27521   -0.00000
   70 Torsion                  5     1     4     6        -120.70943    0.00000
   71 Torsion                  5     1     6     8         119.58522    0.00000
   72 Torsion                  5     4     1     6         120.70943   -0.00000
   73 Torsion                  5     4     1     7          66.17825    0.00000
   74 Torsion                  5     4     6     8         107.22519    0.00000
   75 Torsion                  6     1     2     7        -120.83922   -0.00000
   76 Torsion                  6     2     1     7         120.83922    0.00000
   77 Torsion                  6     4     1     7         -54.53118    0.00000
   78 Torsion                  7     1     6     8        -151.92565    0.00001
   79 Torsion                  7     2     6     8        -109.50015   -0.00000
 
  no constraints, skipping   0.000000000000000E+000
  no constraints, skipping   0.000000000000000E+000
  no constraints, skipping   0.000000000000000E+000
  no constraints, skipping   0.000000000000000E+000
 
                                 NWChem DFT Module
                                 -----------------
 
 
 
  Caching 1-el integrals 
   Time after variat. SCF:     26.7
   Time prior to 1st pass:     26.7
 Local filesystem for scratch_dir

           Memory utilization after 1st SCF pass: 
           Heap Space remaining (MW):       25.92            25921610
          Stack Space remaining (MW):       26.21            26213388

   convergence    iter        energy       DeltaE   RMS-Dens  Diis-err    time
 ---------------- ----- ----------------- --------- --------- ---------  ------
 d= 0,ls=0.0,diis     1    -31.9342051498 -5.19D+01  7.10D-05  3.81D-06    27.7
                                                     5.24D-05  3.81D-06
 d= 0,ls=0.0,diis     2    -31.9342073939 -2.24D-06  1.86D-05  8.72D-07    28.5
                                                     1.58D-05  8.55D-07
 d= 0,ls=0.0,diis     3    -31.9342082564 -8.63D-07  1.20D-05  2.32D-08    29.4
                                                     4.58D-06  1.84D-08
 d= 0,ls=0.0,diis     4    -31.9342082769 -2.05D-08  6.64D-06  5.48D-09    30.3
                                                     1.05D-06  2.85D-09
 d= 0,ls=0.0,diis     5    -31.9342082859 -8.95D-09  1.44D-06  2.04D-10    31.2
                                                     2.56D-07  1.23D-10


         Total DFT energy =      -31.934208285896
      One electron energy =      -78.881892009127
           Coulomb energy =       35.352124651921
    Exchange-Corr. energy =       -8.392082151267
 Nuclear repulsion energy =       19.987641222577

 Numeric. integr. density =       15.000001208824

     Total iterative time =      4.5s



     --------------------------
     Expectation value of S2:  
     --------------------------
      <S2> =      0.7511 (Exact =     0.7500)
 
 Line search: 
     step= 1.00 grad=-3.2D-05 hess= 2.0D-05 energy=    -31.934208 mode=downhill
 new step= 0.80                   predicted energy=    -31.934209
  no constraints, skipping   0.000000000000000E+000
  no constraints, skipping   0.000000000000000E+000
  no constraints, skipping   0.000000000000000E+000
  no constraints, skipping   0.000000000000000E+000

          --------
          Step   2
          --------
 
 
                         Geometry "geometry" -> "geometry"
                         ---------------------------------
 
 Output coordinates in angstroms (scale by  1.889725989 to convert to a.u.)
 
  No.       Tag          Charge          X              Y              Z
 ---- ---------------- ---------- -------------- -------------- --------------
    1 li                   3.0000     0.13223233     0.96008666     1.42082398
    2 h                    1.0000    -1.36731108     0.17338055     0.52398088
    3 h                    1.0000    -0.56336346    -3.10047898    -0.94886593
    4 h                    1.0000     1.35207719    -0.20648266     0.51653150
    5 li                   3.0000     2.08161261     0.97062991    -0.73186751
    6 li                   3.0000    -0.18170560    -1.25639060     0.09384635
    7 li                   3.0000    -1.75493183     1.50806474    -0.71775620
    8 h                    1.0000    -0.26103719    -3.38478770    -0.29424378
 
      Atomic Mass 
      ----------- 
 
      li                 7.016000
      h                  1.007825
 

 Effective nuclear repulsion energy (a.u.)      19.9887098234

            Nuclear Dipole moment (a.u.) 
            ----------------------------
        X                 Y               Z
 ---------------- ---------------- ----------------
    -0.0151405317     0.0544304355    -0.0140925660
 
 
                                 NWChem DFT Module
                                 -----------------
 
 
 
  Caching 1-el integrals 
   Time after variat. SCF:     31.3
   Time prior to 1st pass:     31.4
 Local filesystem for scratch_dir

           Memory utilization after 1st SCF pass: 
           Heap Space remaining (MW):       25.92            25921610
          Stack Space remaining (MW):       26.21            26213388

   convergence    iter        energy       DeltaE   RMS-Dens  Diis-err    time
 ---------------- ----- ----------------- --------- --------- ---------  ------
 d= 0,ls=0.0,diis     1    -31.9342089326 -5.19D+01  1.42D-05  1.52D-07    32.3
                                                     1.04D-05  1.52D-07
 d= 0,ls=0.0,diis     2    -31.9342090225 -8.99D-08  3.79D-06  3.47D-08    33.2
                                                     3.14D-06  3.42D-08
 d= 0,ls=0.0,diis     3    -31.9342090568 -3.43D-08  2.55D-06  9.31D-10    34.1
                                                     9.31D-07  7.41D-10
 d= 0,ls=0.0,diis     4    -31.9342090576 -7.88D-10  1.41D-06  2.48D-10    35.0
                                                     2.25D-07  1.30D-10


         Total DFT energy =      -31.934209057627
      One electron energy =      -78.883328458256
           Coulomb energy =       35.352801764990
    Exchange-Corr. energy =       -8.392392187755
 Nuclear repulsion energy =       19.988709823394

 Numeric. integr. density =       15.000001194619

     Total iterative time =      3.6s



     --------------------------
     Expectation value of S2:  
     --------------------------
      <S2> =      0.7511 (Exact =     0.7500)
 
  int_init: cando_txs set to always be  F
  intd_init: cando_txs set to always be  F


                         DFT ENERGY GRADIENTS

    atom               coordinates                        gradient
                 x          y          z           x          y          z
   1 li      0.249883   1.814301   2.684968    0.000011  -0.000035   0.000003
   2 h      -2.583843   0.327642   0.990180   -0.000011   0.000060   0.000030
   3 h      -1.064603  -5.859056  -1.793097    0.000067   0.000189  -0.000037
   4 h       2.555055  -0.390196   0.976103    0.000004   0.000032   0.000022
   5 li      3.933677   1.834225  -1.383029    0.000001  -0.000012  -0.000009
   6 li     -0.343374  -2.374234   0.177344   -0.000021   0.000086  -0.000116
   7 li     -3.316340   2.849829  -1.356363   -0.000018  -0.000019   0.000015
   8 h      -0.493289  -6.396321  -0.556040   -0.000032  -0.000301   0.000092
 
  no constraints, skipping   0.000000000000000E+000

  Step       Energy      Delta E   Gmax     Grms     Xrms     Xmax   Walltime
  ---- ---------------- -------- -------- -------- -------- -------- --------
@    2     -31.93420906 -1.3D-05  0.00013  0.00002  0.00153  0.00443     37.5
                                                                    



                                Z-matrix (autoz)
                                -------- 

 Units are Angstrom for bonds and degrees for angles
 
      Type          Name      I     J     K     L     M      Value     Gradient
      ----------- --------  ----- ----- ----- ----- ----- ---------- ----------
    1 Stretch                  1     2                       1.91621   -0.00000
    2 Stretch                  1     4                       1.91485   -0.00000
    3 Stretch                  1     5                       2.90418    0.00000
    4 Stretch                  1     6                       2.60234    0.00001
    5 Stretch                  1     7                       2.90434    0.00000
    6 Stretch                  2     6                       1.90655    0.00002
    7 Stretch                  2     7                       1.86374   -0.00001
    8 Stretch                  3     8                       0.77509    0.00007
    9 Stretch                  4     5                       1.86449   -0.00000
   10 Stretch                  4     6                       1.90616    0.00000
   11 Stretch                  6     8                       2.16494    0.00010
   12 Bend                     1     2     6                85.80425   -0.00001
   13 Bend                     1     2     7               100.40327    0.00001
   14 Bend                     1     4     5               100.41897    0.00000
   15 Bend                     1     4     6                85.85296    0.00000
   16 Bend                     1     5     4                40.42640   -0.00000
   17 Bend                     1     6     8               158.93508   -0.00001
   18 Bend                     1     6     2                47.25373   -0.00000
   19 Bend                     1     6     4                47.21356   -0.00000
   20 Bend                     1     7     2                40.46090   -0.00000
   21 Bend                     2     1     4                91.56880    0.00001
   22 Bend                     2     1     5               100.36080    0.00000
   23 Bend                     2     1     6                46.94201    0.00001
   24 Bend                     2     1     7                39.13583   -0.00001
   25 Bend                     2     6     8               139.01865    0.00000
   26 Bend                     2     6     4                92.13710   -0.00001
   27 Bend                     3     8     6                78.75977   -0.00013
   28 Bend                     4     1     5                39.15463   -0.00000
   29 Bend                     4     1     6                46.93348    0.00000
   30 Bend                     4     1     7               100.43630    0.00001
   31 Bend                     4     6     8               127.64259    0.00000
   32 Bend                     5     1     6                72.90828   -0.00000
   33 Bend                     5     1     7                83.66514    0.00001
   34 Bend                     5     4     6               120.93746   -0.00000
   35 Bend                     6     1     7                72.95286    0.00000
   36 Bend                     6     2     7               121.06871    0.00000
   37 Torsion                  1     2     6     8         150.88833   -0.00001
   38 Torsion                  1     2     6     4         -16.23867    0.00000
   39 Torsion                  1     4     6     8        -153.11739    0.00001
   40 Torsion                  1     4     6     2          16.24950   -0.00000
   41 Torsion                  1     5     4     6          91.40311    0.00001
   42 Torsion                  1     6     8     3         170.01962    0.00002
   43 Torsion                  1     6     2     7          99.62415    0.00001
   44 Torsion                  1     6     4     5         -99.66786   -0.00001
   45 Torsion                  1     7     2     6         -91.36198    0.00000
   46 Torsion                  2     1     4     5         104.55457   -0.00000
   47 Torsion                  2     1     4     6         -16.15997   -0.00000
   48 Torsion                  2     1     5     4         -79.60382   -0.00001
   49 Torsion                  2     1     6     8        -117.41439    0.00000
   50 Torsion                  2     1     6     4         157.61852    0.00000
   51 Torsion                  2     6     8     3          73.75498    0.00003
   52 Torsion                  2     6     1     4        -157.61852   -0.00000
   53 Torsion                  2     6     1     5        -123.01290   -0.00000
   54 Torsion                  2     6     1     7         -34.52906    0.00001
   55 Torsion                  2     6     4     5         -83.41836   -0.00001
   56 Torsion                  2     7     1     4          79.49918    0.00000
   57 Torsion                  2     7     1     5         115.03218    0.00000
   58 Torsion                  2     7     1     6          41.00945    0.00001
   59 Torsion                  3     8     6     4        -122.57470    0.00001
   60 Torsion                  4     1     2     6          16.15766   -0.00000
   61 Torsion                  4     1     2     7        -104.68167   -0.00000
   62 Torsion                  4     1     6     8          84.96709    0.00000
   63 Torsion                  4     5     1     6         -41.07914   -0.00000
   64 Torsion                  4     5     1     7        -115.14975   -0.00000
   65 Torsion                  4     6     1     5          34.60561   -0.00000
   66 Torsion                  4     6     1     7         123.08946    0.00001
   67 Torsion                  4     6     2     7          83.38547    0.00001
   68 Torsion                  5     1     2     6          54.56753   -0.00000
   69 Torsion                  5     1     2     7         -66.27180   -0.00000
   70 Torsion                  5     1     4     6        -120.71453    0.00000
   71 Torsion                  5     1     6     8         119.57270    0.00000
   72 Torsion                  5     4     1     6         120.71453   -0.00000
   73 Torsion                  5     4     1     7          66.17829    0.00000
   74 Torsion                  5     4     6     8         107.21476    0.00000
   75 Torsion                  6     1     2     7        -120.83933   -0.00000
   76 Torsion                  6     2     1     7         120.83933    0.00000
   77 Torsion                  6     4     1     7         -54.53624    0.00000
   78 Torsion                  7     1     6     8        -151.94345    0.00001
   79 Torsion                  7     2     6     8        -109.48752   -0.00000
 
  no constraints, skipping   0.000000000000000E+000
  no constraints, skipping   0.000000000000000E+000
  no constraints, skipping   0.000000000000000E+000
  no constraints, skipping   0.000000000000000E+000
 
                                 NWChem DFT Module
                                 -----------------
 
 
 
  Caching 1-el integrals 
   Time after variat. SCF:     37.6
   Time prior to 1st pass:     37.6
 Local filesystem for scratch_dir

           Memory utilization after 1st SCF pass: 
           Heap Space remaining (MW):       25.92            25921610
          Stack Space remaining (MW):       26.21            26213388

   convergence    iter        energy       DeltaE   RMS-Dens  Diis-err    time
 ---------------- ----- ----------------- --------- --------- ---------  ------
 d= 0,ls=0.0,diis     1    -31.9342098698 -5.19D+01  2.07D-05  5.81D-08    38.6
                                                     1.67D-05  5.72D-08
 d= 0,ls=0.0,diis     2    -31.9342099059 -3.62D-08  8.79D-06  2.84D-09    39.4
                                                     1.96D-06  1.67D-09
 d= 0,ls=0.0,diis     3    -31.9342099032  2.78D-09  5.80D-06  4.02D-09    40.3
                                                     9.41D-07  2.14D-09


         Total DFT energy =      -31.934209903162
      One electron energy =      -78.883059470939
           Coulomb energy =       35.352658520867
    Exchange-Corr. energy =       -8.392382918199
 Nuclear repulsion energy =       19.988573965110

 Numeric. integr. density =       15.000001188770

     Total iterative time =      2.7s



     --------------------------
     Expectation value of S2:  
     --------------------------
      <S2> =      0.7511 (Exact =     0.7500)
 
 Line search: 
     step= 1.00 grad=-8.9D-07 hess= 4.2D-08 energy=    -31.934210 mode=accept  
 new step= 1.00                   predicted energy=    -31.934210
  no constraints, skipping   0.000000000000000E+000
  no constraints, skipping   0.000000000000000E+000
  no constraints, skipping   0.000000000000000E+000
  no constraints, skipping   0.000000000000000E+000

          --------
          Step   3
          --------
 
 
                         Geometry "geometry" -> "geometry"
                         ---------------------------------
 
 Output coordinates in angstroms (scale by  1.889725989 to convert to a.u.)
 
  No.       Tag          Charge          X              Y              Z
 ---- ---------------- ---------- -------------- -------------- --------------
    1 li                   3.0000     0.13217749     0.96014173     1.42088194
    2 h                    1.0000    -1.36721213     0.17317730     0.52390693
    3 h                    1.0000    -0.56456637    -3.10119449    -0.94882007
    4 h                    1.0000     1.35218762    -0.20634520     0.51658496
    5 li                   3.0000     2.08164240     0.97097237    -0.73169197
    6 li                   3.0000    -0.18148650    -1.25640733     0.09398740
    7 li                   3.0000    -1.75472689     1.50790669    -0.71792336
    8 h                    1.0000    -0.26044266    -3.38422914    -0.29447655
 
      Atomic Mass 
      ----------- 
 
      li                 7.016000
      h                  1.007825
 

 Effective nuclear repulsion energy (a.u.)      19.9885739651

            Nuclear Dipole moment (a.u.) 
            ----------------------------
        X                 Y               Z
 ---------------- ---------------- ----------------
    -0.0136325324     0.0552722799    -0.0133087389
 
 
                                 NWChem DFT Module
                                 -----------------
 
 
 

  The DFT is already converged 

         Total DFT energy =    -31.934209903162

  int_init: cando_txs set to always be  F
  intd_init: cando_txs set to always be  F


                         DFT ENERGY GRADIENTS

    atom               coordinates                        gradient
                 x          y          z           x          y          z
   1 li      0.249779   1.814405   2.685078    0.000011  -0.000037   0.000005
   2 h      -2.583656   0.327258   0.990041   -0.000009   0.000054   0.000030
   3 h      -1.066876  -5.860408  -1.793010    0.000065   0.000172  -0.000042
   4 h       2.555264  -0.389936   0.976204    0.000003   0.000031   0.000020
   5 li      3.933734   1.834872  -1.382697    0.000001  -0.000012  -0.000010
   6 li     -0.342960  -2.374266   0.177610   -0.000019   0.000094  -0.000106
   7 li     -3.315953   2.849530  -1.356678   -0.000019  -0.000018   0.000012
   8 h      -0.492165  -6.395266  -0.556480   -0.000034  -0.000284   0.000091
 
  no constraints, skipping   0.000000000000000E+000

  Step       Energy      Delta E   Gmax     Grms     Xrms     Xmax   Walltime
  ---- ---------------- -------- -------- -------- -------- -------- --------
@    3     -31.93420990 -8.5D-07  0.00012  0.00002  0.00068  0.00227     42.8
                                                                    



                                Z-matrix (autoz)
                                -------- 

 Units are Angstrom for bonds and degrees for angles
 
      Type          Name      I     J     K     L     M      Value     Gradient
      ----------- --------  ----- ----- ----- ----- ----- ---------- ----------
    1 Stretch                  1     2                       1.91626   -0.00000
    2 Stretch                  1     4                       1.91491   -0.00000
    3 Stretch                  1     5                       2.90415    0.00000
    4 Stretch                  1     6                       2.60233    0.00000
    5 Stretch                  1     7                       2.90430    0.00000
    6 Stretch                  2     6                       1.90643    0.00002
    7 Stretch                  2     7                       1.86382   -0.00001
    8 Stretch                  3     8                       0.77509    0.00007
    9 Stretch                  4     5                       1.86450   -0.00000
   10 Stretch                  4     6                       1.90614    0.00000
   11 Stretch                  6     8                       2.16443    0.00010
   12 Bend                     1     2     6                85.80550   -0.00001
   13 Bend                     1     2     7               100.39687    0.00001
   14 Bend                     1     4     5               100.41489    0.00000
   15 Bend                     1     4     6                85.85139    0.00000
   16 Bend                     1     5     4                40.42899   -0.00000
   17 Bend                     1     6     8               158.94852   -0.00001
   18 Bend                     1     6     2                47.25571   -0.00000
   19 Bend                     1     6     4                47.21562   -0.00000
   20 Bend                     1     7     2                40.46384   -0.00000
   21 Bend                     2     1     4                91.56404    0.00001
   22 Bend                     2     1     5               100.35936    0.00000
   23 Bend                     2     1     6                46.93879    0.00001
   24 Bend                     2     1     7                39.13929   -0.00001
   25 Bend                     2     6     8               139.02323    0.00000
   26 Bend                     2     6     4                92.13977   -0.00000
   27 Bend                     3     8     6                78.86292   -0.00012
   28 Bend                     4     1     5                39.15612   -0.00000
   29 Bend                     4     1     6                46.93299    0.00000
   30 Bend                     4     1     7               100.43078    0.00001
   31 Bend                     4     6     8               127.64065    0.00000
   32 Bend                     5     1     6                72.91169   -0.00000
   33 Bend                     5     1     7                83.65996    0.00001
   34 Bend                     5     4     6               120.94423   -0.00000
   35 Bend                     6     1     7                72.95285    0.00000
   36 Bend                     6     2     7               121.06874    0.00000
   37 Torsion                  1     2     6     8         150.91111   -0.00001
   38 Torsion                  1     2     6     4         -16.24343    0.00000
   39 Torsion                  1     4     6     8        -153.13654    0.00001
   40 Torsion                  1     4     6     2          16.25423   -0.00000
   41 Torsion                  1     5     4     6          91.40013    0.00001
   42 Torsion                  1     6     8     3         169.90289    0.00002
   43 Torsion                  1     6     2     7          99.61742    0.00001
   44 Torsion                  1     6     4     5         -99.66236   -0.00001
   45 Torsion                  1     7     2     6         -91.35958    0.00000
   46 Torsion                  2     1     4     5         104.55784   -0.00000
   47 Torsion                  2     1     4     6         -16.16321   -0.00000
   48 Torsion                  2     1     5     4         -79.59848   -0.00001
   49 Torsion                  2     1     6     8        -117.43617    0.00000
   50 Torsion                  2     1     6     4         157.61262    0.00000
   51 Torsion                  2     6     8     3          73.60011    0.00003
   52 Torsion                  2     6     1     4        -157.61262   -0.00000
   53 Torsion                  2     6     1     5        -123.00914   -0.00000
   54 Torsion                  2     6     1     7         -34.53195    0.00001
   55 Torsion                  2     6     4     5         -83.40813   -0.00001
   56 Torsion                  2     7     1     4          79.49990    0.00000
   57 Torsion                  2     7     1     5         115.03458    0.00000
   58 Torsion                  2     7     1     6          41.00679    0.00001
   59 Torsion                  3     8     6     4        -122.69381    0.00001
   60 Torsion                  4     1     2     6          16.16164    0.00000
   61 Torsion                  4     1     2     7        -104.67778   -0.00000
   62 Torsion                  4     1     6     8          84.95121    0.00000
   63 Torsion                  4     5     1     6         -41.07445   -0.00000
   64 Torsion                  4     5     1     7        -115.14646   -0.00000
   65 Torsion                  4     6     1     5          34.60348   -0.00000
   66 Torsion                  4     6     1     7         123.08067    0.00001
   67 Torsion                  4     6     2     7          83.37399    0.00001
   68 Torsion                  5     1     2     6          54.57207   -0.00000
   69 Torsion                  5     1     2     7         -66.26735   -0.00000
   70 Torsion                  5     1     4     6        -120.72104    0.00000
   71 Torsion                  5     1     6     8         119.55469    0.00000
   72 Torsion                  5     4     1     6         120.72104   -0.00000
   73 Torsion                  5     4     1     7          66.17819    0.00000
   74 Torsion                  5     4     6     8         107.20109    0.00000
   75 Torsion                  6     1     2     7        -120.83942   -0.00000
   76 Torsion                  6     2     1     7         120.83942    0.00000
   77 Torsion                  6     4     1     7         -54.54286    0.00000
   78 Torsion                  7     1     6     8        -151.96812    0.00001
   79 Torsion                  7     2     6     8        -109.47147   -0.00000
 
  no constraints, skipping   0.000000000000000E+000
  no constraints, skipping   0.000000000000000E+000
  no constraints, skipping   0.000000000000000E+000
  no constraints, skipping   0.000000000000000E+000
  no constraints, skipping   0.000000000000000E+000
  no constraints, skipping   0.000000000000000E+000
  no constraints, skipping   0.000000000000000E+000
  no constraints, skipping   0.000000000000000E+000
 
                                 NWChem DFT Module
                                 -----------------
 
 
 
  Caching 1-el integrals 
   Time after variat. SCF:     42.9
   Time prior to 1st pass:     42.9
 Local filesystem for scratch_dir

           Memory utilization after 1st SCF pass: 
           Heap Space remaining (MW):       25.92            25921610
          Stack Space remaining (MW):       26.21            26213388

   convergence    iter        energy       DeltaE   RMS-Dens  Diis-err    time
 ---------------- ----- ----------------- --------- --------- ---------  ------
 d= 0,ls=0.0,diis     1    -31.9342047917 -5.19D+01  3.52D-04  1.91D-05    43.9
                                                     2.87D-04  1.88D-05
 d= 0,ls=0.0,diis     2    -31.9342167744 -1.20D-05  1.44D-04  7.98D-07    44.8
                                                     3.25D-05  4.57D-07
 d= 0,ls=0.0,diis     3    -31.9342160167  7.58D-07  9.58D-05  1.11D-06    45.6
                                                     1.56D-05  5.79D-07
 d= 0,ls=0.0,diis     4    -31.9342177826 -1.77D-06  1.66D-05  4.27D-08    46.5
                                                     4.29D-06  2.62D-08
 d= 0,ls=0.0,diis     5    -31.9342178506 -6.80D-08  1.88D-06  4.21D-10    47.3
                                                     3.84D-07  2.63D-10
 d= 0,ls=0.0,diis     6    -31.9342178510 -4.39D-10  6.84D-07  7.80D-11    48.2
                                                     1.60D-07  4.94D-11


         Total DFT energy =      -31.934217851048
      One electron energy =      -78.881255785937
           Coulomb energy =       35.351867771540
    Exchange-Corr. energy =       -8.392370496202
 Nuclear repulsion energy =       19.987540659551

 Numeric. integr. density =       15.000001003750

     Total iterative time =      5.3s



     --------------------------
     Expectation value of S2:  
     --------------------------
      <S2> =      0.7511 (Exact =     0.7500)
 
 Line search: 
     step= 1.00 grad=-1.5D-05 hess= 7.1D-06 energy=    -31.934218 mode=accept  
 new step= 1.00                   predicted energy=    -31.934218
  no constraints, skipping   0.000000000000000E+000
  no constraints, skipping   0.000000000000000E+000
  no constraints, skipping   0.000000000000000E+000
  no constraints, skipping   0.000000000000000E+000
  no constraints, skipping   0.000000000000000E+000
  no constraints, skipping   0.000000000000000E+000
  no constraints, skipping   0.000000000000000E+000
  no constraints, skipping   0.000000000000000E+000

          --------
          Step   4
          --------
 
 
                         Geometry "geometry" -> "geometry"
                         ---------------------------------
 
 Output coordinates in angstroms (scale by  1.889725989 to convert to a.u.)
 
  No.       Tag          Charge          X              Y              Z
 ---- ---------------- ---------- -------------- -------------- --------------
    1 li                   3.0000     0.13103751     0.96075210     1.42180884
    2 h                    1.0000    -1.36549429     0.16920072     0.52226337
    3 h                    1.0000    -0.58652641    -3.11290446    -0.94653021
    4 h                    1.0000     1.35415509    -0.20416095     0.51742628
    5 li                   3.0000     2.08216239     0.97707415    -0.72843005
    6 li                   3.0000    -0.17746224    -1.25709385     0.09617622
    7 li                   3.0000    -1.75099278     1.50501654    -0.72095693
    8 h                    1.0000    -0.24930630    -3.37386233    -0.29930822
 
      Atomic Mass 
      ----------- 
 
      li                 7.016000
      h                  1.007825
 

 Effective nuclear repulsion energy (a.u.)      19.9875406596

            Nuclear Dipole moment (a.u.) 
            ----------------------------
        X                 Y               Z
 ---------------- ---------------- ----------------
     0.0133466158     0.0671226950    -0.0006700375
 
 
                                 NWChem DFT Module
                                 -----------------
 
 
 

  The DFT is already converged 

         Total DFT energy =    -31.934217851048

  int_init: cando_txs set to always be  F
  intd_init: cando_txs set to always be  F


                         DFT ENERGY GRADIENTS

    atom               coordinates                        gradient
                 x          y          z           x          y          z
   1 li      0.247625   1.815558   2.686829    0.000014  -0.000013   0.000023
   2 h      -2.580410   0.319743   0.986935    0.000017  -0.000048   0.000036
   3 h      -1.108374  -5.882536  -1.788683    0.000011  -0.000091  -0.000169
   4 h       2.558982  -0.385808   0.977794   -0.000004   0.000012  -0.000005
   5 li      3.934716   1.846402  -1.376533    0.000002   0.000011  -0.000010
   6 li     -0.335355  -2.375563   0.181747    0.000009   0.000143   0.000034
   7 li     -3.308897   2.844069  -1.362411   -0.000004   0.000007  -0.000021
   8 h      -0.471121  -6.375675  -0.565611   -0.000044  -0.000020   0.000113
 
  no constraints, skipping   0.000000000000000E+000

  Step       Energy      Delta E   Gmax     Grms     Xrms     Xmax   Walltime
  ---- ---------------- -------- -------- -------- -------- -------- --------
@    4     -31.93421785 -7.9D-06  0.00012  0.00002  0.01227  0.04105     50.8
                                                                    



                                Z-matrix (autoz)
                                -------- 

 Units are Angstrom for bonds and degrees for angles
 
      Type          Name      I     J     K     L     M      Value     Gradient
      ----------- --------  ----- ----- ----- ----- ----- ---------- ----------
    1 Stretch                  1     2                       1.91712    0.00000
    2 Stretch                  1     4                       1.91597   -0.00001
    3 Stretch                  1     5                       2.90356    0.00000
    4 Stretch                  1     6                       2.60217   -0.00001
    5 Stretch                  1     7                       2.90340    0.00001
    6 Stretch                  2     6                       1.90454   -0.00002
    7 Stretch                  2     7                       1.86510    0.00001
    8 Stretch                  3     8                       0.77506    0.00010
    9 Stretch                  4     5                       1.86480    0.00001
   10 Stretch                  4     6                       1.90577    0.00000
   11 Stretch                  6     8                       2.15459    0.00012
   12 Bend                     1     2     6                85.82757    0.00000
   13 Bend                     1     2     7               100.27635   -0.00000
   14 Bend                     1     4     5               100.33734    0.00000
   15 Bend                     1     4     6                85.82550   -0.00000
   16 Bend                     1     5     4                40.47816   -0.00000
   17 Bend                     1     6     8               159.19636   -0.00000
   18 Bend                     1     6     2                47.28899    0.00001
   19 Bend                     1     6     4                47.25171   -0.00000
   20 Bend                     1     7     2                40.51975   -0.00000
   21 Bend                     2     1     4                91.47910   -0.00000
   22 Bend                     2     1     5               100.33457   -0.00000
   23 Bend                     2     1     6                46.88344   -0.00001
   24 Bend                     2     1     7                39.20391    0.00000
   25 Bend                     2     6     8               139.11351   -0.00001
   26 Bend                     2     6     4                92.18413    0.00000
   27 Bend                     3     8     6                80.61911    0.00011
   28 Bend                     4     1     5                39.18450    0.00000
   29 Bend                     4     1     6                46.92279    0.00000
   30 Bend                     4     1     7               100.33601   -0.00000
   31 Bend                     4     6     8               127.60162    0.00000
   32 Bend                     5     1     6                72.97409    0.00000
   33 Bend                     5     1     7                83.56881   -0.00000
   34 Bend                     5     4     6               121.06753   -0.00000
   35 Bend                     6     1     7                72.95938   -0.00001
   36 Bend                     6     2     7               121.07583   -0.00000
   37 Torsion                  1     2     6     8         151.33180   -0.00000
   38 Torsion                  1     2     6     4         -16.32999    0.00000
   39 Torsion                  1     4     6     8        -153.49160    0.00001
   40 Torsion                  1     4     6     2          16.34008    0.00000
   41 Torsion                  1     5     4     6          91.34689   -0.00000
[...]
   22   -5.86963D-01 -2.01015D-01  3.82393D-02 -4.84397D-03 -2.75529D-02 -1.42608D-01 -4.05479D-01 -1.48878D-01 -1.95992D-02  6.30475D-03
   23   -1.50427D-02  1.50095D-02 -1.82834D-02 -1.44859D-02  6.31762D-03  4.83150D-01 -1.53000D+00 -4.71523D-01 -1.97136D-03  1.07221D-02
   24   -5.82024D-02 -3.45528D-02 -2.49413D-03  2.70054D-03  1.71342D-02  1.72196D-01 -5.45874D-01 -2.75953D-01 -1.24831D-02  1.84765D-02


              21           22           23           24
   ----- ----- ----- ----- -----
   21    1.91284D+00
   22   -1.53947D-02  3.32931D+02
   23   -8.99551D-03 -4.50798D+01  1.36272D+01
   24    1.19424D-02  6.82599D+00  1.58689D+00  1.24803D+00

 center of mass
 --------------
 x =   0.07791703 y =   0.51576163 z =   0.01939574

 moments of inertia (a.u.)
 ------------------
         292.500981783725          -1.291103512098          -2.427345113147
          -1.291103512098         283.482210670311           0.456647057156
          -2.427345113147           0.456647057156         414.571010268443

 Rotational Constants
 --------------------
 A=   0.212496 cm-1  (  0.305727 K)
 B=   0.205720 cm-1  (  0.295978 K)
 C=   0.145193 cm-1  (  0.208896 K)


 Temperature                      =   298.15K
 frequency scaling parameter      =   1.0000

 Zero-Point correction to Energy  =   16.715 kcal/mol  (  0.026637 au)
 Thermal correction to Energy     =   22.540 kcal/mol  (  0.035920 au)
 Thermal correction to Enthalpy   =   23.132 kcal/mol  (  0.036864 au)

 Total Entropy                    =   88.200 cal/mol-K
   - Translational                =   36.314 cal/mol-K (mol. weight =  32.0953)
   - Rotational                   =   25.034 cal/mol-K (symmetry #  =        1)
   - Vibrational                  =   26.852 cal/mol-K

 Cv (constant volume heat capacity) =   28.997 cal/mol-K
   - Translational                  =    2.979 cal/mol-K
   - Rotational                     =    2.979 cal/mol-K
   - Vibrational                    =   23.038 cal/mol-K



          -------------------------------------------------
          NORMAL MODE EIGENVECTORS IN CARTESIAN COORDINATES
          -------------------------------------------------
             (Projected Frequencies expressed in cm-1)

                    1           2           3           4           5           6
 
 P.Frequency       -0.00       -0.00       -0.00       -0.00       -0.00        0.00
 
           1    -0.11853    -0.01231     0.05524     0.17350    -0.09994     0.05188
           2     0.02470     0.07133     0.01748    -0.03693    -0.16345    -0.14509
           3     0.03039     0.02162    -0.09964    -0.02685    -0.05104     0.14977
           4    -0.14008     0.01546    -0.02379     0.10537    -0.04961     0.00985
           5     0.07178    -0.07166    -0.00137     0.01652    -0.17985    -0.09068
           6     0.02388     0.10142     0.04265     0.03535    -0.11701     0.16953
           7    -0.28776     0.16566    -0.11052    -0.10917     0.06085    -0.03330
           8     0.00908    -0.12866    -0.01620    -0.04933    -0.15047    -0.01848
           9     0.13866     0.34840     0.04384     0.12614    -0.15012    -0.06955
          10    -0.16036     0.03450    -0.01769     0.08590    -0.04372     0.01362
          11    -0.06573     0.06609     0.00851    -0.13358    -0.12342    -0.08596
          12     0.09297     0.09537    -0.19138    -0.02107    -0.02505     0.01542
          13    -0.07353    -0.03947    -0.12900     0.12195    -0.02500    -0.04840
          14    -0.14204     0.01079    -0.00728    -0.21404    -0.08808    -0.00632
          15     0.07230    -0.00478    -0.27608    -0.07739     0.02118     0.05478
          16    -0.20523     0.08089    -0.05254     0.01599    -0.00578    -0.00407
          17    -0.00122    -0.04174    -0.00310    -0.06223    -0.14858    -0.06291
          18     0.09328     0.19489    -0.04136     0.05015    -0.09664     0.02130
          19    -0.04491    -0.06633    -0.13763     0.14941    -0.03329    -0.05373
          20     0.05198    -0.18359    -0.02121    -0.00224    -0.16771    -0.01295
          21    -0.02519     0.00377     0.05415     0.00223    -0.10858     0.27224
          22    -0.29350     0.17105    -0.10882    -0.11470     0.06253    -0.03225
          23    -0.02975    -0.08979    -0.01342    -0.09172    -0.13453    -0.01713
          24     0.15818     0.34672    -0.02222     0.11022    -0.12417    -0.11308

                    7           8           9          10          11          12
 
 P.Frequency       72.44       76.45       84.68       93.73      161.44      223.75
 
           1    -0.00864     0.01459     0.00391     0.00873     0.00421     0.12314
           2    -0.06015     0.09768     0.01519    -0.00360     0.00436    -0.01656
           3     0.01676    -0.06896    -0.14338    -0.01200    -0.14428     0.00210
           4    -0.03753    -0.03178    -0.00509     0.01049     0.00624    -0.04741
           5     0.04732     0.03477    -0.05036    -0.01548    -0.05652     0.03822
           6    -0.03697     0.03941    -0.08646    -0.00172    -0.10207     0.15137
           7     0.43602     0.33004    -0.11056    -0.04850    -0.02200     0.01006
           8    -0.27385     0.06223    -0.14222     0.23453    -0.12989    -0.05708
           9     0.17922    -0.43420     0.31954    -0.60814    -0.11837    -0.01425
          10    -0.05505    -0.03000     0.01195     0.01532    -0.01540    -0.05001
          11    -0.04903    -0.02902    -0.03583     0.00484    -0.05305    -0.02512
          12    -0.04800     0.03167    -0.08187    -0.01602    -0.10171    -0.15351
          13    -0.05139     0.08102     0.18623     0.01788    -0.05893     0.08581
          14    -0.02814    -0.13601     0.02314     0.02368     0.13520     0.14306
          15    -0.02587     0.01514     0.10264     0.00130     0.02276     0.02817
          16    -0.09587    -0.06664     0.01505     0.02086    -0.02876    -0.24508
          17     0.01057     0.00119    -0.03119    -0.00311    -0.19810     0.03352
          18    -0.08364     0.09877    -0.08403    -0.01365     0.15808    -0.00506
          19     0.04152    -0.11610    -0.17538    -0.02404     0.09124     0.04519
          20     0.13488     0.00603     0.04285    -0.01348     0.11259    -0.16102
          21     0.02356     0.04370     0.08400     0.01647     0.02480    -0.02496
          22     0.45277     0.33833    -0.10379    -0.14045    -0.02284     0.02436
          23    -0.12238     0.14861    -0.11960    -0.24829    -0.13673     0.05095
          24     0.38739    -0.25406     0.13262     0.68079    -0.10496     0.01462

                   13          14          15          16          17          18
 
 P.Frequency      280.79      287.37      332.64      448.99      565.59      624.76
 
           1     0.23356    -0.02616     0.01605    -0.01433    -0.00275     0.02130
           2    -0.03066    -0.17457     0.15882    -0.11667    -0.00027    -0.00300
           3     0.00647     0.11287     0.17511    -0.10319     0.00009     0.00031
           4     0.11108    -0.02619     0.04069    -0.05217     0.01602     0.17904
           5     0.11397     0.05114     0.05184     0.06097     0.00307    -0.20511
           6    -0.08758    -0.03869     0.01238     0.09562    -0.00660    -0.60531
           7     0.00160     0.01101    -0.06598    -0.05388    -0.21176    -0.01023
           8     0.00169     0.07290    -0.45909    -0.39308    -0.62862    -0.00831
           9     0.00027     0.01720    -0.16520    -0.14198    -0.22720    -0.00180
          10     0.07255     0.04024    -0.02696     0.06182     0.01453     0.20362
          11    -0.13733     0.04182     0.06357     0.04553    -0.01017     0.15349
          12     0.09279    -0.03780     0.00993     0.09784     0.00299     0.61510
          13    -0.14590     0.14519     0.04654    -0.01356    -0.00115     0.01262
          14    -0.00767     0.06308     0.01016    -0.00459    -0.00065     0.02277
          15     0.13000    -0.11698    -0.04077     0.01173    -0.00004    -0.05199
          16     0.02050    -0.00632    -0.00796     0.02979     0.03747    -0.09026
          17    -0.00257    -0.02185    -0.07304     0.22796    -0.00409     0.01228
          18    -0.00011     0.13307    -0.04954     0.09250     0.00115    -0.00196
          19    -0.13477    -0.11785    -0.03797     0.01183    -0.00135     0.00395
          20     0.04552     0.09910     0.01954    -0.00864     0.00122    -0.02493
          21    -0.13650    -0.12231    -0.04041     0.01255    -0.00011     0.05226
          22     0.00005     0.01069    -0.06381    -0.05135    -0.04303    -0.00773
          23    -0.01041     0.07251    -0.46030    -0.39603     0.66205     0.01033
          24    -0.00454     0.01307    -0.16609    -0.14610     0.22322     0.00154

                   19          20          21          22          23          24
 
 P.Frequency      682.18      746.64      814.03      896.50     1073.24     4232.83
 
           1    -0.00187    -0.09988     0.00673    -0.02742    -0.00112    -0.00000
           2    -0.02230     0.01373     0.05201     0.00372    -0.00607    -0.00002
           3    -0.06445    -0.00205     0.02146    -0.00058     0.01383     0.00002
           4    -0.11741     0.51496    -0.51768     0.38615    -0.45553     0.00035
           5     0.23694     0.42903    -0.44168    -0.48268     0.44483    -0.00099
           6     0.59690     0.02546     0.09012     0.26996    -0.26324    -0.00028
           7     0.00129     0.00875     0.00090    -0.00546    -0.00097    -0.69743
           8     0.01629     0.00762     0.00249    -0.00542    -0.00044     0.09760
           9     0.00606     0.00452     0.00218    -0.00283    -0.00073    -0.01322
          10     0.15267     0.38137     0.37737     0.50970     0.56959    -0.00061
          11     0.19924    -0.55233    -0.56248     0.36100     0.30521    -0.00090
          12     0.60026    -0.00743     0.10757    -0.25185    -0.24280    -0.00029
          13     0.01131     0.00129     0.00661    -0.02535    -0.01869     0.00003
          14     0.02371     0.02912     0.02945    -0.03880    -0.03126     0.00000
          15    -0.02255    -0.01772    -0.02420     0.03883     0.02954    -0.00002
          16    -0.01155    -0.02507     0.00424    -0.06205    -0.00488    -0.00003
          17    -0.09537     0.00349     0.03209     0.00856    -0.03532    -0.00018
          18    -0.06393    -0.00048    -0.00186    -0.00130    -0.00049    -0.00007
          19    -0.00356    -0.00729     0.00245    -0.01249     0.00837    -0.00002
          20     0.02588    -0.02831     0.03024     0.04410    -0.03494     0.00001
          21    -0.02297     0.01763    -0.02443    -0.03952     0.03001    -0.00002
          22     0.00293     0.00649    -0.00000    -0.00413     0.00052     0.69786
          23     0.02144    -0.00988     0.00064     0.00475    -0.00057    -0.09443
          24     0.00729    -0.00434     0.00226     0.00264    -0.00069     0.01438



 ----------------------------------------------------------------------------
 Normal Eigenvalue ||    Projected Derivative Dipole Moments (debye/angs)
  Mode   [cm**-1]  ||      [d/dqX]             [d/dqY]           [d/dqZ]
 ------ ---------- || ------------------ ------------------ -----------------
    1       -0.000 ||      -0.614              -0.086             0.253
    2       -0.000 ||       0.027              -0.246             0.385
    3       -0.000 ||       0.386               0.031             0.386
    4       -0.000 ||       0.417              -0.388            -0.002
    5       -0.000 ||       0.145               0.687             0.322
    6        0.000 ||      -0.102              -0.224             0.491
    7       72.441 ||      -0.072               0.032             0.010
    8       76.446 ||      -0.037              -0.166            -0.178
    9       84.677 ||      -0.047              -0.335            -0.447
   10       93.729 ||       0.032               0.005            -0.013
   11      161.442 ||      -0.081              -0.525            -0.498
   12      223.750 ||       0.236              -0.038            -0.000
   13      280.790 ||      -1.222               0.169            -0.021
   14      287.374 ||      -0.025              -0.154             0.609
   15      332.642 ||       0.085               0.272            -0.303
   16      448.988 ||      -0.088              -0.940             0.030
   17      565.591 ||      -0.427               0.004            -0.055
   18      624.756 ||      -1.092               0.150            -0.023
   19      682.183 ||       0.088               0.480            -0.955
   20      746.637 ||      -2.851               0.394            -0.056
   21      814.025 ||       0.431               2.887            -1.680
   22      896.497 ||      -0.350               0.044            -0.004
   23     1073.237 ||      -0.328              -2.199             1.435
   24     4232.831 ||      -0.115              -0.868            -0.090
 ----------------------------------------------------------------------------



  
  
 ----------------------------------------------------------------------------
 Normal Eigenvalue ||           Projected Infra Red Intensities
  Mode   [cm**-1]  || [atomic units] [(debye/angs)**2] [(KM/mol)] [arbitrary]
 ------ ---------- || -------------- ----------------- ---------- -----------
    1       -0.000 ||    0.019404           0.448        18.916       2.967
    2       -0.000 ||    0.009078           0.209         8.850       1.388
    3       -0.000 ||    0.012943           0.299        12.617       1.979
    4       -0.000 ||    0.014075           0.325        13.721       2.152
    5       -0.000 ||    0.025842           0.596        25.192       3.951
    6        0.000 ||    0.013089           0.302        12.759       2.001
    7       72.441 ||    0.000274           0.006         0.267       0.042
    8       76.446 ||    0.002630           0.061         2.564       0.402
    9       84.677 ||    0.013647           0.315        13.304       2.086
   10       93.729 ||    0.000053           0.001         0.051       0.008
   11      161.442 ||    0.022989           0.530        22.411       3.515
   12      223.750 ||    0.002484           0.057         2.422       0.380
   13      280.790 ||    0.066014           1.523        64.354      10.093
   14      287.374 ||    0.017120           0.395        16.690       2.618
   15      332.642 ||    0.007478           0.173         7.290       1.143
   16      448.988 ||    0.038686           0.893        37.713       5.915
   17      565.591 ||    0.008026           0.185         7.825       1.227
   18      624.756 ||    0.052725           1.216        51.399       8.061
   19      682.183 ||    0.049813           1.149        48.560       7.616
   20      746.637 ||    0.359183           8.287       350.149      54.916
   21      814.025 ||    0.491683          11.344       479.317      75.174
   22      896.497 ||    0.005406           0.125         5.270       0.826
   23     1073.237 ||    0.303536           7.003       295.902      46.408
   24     4232.831 ||    0.033573           0.775        32.729       5.133
 ----------------------------------------------------------------------------



 vib:animation  F

 Task  times  cpu:      334.8s     wall:      334.8s
 
 
                                NWChem Input Module
                                -------------------
 
 
 Summary of allocated global arrays
-----------------------------------
  No active global arrays


MA_summarize_allocated_blocks: starting scan ...
MA_summarize_allocated_blocks: scan completed: 0 heap blocks, 0 stack blocks
MA usage statistics:

	allocation statistics:
					      heap	     stack
					      ----	     -----
	current number of blocks	         0	         0
	maximum number of blocks	        28	        70
	current total bytes		         0	         0
	maximum total bytes		   2654888	  42965080
	maximum total K-bytes		      2655	     42966
	maximum total M-bytes		         3	        43
 
 
                                     CITATION
                                     --------
                Please cite the following reference when publishing
                           results obtained with NWChem:
 
          E. Apra, E. J. Bylaska, W. A. de Jong, N. Govind, K. Kowalski,
       T. P. Straatsma, M. Valiev, H. J. J. van Dam, Y. Alexeev, J. Anchell,
       V. Anisimov, F. W. Aquino, R. Atta-Fynn, J. Autschbach, N. P. Bauman,
     J. C. Becca, D. E. Bernholdt, K. Bhaskaran-Nair, S. Bogatko, P. Borowski,
         J. Boschen, J. Brabec, A. Bruner, E. Cauet, Y. Chen, G. N. Chuev,
      C. J. Cramer, J. Daily, M. J. O. Deegan, T. H. Dunning Jr., M. Dupuis,
   K. G. Dyall, G. I. Fann, S. A. Fischer, A. Fonari, H. Fruchtl, L. Gagliardi,
      J. Garza, N. Gawande, S. Ghosh, K. Glaesemann, A. W. Gotz, J. Hammond,
       V. Helms, E. D. Hermes, K. Hirao, S. Hirata, M. Jacquelin, L. Jensen,
   B. G. Johnson, H. Jonsson, R. A. Kendall, M. Klemm, R. Kobayashi, V. Konkov,
      S. Krishnamoorthy, M. Krishnan, Z. Lin, R. D. Lins, R. J. Littlefield,
      A. J. Logsdail, K. Lopata, W. Ma, A. V. Marenich, J. Martin del Campo,
   D. Mejia-Rodriguez, J. E. Moore, J. M. Mullin, T. Nakajima, D. R. Nascimento,
    J. A. Nichols, P. J. Nichols, J. Nieplocha, A. Otero-de-la-Roza, B. Palmer,
    A. Panyala, T. Pirojsirikul, B. Peng, R. Peverati, J. Pittner, L. Pollack,
   R. M. Richard, P. Sadayappan, G. C. Schatz, W. A. Shelton, D. W. Silverstein,
   D. M. A. Smith, T. A. Soares, D. Song, M. Swart, H. L. Taylor, G. S. Thomas,
            V. Tipparaju, D. G. Truhlar, K. Tsemekhman, T. Van Voorhis,
      A. Vazquez-Mayagoitia, P. Verma, O. Villa, A. Vishnu, K. D. Vogiatzis,
        D. Wang, J. H. Weare, M. J. Williamson, T. L. Windus, K. Wolinski,
        A. T. Wong, Q. Wu, C. Yang, Q. Yu, M. Zacharias, Z. Zhang, Y. Zhao,
                                and R. J. Harrison
                        "NWChem: Past, present, and future
                         J. Chem. Phys. 152, 184102 (2020)
                               doi:10.1063/5.0004997
 
                                      AUTHORS
                                      -------
        E. Apra, E. J. Bylaska, N. Govind, K. Kowalski, D. Mejia-Rodriguez,
        N. P. Bauman, A. Panyala, R. J. Harrison, M. Valiev, W. A. de Jong,
       T. P. Straatsma, H. J. J. van Dam, D. Wang, T. L. Windus, J. Hammond,
     J. Autschbach, R. de P. Soares, A. Kunitsa, K. Bhaskaran-Nair, J. Brabec,
      K. Lopata, S. A. Fischer, S. Krishnamoorthy, M. Jacquelin, R. Goswami,
       A. Woods, W. Ma, M. Klemm, O. Villa, Y. Chen, V. Anisimov, F. Aquino,
     S. Hirata, M. T. Hackler, E. Hermes, L. Jensen, J. E. Moore, J. C. Becca,
      V. Konjkov, T. Risthaus, M. Malagoli, A. Marenich, A. Otero-de-la-Roza,
        J. Mullin, P. Nichols, R. Peverati, J. Pittner, Y. Zhao, P.-D. Fan,
        A. Fonari, M. J. Williamson, J. R. Rehr, M. Dupuis, D. Silverstein,
    D. M. A. Smith, J. Nieplocha, V. Tipparaju, M. Krishnan, B. E. Van Kuiken,
        A. Vazquez-Mayagoitia, M. Swart, Q. Wu, T. Van Voorhis, A. A. Auer,
     M. Nooijen, L. D. Crosby, E. Brown, G. Cisneros, G. I. Fann, H. Fruchtl,
   J. Garza, K. Hirao, R. A. Kendall, J. A. Nichols, K. Tsemekhman, K. Wolinski,
     J. Anchell, D. E. Bernholdt, P. Borowski, T. Clark, D. Clerc, H. Dachsel,
   M. J. O. Deegan, K. Dyall, D. Elwood, E. Glendening, M. Gutowski, A. C. Hess,
         J. Jaffe, B. G. Johnson, J. Ju, R. Kobayashi, R. Kutteh, Z. Lin,
   R. Littlefield, X. Long, B. Meng, T. Nakajima, S. Niu, L. Pollack, M. Rosing,
   K. Glaesemann, G. Sandrone, M. Stave, H. Taylor, G. Thomas, J. H. van Lenthe,
                               A. T. Wong, Z. Zhang.

 Total times  cpu:      812.9s     wall:      812.9s
