All connections between all procs tested: SUCCESS
 argument  1 = cosmo_h3co_gp.nw



============================== echo of input deck ==============================
echo

start h3cona_dat

geometry
    o      0.00000000     0.00000000     0.27851507
    c      0.00000000     0.00000000     1.63192657
    h      0.26167571    -0.97658705     2.06772417
    h     -0.97658705     0.26167571     2.06772417
    h      0.71491134     0.71491134     2.06772417
end
charge -1

basis
  * library 6-31g*
end

cosmo
end

dft
  xc b3lyp
end

driver
end

task dft energy
cosmo
  do_gasphase off
end
task dft optimize
task dft energy
cosmo
  do_gasphase on
end
task dft optimize
================================================================================


                                         
                                         


              Northwest Computational Chemistry Package (NWChem) 6.3
              ------------------------------------------------------


                    Environmental Molecular Sciences Laboratory
                       Pacific Northwest National Laboratory
                                Richland, WA 99352

                              Copyright (c) 1994-2013
                       Pacific Northwest National Laboratory
                            Battelle Memorial Institute

             NWChem is an open-source computational chemistry package
                        distributed under the terms of the
                      Educational Community License (ECL) 2.0
             A copy of the license is included with this distribution
                              in the LICENSE.TXT file

                                  ACKNOWLEDGMENT
                                  --------------

            This software and its documentation were developed at the
            EMSL at Pacific Northwest National Laboratory, a multiprogram
            national laboratory, operated for the U.S. Department of Energy
            by Battelle under Contract Number DE-AC05-76RL01830. Support
            for this work was provided by the Department of Energy Office
            of Biological and Environmental Research, Office of Basic
            Energy Sciences, and the Office of Advanced Scientific Computing.


           Job information
           ---------------

    hostname        = arcen
    program         = /home/d3y133/nwchem-dev/nwchem-dev-2013-09-10/QA/../bin/LINUX64/nwchem
    date            = Tue Oct 15 15:16:00 2013

    compiled        = Tue_Oct_15_14:55:44_2013
    source          = /home/d3y133/nwchem-dev/nwchem-dev-2013-09-10
    nwchem branch   = Development
    nwchem revision = 24582
    ga revision     = 10418
    input           = cosmo_h3co_gp.nw
    prefix          = h3cona_dat.
    data base       = /home/d3y133/nwchem-dev/nwchem-dev-2013-09-10/QA/scratchdir/h3cona_dat.db
    status          = startup
    nproc           =        4
    time left       =     -1s



           Memory information
           ------------------

    heap     =   13107201 doubles =    100.0 Mbytes
    stack    =   13107201 doubles =    100.0 Mbytes
    global   =   26214400 doubles =    200.0 Mbytes (distinct from heap & stack)
    total    =   52428802 doubles =    400.0 Mbytes
    verify   = yes
    hardfail = no 


           Directory information
           ---------------------

  0 permanent = /home/d3y133/nwchem-dev/nwchem-dev-2013-09-10/QA/scratchdir
  0 scratch   = /home/d3y133/nwchem-dev/nwchem-dev-2013-09-10/QA/scratchdir




                                NWChem Input Module
                                -------------------



 Scaling coordinates for geometry "geometry" by  1.889725989
 (inverse scale =  0.529177249)

 C3V symmetry detected

          ------
          auto-z
          ------
  Looking for out-of-plane bends


                             Geometry "geometry" -> ""
                             -------------------------

 Output coordinates in angstroms (scale by  1.889725989 to convert to a.u.)

  No.       Tag          Charge          X              Y              Z
 ---- ---------------- ---------- -------------- -------------- --------------
    1 o                    8.0000     0.00000000     0.00000000    -0.79341743
    2 c                    6.0000     0.00000000     0.00000000     0.55999407
    3 h                    1.0000     0.71491134     0.71491134     0.99579167
    4 h                    1.0000     0.26167571    -0.97658705     0.99579167
    5 h                    1.0000    -0.97658705     0.26167571     0.99579167

      Atomic Mass 
      ----------- 

      o                 15.994910
      c                 12.000000
      h                  1.007825


 Effective nuclear repulsion energy (a.u.)      34.5058725513

            Nuclear Dipole moment (a.u.) 
            ----------------------------
        X                 Y               Z
 ---------------- ---------------- ----------------
     0.0000000000     0.0000000000     0.0000000000

      Symmetry information
      --------------------

 Group name             C3v       
 Group number             17
 Group order               6
 No. of unique centers     3

      Symmetry unique atoms

     1    2    3



                                Z-matrix (autoz)
                                -------- 

 Units are Angstrom for bonds and degrees for angles

      Type          Name      I     J     K     L     M      Value
      ----------- --------  ----- ----- ----- ----- ----- ----------
    1 Stretch                  1     2                       1.35341
    2 Stretch                  2     3                       1.10096
    3 Stretch                  2     4                       1.10096
    4 Stretch                  2     5                       1.10096
    5 Bend                     1     2     3               113.31798
    6 Bend                     1     2     4               113.31798
    7 Bend                     1     2     5               113.31798
    8 Bend                     3     2     4               105.36538
    9 Bend                     3     2     5               105.36538
   10 Bend                     4     2     5               105.36538


            XYZ format geometry
            -------------------
     5
 geometry
 o                     0.00000000     0.00000000    -0.79341743
 c                     0.00000000     0.00000000     0.55999407
 h                     0.71491134     0.71491134     0.99579167
 h                     0.26167571    -0.97658705     0.99579167
 h                    -0.97658705     0.26167571     0.99579167

 ==============================================================================
                                internuclear distances
 ------------------------------------------------------------------------------
       center one      |      center two      | atomic units |  angstroms
 ------------------------------------------------------------------------------
    2 c                |   1 o                |     2.55758  |     1.35341
    3 h                |   2 c                |     2.08052  |     1.10096
    4 h                |   2 c                |     2.08052  |     1.10096
    5 h                |   2 c                |     2.08052  |     1.10096
 ------------------------------------------------------------------------------
                         number of included internuclear distances:          4
 ==============================================================================



 ==============================================================================
                                 internuclear angles
 ------------------------------------------------------------------------------
        center 1       |       center 2       |       center 3       |  degrees
 ------------------------------------------------------------------------------
    1 o                |   2 c                |   3 h                |   113.32
    1 o                |   2 c                |   4 h                |   113.32
    1 o                |   2 c                |   5 h                |   113.32
    3 h                |   2 c                |   4 h                |   105.37
    3 h                |   2 c                |   5 h                |   105.37
    4 h                |   2 c                |   5 h                |   105.37
 ------------------------------------------------------------------------------
                            number of included internuclear angles:          6
 ==============================================================================



  library name resolved from: environment
  library file name is: </home/d3y133/nwchem-dev/nwchem-dev-2013-09-10/QA/../src/basis/libraries/>
  


 Summary of "ao basis" -> "" (cartesian)
 ------------------------------------------------------------------------------
       Tag                 Description            Shells   Functions and Types
 ---------------- ------------------------------  ------  ---------------------
 *                           6-31g*                   on all atoms 



                                 NWChem DFT Module
                                 -----------------


                      Basis "ao basis" -> "ao basis" (cartesian)
                      -----
  o (Oxygen)
  ----------
            Exponent  Coefficients 
       -------------- ---------------------------------------------------------
  1 S  5.48467170E+03  0.001831
  1 S  8.25234950E+02  0.013950
  1 S  1.88046960E+02  0.068445
  1 S  5.29645000E+01  0.232714
  1 S  1.68975700E+01  0.470193
  1 S  5.79963530E+00  0.358521

  2 S  1.55396160E+01 -0.110778
  2 S  3.59993360E+00 -0.148026
  2 S  1.01376180E+00  1.130767

  3 P  1.55396160E+01  0.070874
  3 P  3.59993360E+00  0.339753
  3 P  1.01376180E+00  0.727159

  4 S  2.70005800E-01  1.000000

  5 P  2.70005800E-01  1.000000

  6 D  8.00000000E-01  1.000000

  c (Carbon)
  ----------
            Exponent  Coefficients 
       -------------- ---------------------------------------------------------
  1 S  3.04752490E+03  0.001835
  1 S  4.57369510E+02  0.014037
  1 S  1.03948690E+02  0.068843
  1 S  2.92101550E+01  0.232184
  1 S  9.28666300E+00  0.467941
  1 S  3.16392700E+00  0.362312

  2 S  7.86827240E+00 -0.119332
  2 S  1.88128850E+00 -0.160854
  2 S  5.44249300E-01  1.143456

  3 P  7.86827240E+00  0.068999
  3 P  1.88128850E+00  0.316424
  3 P  5.44249300E-01  0.744308

  4 S  1.68714400E-01  1.000000

  5 P  1.68714400E-01  1.000000

  6 D  8.00000000E-01  1.000000

  h (Hydrogen)
  ------------
            Exponent  Coefficients 
       -------------- ---------------------------------------------------------
  1 S  1.87311370E+01  0.033495
  1 S  2.82539370E+00  0.234727
  1 S  6.40121700E-01  0.813757

  2 S  1.61277800E-01  1.000000



 Summary of "ao basis" -> "ao basis" (cartesian)
 ------------------------------------------------------------------------------
       Tag                 Description            Shells   Functions and Types
 ---------------- ------------------------------  ------  ---------------------
 o                           6-31g*                  6       15   3s2p1d
 c                           6-31g*                  6       15   3s2p1d
 h                           6-31g*                  2        2   2s




 Summary of "ao basis" -> "ao basis" (cartesian)
 ------------------------------------------------------------------------------
       Tag                 Description            Shells   Functions and Types
 ---------------- ------------------------------  ------  ---------------------
 o                           6-31g*                  6       15   3s2p1d
 c                           6-31g*                  6       15   3s2p1d
 h                           6-31g*                  2        2   2s


      Symmetry analysis of basis
      --------------------------

        a1         16
        a2          0
        e          20


          ---------------
          -cosmo- solvent
          ---------------
 dielectric constant -eps-     =  78.40
 charge screening approach     =   2
 screen = (eps-1)/(eps    )    =   0.98724
 -lineq- algorithm             =   1
 -bem- low  level              =   2
 -bem- high level              =   4
 -bem- from -octahedral-
 solvent radius (ang.)         =   0.000
 gaussian surface charge width =   1.00000
 degree of switching           =   1.00000
 switching function tolerance  =   0.00010
 atomic radii = 
 --------------
    1  8.000  1.720
    2  6.000  2.000
    3  1.000  1.300
    4  1.000  1.300
    5  1.000  1.300

 solvent accessible surface
 --------------------------

 ---------- ATOMIC COORDINATES (A.U.) ------------ VDWR(ANG.) --
     1    0.00000000    0.00000000   -1.49934154     1.720
     2    0.00000000    0.00000000    1.05823535     2.000
     3    1.35098654    1.35098654    1.88177340     1.300
     4    0.49449539   -1.84548193    1.88177340     1.300
     5   -1.84548193    0.49449539    1.88177340     1.300
 number of segments per atom =         32
 number of   points per atom =         32
 atom (   nspa,  nppa )
 ----------------------
    1 (     24,     0 )       0
    2 (     25,     0 )       0
    3 (     15,     0 )       0
    4 (     15,     0 )       0
    5 (     15,     0 )       0
 number of -cosmo- surface points =       94
 molecular surface =     63.480 angstrom**2
 molecular volume  =     35.859 angstrom**3
 G(cav/disp)       =      1.177 kcal/mol
 ...... end of -cosmo- initialization ......


  Caching 1-el integrals 
  Rotation of axis 

            General Information
            -------------------
          SCF calculation type: DFT
          Wavefunction type:  closed shell.
          No. of atoms     :     5
          No. of electrons :    18
           Alpha electrons :     9
            Beta electrons :     9
          Charge           :    -1
          Spin multiplicity:     1
          Use of symmetry is: on ; symmetry adaption is: on 
          Maximum number of iterations:  30
          AO basis - number of functions:    36
                     number of shells:    18
          Convergence on energy requested: 1.00D-06
          Convergence on density requested: 1.00D-05
          Convergence on gradient requested: 5.00D-04

              XC Information
              --------------
                         B3LYP Method XC Potential
                     Hartree-Fock (Exact) Exchange  0.200          
                        Slater Exchange Functional  0.800 local    
                    Becke 1988 Exchange Functional  0.720 non-local
              Lee-Yang-Parr Correlation Functional  0.810          
                  VWN I RPA Correlation Functional  0.190 local    

             Grid Information
             ----------------
          Grid used for XC integration:  medium    
          Radial quadrature: Mura-Knowles        
          Angular quadrature: Lebedev. 
          Tag              B.-S. Rad. Rad. Pts. Rad. Cut. Ang. Pts.
          ---              ---------- --------- --------- ---------
          o                   0.60       49           7.0       434
          c                   0.70       49           6.0       434
          h                   0.35       45           6.0       434
          Grid pruning is: on 
          Number of quadrature shells:   143
          Spatial weights used:  Erf1

          Convergence Information
          -----------------------
          Convergence aids based upon iterative change in 
          total energy or number of iterations. 
          Levelshifting, if invoked, occurs when the 
          HOMO/LUMO gap drops below (HL_TOL): 1.00D-02
          DIIS, if invoked, will attempt to extrapolate 
          using up to (NFOCK): 10 stored Fock matrices.

                    Damping( 0%)  Levelshifting(0.5)       DIIS
                  --------------- ------------------- ---------------
          dE  on:    start            ASAP                start   
          dE off:    2 iters         30 iters            30 iters 


      Screening Tolerance Information
      -------------------------------
          Density screening/tol_rho: 1.00D-10
          AO Gaussian exp screening on grid/accAOfunc:  14
          CD Gaussian exp screening on grid/accCDfunc:  20
          XC Gaussian exp screening on grid/accXCfunc:  20
          Schwarz screening/accCoul: 1.00D-08


      Superposition of Atomic Density Guess
      -------------------------------------

 Sum of atomic energies:        -113.90930400

 Renormalizing density from      17.00 to     18

      Non-variational initial energy
      ------------------------------

 Total energy =    -118.682639
 1-e energy   =    -236.279763
 2-e energy   =      83.091251
 HOMO         =       0.126695
 LUMO         =       0.465824


      Symmetry analysis of molecular orbitals - initial
      -------------------------------------------------

  Numbering of irreducible representations: 

     1 a1          2 a2          3 e       

  Orbital symmetries:

     1 a1          2 a1          3 a1          4 a1          5 e       
     6 e           7 a1          8 e           9 e          10 a1      
    11 e          12 e          13 a1         14 e          15 e       
    16 a1         17 a1         18 e          19 e       

   Time after variat. SCF:      0.1
   Time prior to 1st pass:      0.1

 #quartets = 6.629D+03 #integrals = 7.316D+04 #direct =  0.0% #cached =100.0%


 Integral file          = /home/d3y133/nwchem-dev/nwchem-dev-2013-09-10/QA/scratchdir/h3cona_dat.aoints.0
 Record size in doubles =  65536        No. of integs per rec  =  43688
 Max. records in memory =      2        Max. records in file   =   7213
 No. of bits per label  =      8        No. of bits per value  =     64


File balance: exchanges=     0  moved=     0  time=   0.0


 Grid_pts file          = /home/d3y133/nwchem-dev/nwchem-dev-2013-09-10/QA/scratchdir/h3cona_dat.gridpts.0
 Record size in doubles =  12289        No. of grid_pts per rec  =   3070
 Max. records in memory =      7        Max. recs in file   =     38473


           Memory utilization after 1st SCF pass: 
           Heap Space remaining (MW):       12.89            12887593
          Stack Space remaining (MW):       13.11            13106872

   convergence    iter        energy       DeltaE   RMS-Dens  Diis-err    time
 ---------------- ----- ----------------- --------- --------- ---------  ------
     COSMO gas phase
 d= 0,ls=0.0,diis     1   -114.9403144171 -1.49D+02  3.53D-02  1.02D+00     0.2
 d= 0,ls=0.0,diis     2   -114.9325507411  7.76D-03  2.14D-02  1.14D+00     0.3
 d= 0,ls=0.0,diis     3   -115.0637142750 -1.31D-01  2.14D-03  8.33D-03     0.3
 d= 0,ls=0.0,diis     4   -115.0645942444 -8.80D-04  1.21D-03  1.33D-03     0.4
 d= 0,ls=0.0,diis     5   -115.0646703711 -7.61D-05  6.73D-04  3.87D-04     0.5
  Resetting Diis
 d= 0,ls=0.0,diis     6   -115.0647113073 -4.09D-05  1.58D-05  3.64D-07     0.5
 d= 0,ls=0.0,diis     7   -115.0647113512 -4.39D-08  6.08D-06  1.17D-08     0.6

           Memory utilization after 1st SCF pass: 
           Heap Space remaining (MW):       12.89            12887221
          Stack Space remaining (MW):       13.11            13106872

   convergence    iter        energy       DeltaE   RMS-Dens  Diis-err    time
 ---------------- ----- ----------------- --------- --------- ---------  ------
     COSMO solvation phase
 d= 0,ls=0.0,diis     1   -115.1853115249 -1.21D-01  1.29D-02  7.04D-03     2.8
 d= 0,ls=0.0,diis     2   -115.1875680623 -2.26D-03  2.01D-03  8.77D-03     3.9
 d= 0,ls=0.0,diis     3   -115.1883513278 -7.83D-04  6.31D-04  3.13D-04     4.8
 d= 0,ls=0.0,diis     4   -115.1883774060 -2.61D-05  1.67D-04  5.04D-05     5.7
 d= 0,ls=0.0,diis     5   -115.1883821865 -4.78D-06  4.48D-05  7.81D-06     6.8
 d= 0,ls=0.0,diis     6   -115.1883831156 -9.29D-07  4.10D-06  2.47D-08     7.6


         Total DFT energy =     -115.188383115631
      One electron energy =     -235.163643954639
           Coulomb energy =       96.673589066418
    Exchange-Corr. energy =      -15.446486452351
 Nuclear repulsion energy =       34.505872551266

 Numeric. integr. density =       17.999999822344

     Total iterative time =      7.6s


                  COSMO solvation results
                  -----------------------
  
                 gas phase energy =      -115.0647113512
                 sol phase energy =      -115.1883831156
 (electrostatic) solvation energy =         0.1236717644 (   77.61 kcal/mol)

                  Occupations of the irreducible representations
                  ----------------------------------------------

                     irrep           alpha         beta
                     --------     --------     --------
                     a1                5.0          5.0
                     a2                0.0          0.0
                     e                 4.0          4.0


                       DFT Final Molecular Orbital Analysis
                       ------------------------------------

 Vector    1  Occ=2.000000D+00  E=-1.896985D+01  Symmetry=a1
              MO Center= -8.3D-20,  2.4D-19, -7.9D-01, r^2= 1.5D-02
   Bfn.  Coefficient  Atom+Function         Bfn.  Coefficient  Atom+Function  
  ----- ------------  ---------------      ----- ------------  ---------------
     1      0.992900  1 O  s          

 Vector    2  Occ=2.000000D+00  E=-1.016346D+01  Symmetry=a1
              MO Center=  8.5D-21,  4.2D-21,  5.6D-01, r^2= 2.8D-02
   Bfn.  Coefficient  Atom+Function         Bfn.  Coefficient  Atom+Function  
  ----- ------------  ---------------      ----- ------------  ---------------
    16      0.992926  2 C  s          

 Vector    3  Occ=2.000000D+00  E=-8.460477D-01  Symmetry=a1
              MO Center=  8.7D-19, -2.2D-18, -3.7D-01, r^2= 6.8D-01
   Bfn.  Coefficient  Atom+Function         Bfn.  Coefficient  Atom+Function  
  ----- ------------  ---------------      ----- ------------  ---------------
     6      0.415109  1 O  s                  2      0.405398  1 O  s          
    17      0.220921  2 C  s                  1     -0.189828  1 O  s          

 Vector    4  Occ=2.000000D+00  E=-5.837278D-01  Symmetry=a1
              MO Center=  8.7D-17,  5.8D-17,  6.2D-01, r^2= 1.4D+00
   Bfn.  Coefficient  Atom+Function         Bfn.  Coefficient  Atom+Function  
  ----- ------------  ---------------      ----- ------------  ---------------
    17     -0.310113  2 C  s                  6      0.297240  1 O  s          
    21     -0.279250  2 C  s                  2      0.220335  1 O  s          
    20     -0.204382  2 C  pz                16      0.154035  2 C  s          

 Vector    5  Occ=2.000000D+00  E=-3.720031D-01  Symmetry=e
              MO Center=  1.8D-01,  1.1D-01,  6.0D-01, r^2= 1.4D+00
   Bfn.  Coefficient  Atom+Function         Bfn.  Coefficient  Atom+Function  
  ----- ------------  ---------------      ----- ------------  ---------------
    19      0.339519  2 C  py                18      0.260379  2 C  px         
    31      0.244009  3 H  s                 32      0.237387  3 H  s          

 Vector    6  Occ=2.000000D+00  E=-3.720031D-01  Symmetry=e
              MO Center= -1.8D-01, -1.1D-01,  6.0D-01, r^2= 1.4D+00
   Bfn.  Coefficient  Atom+Function         Bfn.  Coefficient  Atom+Function  
  ----- ------------  ---------------      ----- ------------  ---------------
    18      0.339519  2 C  px                19     -0.260379  2 C  py         
    35     -0.227413  5 H  s                 36     -0.221242  5 H  s          
    33      0.195222  4 H  s                 34      0.189925  4 H  s          

 Vector    7  Occ=2.000000D+00  E=-2.929169D-01  Symmetry=a1
              MO Center=  6.9D-18, -1.2D-17, -5.6D-01, r^2= 1.2D+00
   Bfn.  Coefficient  Atom+Function         Bfn.  Coefficient  Atom+Function  
  ----- ------------  ---------------      ----- ------------  ---------------
     5      0.481030  1 O  pz                 6     -0.452397  1 O  s          
    20     -0.362040  2 C  pz                 9      0.299331  1 O  pz         

 Vector    8  Occ=2.000000D+00  E=-1.330983D-01  Symmetry=e
              MO Center= -5.5D-02, -5.3D-02, -4.9D-01, r^2= 1.3D+00
   Bfn.  Coefficient  Atom+Function         Bfn.  Coefficient  Atom+Function  
  ----- ------------  ---------------      ----- ------------  ---------------
     3      0.411341  1 O  px                 4     -0.405851  1 O  py         
     7      0.352675  1 O  px                 8     -0.347968  1 O  py         
    36      0.292632  5 H  s                 34     -0.290371  4 H  s          

 Vector    9  Occ=2.000000D+00  E=-1.330983D-01  Symmetry=e
              MO Center=  5.5D-02,  5.3D-02, -4.9D-01, r^2= 1.3D+00
   Bfn.  Coefficient  Atom+Function         Bfn.  Coefficient  Atom+Function  
  ----- ------------  ---------------      ----- ------------  ---------------
     4      0.411341  1 O  py                 3      0.405851  1 O  px         
     8      0.352675  1 O  py                 7      0.347968  1 O  px         
    32     -0.336597  3 H  s                 34      0.170257  4 H  s          
    36      0.166340  5 H  s                 31     -0.157467  3 H  s          

 Vector   10  Occ=0.000000D+00  E= 1.398903D-01  Symmetry=a1
              MO Center=  3.3D-16,  4.2D-16,  1.1D+00, r^2= 3.4D+00
   Bfn.  Coefficient  Atom+Function         Bfn.  Coefficient  Atom+Function  
  ----- ------------  ---------------      ----- ------------  ---------------
    21      2.325070  2 C  s                 32     -1.191709  3 H  s          
    34     -1.191709  4 H  s                 36     -1.191709  5 H  s          
    24      0.754102  2 C  pz                20      0.218685  2 C  pz         
    17      0.150558  2 C  s          

 Vector   11  Occ=0.000000D+00  E= 2.134036D-01  Symmetry=e
              MO Center= -2.5D-01, -3.8D-01,  9.1D-01, r^2= 2.8D+00
   Bfn.  Coefficient  Atom+Function         Bfn.  Coefficient  Atom+Function  
  ----- ------------  ---------------      ----- ------------  ---------------
    34      1.614766  4 H  s                 36     -1.441065  5 H  s          
    23      1.042503  2 C  py                22     -0.855625  2 C  px         
    19      0.354117  2 C  py                18     -0.290638  2 C  px         
     8     -0.245239  1 O  py                 7      0.201277  1 O  px         
    32     -0.173701  3 H  s          

 Vector   12  Occ=0.000000D+00  E= 2.134036D-01  Symmetry=e
              MO Center=  2.5D-01,  3.8D-01,  9.1D-01, r^2= 2.8D+00
   Bfn.  Coefficient  Atom+Function         Bfn.  Coefficient  Atom+Function  
  ----- ------------  ---------------      ----- ------------  ---------------
    32      1.764285  3 H  s                 22     -1.042503  2 C  px         
    36     -1.032572  5 H  s                 23     -0.855625  2 C  py         
    34     -0.731713  4 H  s                 18     -0.354117  2 C  px         
    19     -0.290638  2 C  py                 7      0.245239  1 O  px         
     8      0.201277  1 O  py         

 Vector   13  Occ=0.000000D+00  E= 2.544581D-01  Symmetry=a1
              MO Center=  2.2D-15,  1.6D-15,  5.6D-01, r^2= 2.5D+00
   Bfn.  Coefficient  Atom+Function         Bfn.  Coefficient  Atom+Function  
  ----- ------------  ---------------      ----- ------------  ---------------
     6      1.677630  1 O  s                 24      1.625936  2 C  pz         
    21     -1.529783  2 C  s                  9      0.934192  1 O  pz         
     5      0.265739  1 O  pz         

 Vector   14  Occ=0.000000D+00  E= 6.130535D-01  Symmetry=e
              MO Center=  5.8D-02,  2.4D-01,  5.0D-01, r^2= 2.0D+00
   Bfn.  Coefficient  Atom+Function         Bfn.  Coefficient  Atom+Function  
  ----- ------------  ---------------      ----- ------------  ---------------
    23      1.562105  2 C  py                22     -0.875839  2 C  px         
    19     -0.657157  2 C  py                34      0.484241  4 H  s          
    33      0.441933  4 H  s                 18      0.368454  2 C  px         
    36     -0.348847  5 H  s                 35     -0.318368  5 H  s          
     8     -0.226558  1 O  py                 4     -0.169614  1 O  py         

 Vector   15  Occ=0.000000D+00  E= 6.130535D-01  Symmetry=e
              MO Center= -5.8D-02, -2.4D-01,  5.0D-01, r^2= 2.0D+00
   Bfn.  Coefficient  Atom+Function         Bfn.  Coefficient  Atom+Function  
  ----- ------------  ---------------      ----- ------------  ---------------
    22      1.562105  2 C  px                23      0.875839  2 C  py         
    18     -0.657157  2 C  px                32     -0.480984  3 H  s          
    31     -0.438960  3 H  s                 19     -0.368454  2 C  py         
    36      0.357747  5 H  s                 35      0.326490  5 H  s          
     7     -0.226558  1 O  px                 3     -0.169614  1 O  px         

 Vector   16  Occ=0.000000D+00  E= 6.437865D-01  Symmetry=a1
              MO Center=  1.7D-18, -9.5D-18,  2.2D-01, r^2= 1.4D+00
   Bfn.  Coefficient  Atom+Function         Bfn.  Coefficient  Atom+Function  
  ----- ------------  ---------------      ----- ------------  ---------------
    24      1.150257  2 C  pz                20     -1.018789  2 C  pz         
     6      0.593491  1 O  s                 17      0.404654  2 C  s          
     5     -0.392447  1 O  pz                 2     -0.196402  1 O  s          

 Vector   17  Occ=0.000000D+00  E= 8.918650D-01  Symmetry=a1
              MO Center=  1.0D-16,  9.6D-17, -5.5D-01, r^2= 2.5D+00
   Bfn.  Coefficient  Atom+Function         Bfn.  Coefficient  Atom+Function  
  ----- ------------  ---------------      ----- ------------  ---------------
     6      1.416325  1 O  s                 21      1.032027  2 C  s          
     2     -0.865920  1 O  s                  9     -0.625475  1 O  pz         
     5      0.481011  1 O  pz                24      0.462186  2 C  pz         
    31     -0.400450  3 H  s                 33     -0.400450  4 H  s          
    35     -0.400450  5 H  s                 15     -0.340343  1 O  dzz        

 Vector   18  Occ=0.000000D+00  E= 8.920703D-01  Symmetry=e
              MO Center=  3.5D-01, -1.6D-01,  8.6D-01, r^2= 2.0D+00
   Bfn.  Coefficient  Atom+Function         Bfn.  Coefficient  Atom+Function  
  ----- ------------  ---------------      ----- ------------  ---------------
    34      1.459110  4 H  s                 32     -1.318934  3 H  s          
    23      1.245629  2 C  py                19     -0.804562  2 C  py         
    33     -0.746548  4 H  s                 31      0.674828  3 H  s          
    22      0.219755  2 C  px                29      0.219791  2 C  dyz        
    26      0.200293  2 C  dxy                8     -0.172735  1 O  py         

 Vector   19  Occ=0.000000D+00  E= 8.920703D-01  Symmetry=e
              MO Center= -3.5D-01,  1.6D-01,  8.6D-01, r^2= 2.0D+00
   Bfn.  Coefficient  Atom+Function         Bfn.  Coefficient  Atom+Function  
  ----- ------------  ---------------      ----- ------------  ---------------
    36      1.603904  5 H  s                 22      1.245629  2 C  px         
    32     -0.923348  3 H  s                 35     -0.820632  5 H  s          
    18     -0.804562  2 C  px                34     -0.680556  4 H  s          
    31      0.472428  3 H  s                 33      0.348204  4 H  s          
    23     -0.219755  2 C  py                27      0.219791  2 C  dxz        


 center of mass
 --------------
 x =   0.00000000 y =   0.00000000 z =  -0.18032899

 moments of inertia (a.u.)
 ------------------
          64.611309796422           0.000000000000           0.000000000000
           0.000000000000          64.611309796422           0.000000000000
           0.000000000000           0.000000000000          11.036679212476

     Multipole analysis of the density
     ---------------------------------

     L   x y z        total         alpha         beta         nuclear
     -   - - -        -----         -----         ----         -------
     0   0 0 0     -1.000000     -9.000000     -9.000000     17.000000

     1   1 0 0      0.000000      0.000000      0.000000      0.000000
     1   0 1 0      0.000000      0.000000      0.000000      0.000000
     1   0 0 1      1.158440      0.579220      0.579220      0.000000

     2   2 0 0    -11.441786     -8.458640     -8.458640      5.475494
     2   1 1 0      0.000000      0.000000      0.000000      0.000000
     2   1 0 1      0.000000      0.000000      0.000000      0.000000
     2   0 2 0    -11.441786     -8.458640     -8.458640      5.475494
     2   0 1 1      0.000000      0.000000      0.000000      0.000000
     2   0 0 2    -14.198285    -24.762435    -24.762435     35.326586


 Parallel integral file used       4 records with       0 large values


 Task  times  cpu:        7.6s     wall:        8.1s


                                NWChem Input Module
                                -------------------




                           NWChem Geometry Optimization
                           ----------------------------


 maximum gradient threshold         (gmax) =   0.000450
 rms gradient threshold             (grms) =   0.000300
 maximum cartesian step threshold   (xmax) =   0.001800
 rms cartesian step threshold       (xrms) =   0.001200
 fixed trust radius                (trust) =   0.300000
 maximum step size to saddle      (sadstp) =   0.100000
 energy precision                  (eprec) =   5.0D-06
 maximum number of steps          (nptopt) =   20
 initial hessian option           (inhess) =    0
 line search option               (linopt) =    1
 hessian update option            (modupd) =    1
 saddle point option              (modsad) =    0
 initial eigen-mode to follow     (moddir) =    0
 initial variable to follow       (vardir) =    0
 follow first negative mode     (firstneg) =    T
 apply conjugacy                    (opcg) =    F
 source of zmatrix                         =   autoz   


          -------------------
          Energy Minimization
          -------------------


 Names of Z-matrix variables 
    1              2              3              4              5         
    6              7              8              9             10         

 Variables with the same non-blank name are constrained to be equal


 Using diagonal initial Hessian 
 Scaling for Hessian diagonals: bonds = 1.00  angles = 0.25  torsions = 0.10

          --------
          Step   0
          --------


                         Geometry "geometry" -> "geometry"
                         ---------------------------------

 Output coordinates in angstroms (scale by  1.889725989 to convert to a.u.)

  No.       Tag          Charge          X              Y              Z
 ---- ---------------- ---------- -------------- -------------- --------------
    1 o                    8.0000     0.00000000     0.00000000    -0.79341743
    2 c                    6.0000     0.00000000     0.00000000     0.55999407
    3 h                    1.0000     0.71491134     0.71491134     0.99579167
    4 h                    1.0000     0.26167571    -0.97658705     0.99579167
    5 h                    1.0000    -0.97658705     0.26167571     0.99579167

      Atomic Mass 
      ----------- 

      o                 15.994910
      c                 12.000000
      h                  1.007825


 Effective nuclear repulsion energy (a.u.)      34.5058725513

            Nuclear Dipole moment (a.u.) 
            ----------------------------
        X                 Y               Z
 ---------------- ---------------- ----------------
     0.0000000000     0.0000000000     0.0000000000

      Symmetry information
      --------------------

 Group name             C3v       
 Group number             17
 Group order               6
 No. of unique centers     3

      Symmetry unique atoms

     1    2    3


                                 NWChem DFT Module
                                 -----------------




 Summary of "ao basis" -> "ao basis" (cartesian)
 ------------------------------------------------------------------------------
       Tag                 Description            Shells   Functions and Types
 ---------------- ------------------------------  ------  ---------------------
 o                           6-31g*                  6       15   3s2p1d
 c                           6-31g*                  6       15   3s2p1d
 h                           6-31g*                  2        2   2s


      Symmetry analysis of basis
      --------------------------

        a1         16
        a2          0
        e          20


          ---------------
          -cosmo- solvent
          ---------------
 dielectric constant -eps-     =  78.40
 charge screening approach     =   2
 screen = (eps-1)/(eps    )    =   0.98724
 -lineq- algorithm             =   1
 -bem- low  level              =   2
 -bem- high level              =   4
 -bem- from -octahedral-
 solvent radius (ang.)         =   0.000
 gaussian surface charge width =   1.00000
 degree of switching           =   1.00000
 switching function tolerance  =   0.00010
 atomic radii = 
 --------------
    1  8.000  1.720
    2  6.000  2.000
    3  1.000  1.300
    4  1.000  1.300
    5  1.000  1.300

 solvent accessible surface
 --------------------------

 ---------- ATOMIC COORDINATES (A.U.) ------------ VDWR(ANG.) --
     1    0.00000000    0.00000000   -1.49934154     1.720
     2    0.00000000    0.00000000    1.05823535     2.000
     3    1.35098654    1.35098654    1.88177340     1.300
     4    0.49449539   -1.84548193    1.88177340     1.300
     5   -1.84548193    0.49449539    1.88177340     1.300
 number of segments per atom =         32
 number of   points per atom =         32
 atom (   nspa,  nppa )
 ----------------------
    1 (     24,     0 )       0
    2 (     25,     0 )       0
    3 (     15,     0 )       0
    4 (     15,     0 )       0
    5 (     15,     0 )       0
 number of -cosmo- surface points =       94
 molecular surface =     63.480 angstrom**2
 molecular volume  =     35.859 angstrom**3
 G(cav/disp)       =      1.177 kcal/mol
 ...... end of -cosmo- initialization ......


  Caching 1-el integrals 
  Rotation of axis 

            General Information
            -------------------
          SCF calculation type: DFT
          Wavefunction type:  closed shell.
          No. of atoms     :     5
          No. of electrons :    18
           Alpha electrons :     9
            Beta electrons :     9
          Charge           :    -1
          Spin multiplicity:     1
          Use of symmetry is: on ; symmetry adaption is: on 
          Maximum number of iterations:  30
          AO basis - number of functions:    36
                     number of shells:    18
          Convergence on energy requested: 1.00D-06
          Convergence on density requested: 1.00D-05
          Convergence on gradient requested: 5.00D-04

              XC Information
              --------------
                         B3LYP Method XC Potential
                     Hartree-Fock (Exact) Exchange  0.200          
                        Slater Exchange Functional  0.800 local    
                    Becke 1988 Exchange Functional  0.720 non-local
              Lee-Yang-Parr Correlation Functional  0.810          
                  VWN I RPA Correlation Functional  0.190 local    

             Grid Information
             ----------------
          Grid used for XC integration:  medium    
          Radial quadrature: Mura-Knowles        
          Angular quadrature: Lebedev. 
          Tag              B.-S. Rad. Rad. Pts. Rad. Cut. Ang. Pts.
          ---              ---------- --------- --------- ---------
          o                   0.60       49           7.0       434
          c                   0.70       49           6.0       434
          h                   0.35       45           6.0       434
          Grid pruning is: on 
          Number of quadrature shells:   143
          Spatial weights used:  Erf1

          Convergence Information
          -----------------------
          Convergence aids based upon iterative change in 
          total energy or number of iterations. 
          Levelshifting, if invoked, occurs when the 
          HOMO/LUMO gap drops below (HL_TOL): 1.00D-02
          DIIS, if invoked, will attempt to extrapolate 
          using up to (NFOCK): 10 stored Fock matrices.

                    Damping( 0%)  Levelshifting(0.5)       DIIS
                  --------------- ------------------- ---------------
          dE  on:    start            ASAP                start   
          dE off:    2 iters         30 iters            30 iters 


      Screening Tolerance Information
      -------------------------------
          Density screening/tol_rho: 1.00D-10
          AO Gaussian exp screening on grid/accAOfunc:  14
          CD Gaussian exp screening on grid/accCDfunc:  20
          XC Gaussian exp screening on grid/accXCfunc:  20
          Schwarz screening/accCoul: 1.00D-08


 Loading old vectors from job with title :




      Symmetry analysis of molecular orbitals - initial
      -------------------------------------------------

  Numbering of irreducible representations: 

     1 a1          2 a2          3 e       

  Orbital symmetries:

     1 a1          2 a1          3 a1          4 a1          5 e       
     6 e           7 a1          8 e           9 e          10 a1      
    11 e          12 e          13 a1         14 e          15 e       
    16 a1         17 a1         18 e          19 e       

   Time after variat. SCF:      7.7
   Time prior to 1st pass:      7.7

 #quartets = 6.629D+03 #integrals = 7.316D+04 #direct =  0.0% #cached =100.0%


 Integral file          = /home/d3y133/nwchem-dev/nwchem-dev-2013-09-10/QA/scratchdir/h3cona_dat.aoints.0
 Record size in doubles =  65536        No. of integs per rec  =  43688
 Max. records in memory =      2        Max. records in file   =   7213
 No. of bits per label  =      8        No. of bits per value  =     64


File balance: exchanges=     0  moved=     0  time=   0.0


 Grid_pts file          = /home/d3y133/nwchem-dev/nwchem-dev-2013-09-10/QA/scratchdir/h3cona_dat.gridpts.0
 Record size in doubles =  12289        No. of grid_pts per rec  =   3070
 Max. records in memory =      7        Max. recs in file   =     38473


           Memory utilization after 1st SCF pass: 
           Heap Space remaining (MW):       12.89            12887156
          Stack Space remaining (MW):       13.11            13106872

   convergence    iter        energy       DeltaE   RMS-Dens  Diis-err    time
 ---------------- ----- ----------------- --------- --------- ---------  ------
     COSMO solvation phase
 d= 0,ls=0.0,diis     1   -115.1883831182 -1.50D+02  6.11D-07  3.57D-10    10.0
 d= 0,ls=0.0,diis     2   -115.1883831182 -1.03D-11  4.17D-07  3.12D-10    10.3


         Total DFT energy =     -115.188383118204
      One electron energy =     -235.163965658600
           Coulomb energy =       96.673925301219
    Exchange-Corr. energy =      -15.446513568463
 Nuclear repulsion energy =       34.505872551266

 Numeric. integr. density =       17.999999822279

     Total iterative time =      2.6s


                  COSMO solvation results
                  -----------------------
  
     skipped: no gas phase energy
                 sol phase energy =      -115.1883831182

                  Occupations of the irreducible representations
                  ----------------------------------------------

                     irrep           alpha         beta
                     --------     --------     --------
                     a1                5.0          5.0
                     a2                0.0          0.0
                     e                 4.0          4.0


                       DFT Final Molecular Orbital Analysis
                       ------------------------------------

 Vector    1  Occ=2.000000D+00  E=-1.896985D+01  Symmetry=a1
              MO Center= -2.3D-23, -1.5D-23, -7.9D-01, r^2= 1.5D-02
   Bfn.  Coefficient  Atom+Function         Bfn.  Coefficient  Atom+Function  
  ----- ------------  ---------------      ----- ------------  ---------------
     1      0.992900  1 O  s          

 Vector    2  Occ=2.000000D+00  E=-1.016346D+01  Symmetry=a1
              MO Center= -7.7D-19,  9.7D-20,  5.6D-01, r^2= 2.8D-02
   Bfn.  Coefficient  Atom+Function         Bfn.  Coefficient  Atom+Function  
  ----- ------------  ---------------      ----- ------------  ---------------
    16      0.992926  2 C  s          

 Vector    3  Occ=2.000000D+00  E=-8.460460D-01  Symmetry=a1
              MO Center=  4.7D-17, -3.5D-17, -3.7D-01, r^2= 6.8D-01
   Bfn.  Coefficient  Atom+Function         Bfn.  Coefficient  Atom+Function  
  ----- ------------  ---------------      ----- ------------  ---------------
     6      0.415108  1 O  s                  2      0.405397  1 O  s          
    17      0.220922  2 C  s                  1     -0.189827  1 O  s          

 Vector    4  Occ=2.000000D+00  E=-5.837310D-01  Symmetry=a1
              MO Center=  6.9D-18,  6.9D-18,  6.2D-01, r^2= 1.4D+00
   Bfn.  Coefficient  Atom+Function         Bfn.  Coefficient  Atom+Function  
  ----- ------------  ---------------      ----- ------------  ---------------
    17     -0.310112  2 C  s                  6      0.297240  1 O  s          
    21     -0.279250  2 C  s                  2      0.220336  1 O  s          
    20     -0.204385  2 C  pz                16      0.154034  2 C  s          

 Vector    5  Occ=2.000000D+00  E=-3.720052D-01  Symmetry=e
              MO Center=  1.5D-01, -1.5D-01,  6.0D-01, r^2= 1.4D+00
   Bfn.  Coefficient  Atom+Function         Bfn.  Coefficient  Atom+Function  
  ----- ------------  ---------------      ----- ------------  ---------------
    19      0.427845  2 C  py                33     -0.238383  4 H  s          
    34     -0.231913  4 H  s                 23      0.186978  2 C  py         
     4      0.176309  1 O  py                31      0.172231  3 H  s          
    32      0.167557  3 H  s          

 Vector    6  Occ=2.000000D+00  E=-3.720052D-01  Symmetry=e
              MO Center= -1.5D-01,  1.5D-01,  6.0D-01, r^2= 1.4D+00
   Bfn.  Coefficient  Atom+Function         Bfn.  Coefficient  Atom+Function  
  ----- ------------  ---------------      ----- ------------  ---------------
    18      0.427845  2 C  px                35     -0.237068  5 H  s          
    36     -0.230634  5 H  s                 22      0.186978  2 C  px         
     3      0.176309  1 O  px                31      0.175823  3 H  s          
    32      0.171051  3 H  s          

 Vector    7  Occ=2.000000D+00  E=-2.929169D-01  Symmetry=a1
              MO Center= -5.2D-18, -6.9D-17, -5.6D-01, r^2= 1.2D+00
   Bfn.  Coefficient  Atom+Function         Bfn.  Coefficient  Atom+Function  
  ----- ------------  ---------------      ----- ------------  ---------------
     5      0.481030  1 O  pz                 6     -0.452398  1 O  s          
    20     -0.362041  2 C  pz                 9      0.299330  1 O  pz         

 Vector    8  Occ=2.000000D+00  E=-1.330981D-01  Symmetry=e
              MO Center=  7.0D-02,  3.1D-02, -4.9D-01, r^2= 1.3D+00
   Bfn.  Coefficient  Atom+Function         Bfn.  Coefficient  Atom+Function  
  ----- ------------  ---------------      ----- ------------  ---------------
     4      0.475347  1 O  py                 8      0.407552  1 O  py         
    32     -0.331128  3 H  s                  3      0.328578  1 O  px         
     7      0.281716  1 O  px                34      0.217917  4 H  s          
    31     -0.154910  3 H  s          

 Vector    9  Occ=2.000000D+00  E=-1.330981D-01  Symmetry=e
              MO Center= -7.0D-02, -3.1D-02, -4.9D-01, r^2= 1.3D+00
   Bfn.  Coefficient  Atom+Function         Bfn.  Coefficient  Atom+Function  
  ----- ------------  ---------------      ----- ------------  ---------------
     3      0.475347  1 O  px                 7      0.407552  1 O  px         
     4     -0.328578  1 O  py                36      0.316992  5 H  s          
     8     -0.281716  1 O  py                34     -0.256539  4 H  s          

 Vector   10  Occ=0.000000D+00  E= 1.398887D-01  Symmetry=a1
              MO Center=  3.3D-16,  1.7D-16,  1.1D+00, r^2= 3.4D+00
   Bfn.  Coefficient  Atom+Function         Bfn.  Coefficient  Atom+Function  
  ----- ------------  ---------------      ----- ------------  ---------------
    21      2.325063  2 C  s                 32     -1.191707  3 H  s          
    34     -1.191707  4 H  s                 36     -1.191707  5 H  s          
    24      0.754103  2 C  pz                20      0.218687  2 C  pz         
    17      0.150559  2 C  s          

 Vector   11  Occ=0.000000D+00  E= 2.134025D-01  Symmetry=e
              MO Center= -4.5D-01,  4.6D-02,  9.1D-01, r^2= 2.8D+00
   Bfn.  Coefficient  Atom+Function         Bfn.  Coefficient  Atom+Function  
  ----- ------------  ---------------      ----- ------------  ---------------
    36      1.767210  5 H  s                 22      1.270862  2 C  px         
    34     -1.005582  4 H  s                 32     -0.761628  3 H  s          
    23     -0.451455  2 C  py                18      0.431687  2 C  px         
     7     -0.298958  1 O  px                19     -0.153350  2 C  py         

 Vector   12  Occ=0.000000D+00  E= 2.134025D-01  Symmetry=e
              MO Center=  4.5D-01, -4.6D-02,  9.1D-01, r^2= 2.8D+00
   Bfn.  Coefficient  Atom+Function         Bfn.  Coefficient  Atom+Function  
  ----- ------------  ---------------      ----- ------------  ---------------
    32      1.600872  3 H  s                 34     -1.460025  4 H  s          
    23     -1.270862  2 C  py                22     -0.451455  2 C  px         
    19     -0.431687  2 C  py                 8      0.298958  1 O  py         
    18     -0.153350  2 C  px         

 Vector   13  Occ=0.000000D+00  E= 2.544574D-01  Symmetry=a1
              MO Center=  6.4D-15,  1.5D-15,  5.6D-01, r^2= 2.5D+00
   Bfn.  Coefficient  Atom+Function         Bfn.  Coefficient  Atom+Function  
  ----- ------------  ---------------      ----- ------------  ---------------
     6      1.677633  1 O  s                 24      1.625937  2 C  pz         
    21     -1.529784  2 C  s                  9      0.934192  1 O  pz         
     5      0.265738  1 O  pz         

 Vector   14  Occ=0.000000D+00  E= 6.130521D-01  Symmetry=e
              MO Center=  2.2D-01,  1.1D-01,  5.0D-01, r^2= 2.0D+00
   Bfn.  Coefficient  Atom+Function         Bfn.  Coefficient  Atom+Function  
  ----- ------------  ---------------      ----- ------------  ---------------
    22      1.455072  2 C  px                23     -1.044044  2 C  py         
    18     -0.612128  2 C  px                36      0.467540  5 H  s          
    19      0.439214  2 C  py                35      0.426694  5 H  s          
    34     -0.386448  4 H  s                 33     -0.352687  4 H  s          
     7     -0.211036  1 O  px                 3     -0.157992  1 O  px         

 Vector   15  Occ=0.000000D+00  E= 6.130521D-01  Symmetry=e
              MO Center= -2.2D-01, -1.1D-01,  5.0D-01, r^2= 2.0D+00
   Bfn.  Coefficient  Atom+Function         Bfn.  Coefficient  Atom+Function  
  ----- ------------  ---------------      ----- ------------  ---------------
    23      1.455072  2 C  py                22      1.044044  2 C  px         
    19     -0.612128  2 C  py                32     -0.493051  3 H  s          
    31     -0.449976  3 H  s                 18     -0.439214  2 C  px         
    34      0.316753  4 H  s                 33      0.289080  4 H  s          
     8     -0.211036  1 O  py                36      0.176298  5 H  s          

 Vector   16  Occ=0.000000D+00  E= 6.437863D-01  Symmetry=a1
              MO Center= -3.6D-16, -1.0D-15,  2.2D-01, r^2= 1.4D+00
   Bfn.  Coefficient  Atom+Function         Bfn.  Coefficient  Atom+Function  
  ----- ------------  ---------------      ----- ------------  ---------------
    24      1.150259  2 C  pz                20     -1.018790  2 C  pz         
     6      0.593488  1 O  s                 17      0.404647  2 C  s          
     5     -0.392447  1 O  pz                 2     -0.196402  1 O  s          

 Vector   17  Occ=0.000000D+00  E= 8.918635D-01  Symmetry=a1
              MO Center= -3.0D-13,  3.1D-13, -5.5D-01, r^2= 2.5D+00
   Bfn.  Coefficient  Atom+Function         Bfn.  Coefficient  Atom+Function  
  ----- ------------  ---------------      ----- ------------  ---------------
     6      1.416317  1 O  s                 21      1.032009  2 C  s          
     2     -0.865917  1 O  s                  9     -0.625469  1 O  pz         
     5      0.481004  1 O  pz                24      0.462179  2 C  pz         
    31     -0.400458  3 H  s                 33     -0.400458  4 H  s          
    35     -0.400458  5 H  s                 15     -0.340341  1 O  dzz        

 Vector   18  Occ=0.000000D+00  E= 8.920683D-01  Symmetry=e
              MO Center= -3.8D-01, -6.1D-02,  8.6D-01, r^2= 2.0D+00
   Bfn.  Coefficient  Atom+Function         Bfn.  Coefficient  Atom+Function  
  ----- ------------  ---------------      ----- ------------  ---------------
    36      1.574442  5 H  s                 22      1.126328  2 C  px         
    34     -1.078723  4 H  s                 35     -0.805556  5 H  s          
    18     -0.727505  2 C  px                23     -0.575566  2 C  py         
    33      0.551924  4 H  s                 32     -0.495719  3 H  s          
    19      0.371763  2 C  py                31      0.253632  3 H  s          

 Vector   19  Occ=0.000000D+00  E= 8.920683D-01  Symmetry=e
              MO Center=  3.8D-01,  6.1D-02,  8.6D-01, r^2= 2.0D+00
   Bfn.  Coefficient  Atom+Function         Bfn.  Coefficient  Atom+Function  
  ----- ------------  ---------------      ----- ------------  ---------------
    32      1.531806  3 H  s                 34     -1.195208  4 H  s          
    23     -1.126328  2 C  py                31     -0.783741  3 H  s          
    19      0.727505  2 C  py                33      0.611523  4 H  s          
    22     -0.575566  2 C  px                18      0.371763  2 C  px         
    36     -0.336598  5 H  s                 26     -0.232619  2 C  dxy        


 center of mass
 --------------
 x =   0.00000000 y =   0.00000000 z =  -0.18032899

 moments of inertia (a.u.)
 ------------------
          64.611309796422           0.000000000000           0.000000000000
           0.000000000000          64.611309796422           0.000000000000
           0.000000000000           0.000000000000          11.036679212476

     Multipole analysis of the density
     ---------------------------------

     L   x y z        total         alpha         beta         nuclear
     -   - - -        -----         -----         ----         -------
     0   0 0 0     -1.000000     -9.000000     -9.000000     17.000000

     1   1 0 0      0.000000      0.000000      0.000000      0.000000
     1   0 1 0      0.000000      0.000000      0.000000      0.000000
     1   0 0 1      1.158437      0.579219      0.579219      0.000000

     2   2 0 0    -11.441765     -8.458630     -8.458630      5.475494
     2   1 1 0      0.000000      0.000000      0.000000      0.000000
     2   1 0 1      0.000000      0.000000      0.000000      0.000000
     2   0 2 0    -11.441765     -8.458630     -8.458630      5.475494
     2   0 1 1      0.000000      0.000000      0.000000      0.000000
     2   0 0 2    -14.198299    -24.762443    -24.762443     35.326586


 Parallel integral file used       4 records with       0 large values



                            NWChem DFT Gradient Module
                            --------------------------



  charge          =  -1.00
  wavefunction    = closed shell

  Rotation of axis 
  Using symmetry


                         DFT ENERGY GRADIENTS

    atom               coordinates                        gradient
                 x          y          z           x          y          z
   1 o       0.000000   0.000000  -1.499342    0.000000   0.000000   0.006925
   2 c       0.000000   0.000000   1.058235    0.000000   0.000000   0.040373
   3 h       1.350987   1.350987   1.881773   -0.009416  -0.009416  -0.015766
   4 h       0.494495  -1.845482   1.881773   -0.003447   0.012863  -0.015766
   5 h      -1.845482   0.494495   1.881773    0.012863  -0.003447  -0.015766

                 ----------------------------------------
                 |  Time  |  1-e(secs)   |  2-e(secs)   |
                 ----------------------------------------
                 |  CPU   |       0.02   |       0.18   |
                 ----------------------------------------
                 |  WALL  |       0.04   |       0.18   |
                 ----------------------------------------

@ Step       Energy      Delta E   Gmax     Grms     Xrms     Xmax   Walltime
@ ---- ---------------- -------- -------- -------- -------- -------- --------
@    0    -115.18838312  0.0D+00  0.01847  0.01098  0.00000  0.00000     12.3
                                                                    



                                Z-matrix (autoz)
                                -------- 

 Units are Angstrom for bonds and degrees for angles

      Type          Name      I     J     K     L     M      Value     Gradient
      ----------- --------  ----- ----- ----- ----- ----- ---------- ----------
    1 Stretch                  1     2                       1.35341   -0.00692
    2 Stretch                  2     3                       1.10096   -0.01847
    3 Stretch                  2     4                       1.10096   -0.01847
    4 Stretch                  2     5                       1.10096   -0.01847
    5 Bend                     1     2     3               113.31798   -0.00445
    6 Bend                     1     2     4               113.31798   -0.00445
    7 Bend                     1     2     5               113.31798   -0.00445
    8 Bend                     3     2     4               105.36538    0.00503
    9 Bend                     3     2     5               105.36538    0.00503
   10 Bend                     4     2     5               105.36538    0.00503


                                 NWChem DFT Module
                                 -----------------




 Summary of "ao basis" -> "ao basis" (cartesian)
 ------------------------------------------------------------------------------
       Tag                 Description            Shells   Functions and Types
 ---------------- ------------------------------  ------  ---------------------
 o                           6-31g*                  6       15   3s2p1d
 c                           6-31g*                  6       15   3s2p1d
 h                           6-31g*                  2        2   2s


      Symmetry analysis of basis
      --------------------------

        a1         16
        a2          0
        e          20


          ---------------
          -cosmo- solvent
          ---------------
 dielectric constant -eps-     =  78.40
 charge screening approach     =   2
 screen = (eps-1)/(eps    )    =   0.98724
 -lineq- algorithm             =   1
 -bem- low  level              =   2
 -bem- high level              =   4
 -bem- from -octahedral-
 solvent radius (ang.)         =   0.000
 gaussian surface charge width =   1.00000
 degree of switching           =   1.00000
 switching function tolerance  =   0.00010
 atomic radii = 
 --------------
    1  8.000  1.720
    2  6.000  2.000
    3  1.000  1.300
    4  1.000  1.300
    5  1.000  1.300

 solvent accessible surface
 --------------------------

 ---------- ATOMIC COORDINATES (A.U.) ------------ VDWR(ANG.) --
     1    0.00000000    0.00000000   -1.57642388     1.720
     2    0.00000000    0.00000000    0.99772241     2.000
     3    1.35893775    1.35893775    1.92763849     1.300
     4    0.49740574   -1.85634349    1.92763849     1.300
     5   -1.85634349    0.49740574    1.92763849     1.300
 number of segments per atom =         32
 number of   points per atom =         32
 atom (   nspa,  nppa )
 ----------------------
    1 (     24,     0 )       0
    2 (     21,     0 )       0
    3 (     16,     0 )       0
    4 (     16,     0 )       0
    5 (     16,     0 )       0
 number of -cosmo- surface points =       93
 molecular surface =     64.912 angstrom**2
 molecular volume  =     36.569 angstrom**3
 G(cav/disp)       =      1.185 kcal/mol
 ...... end of -cosmo- initialization ......


  Caching 1-el integrals 
  Rotation of axis 

            General Information
            -------------------
          SCF calculation type: DFT
          Wavefunction type:  closed shell.
          No. of atoms     :     5
          No. of electrons :    18
           Alpha electrons :     9
            Beta electrons :     9
          Charge           :    -1
          Spin multiplicity:     1
          Use of symmetry is: on ; symmetry adaption is: on 
          Maximum number of iterations:  30
          AO basis - number of functions:    36
                     number of shells:    18
          Convergence on energy requested: 1.00D-06
          Convergence on density requested: 1.00D-05
          Convergence on gradient requested: 5.00D-04

              XC Information
              --------------
                         B3LYP Method XC Potential
                     Hartree-Fock (Exact) Exchange  0.200          
                        Slater Exchange Functional  0.800 local    
                    Becke 1988 Exchange Functional  0.720 non-local
              Lee-Yang-Parr Correlation Functional  0.810          
                  VWN I RPA Correlation Functional  0.190 local    

             Grid Information
             ----------------
          Grid used for XC integration:  medium    
          Radial quadrature: Mura-Knowles        
          Angular quadrature: Lebedev. 
          Tag              B.-S. Rad. Rad. Pts. Rad. Cut. Ang. Pts.
          ---              ---------- --------- --------- ---------
          o                   0.60       49           7.0       434
          c                   0.70       49           6.0       434
          h                   0.35       45           6.0       434
          Grid pruning is: on 
          Number of quadrature shells:   143
          Spatial weights used:  Erf1

          Convergence Information
          -----------------------
          Convergence aids based upon iterative change in 
          total energy or number of iterations. 
          Levelshifting, if invoked, occurs when the 
          HOMO/LUMO gap drops below (HL_TOL): 1.00D-02
          DIIS, if invoked, will attempt to extrapolate 
          using up to (NFOCK): 10 stored Fock matrices.

                    Damping( 0%)  Levelshifting(0.5)       DIIS
                  --------------- ------------------- ---------------
          dE  on:    start            ASAP                start   
          dE off:    2 iters         30 iters            30 iters 


      Screening Tolerance Information
      -------------------------------
          Density screening/tol_rho: 1.00D-10
          AO Gaussian exp screening on grid/accAOfunc:  14
          CD Gaussian exp screening on grid/accCDfunc:  20
          XC Gaussian exp screening on grid/accXCfunc:  20
          Schwarz screening/accCoul: 1.00D-08


 Loading old vectors from job with title :




      Symmetry analysis of molecular orbitals - initial
      -------------------------------------------------

  Numbering of irreducible representations: 

     1 a1          2 a2          3 e       

  Orbital symmetries:

     1 a1          2 a1          3 a1          4 a1          5 e       
     6 e           7 a1          8 e           9 e          10 a1      
    11 e          12 e          13 a1         14 e          15 e       
    16 a1         17 a1         18 e          19 e       

   Time after variat. SCF:     10.6
   Time prior to 1st pass:     10.6

 #quartets = 6.627D+03 #integrals = 7.315D+04 #direct =  0.0% #cached =100.0%


 Integral file          = /home/d3y133/nwchem-dev/nwchem-dev-2013-09-10/QA/scratchdir/h3cona_dat.aoints.0
 Record size in doubles =  65536        No. of integs per rec  =  43688
 Max. records in memory =      2        Max. records in file   =   7213
 No. of bits per label  =      8        No. of bits per value  =     64


File balance: exchanges=     0  moved=     0  time=   0.0


 Grid_pts file          = /home/d3y133/nwchem-dev/nwchem-dev-2013-09-10/QA/scratchdir/h3cona_dat.gridpts.0
 Record size in doubles =  12289        No. of grid_pts per rec  =   3070
 Max. records in memory =      7        Max. recs in file   =     38473


           Memory utilization after 1st SCF pass: 
           Heap Space remaining (MW):       12.89            12887160
          Stack Space remaining (MW):       13.11            13106872

   convergence    iter        energy       DeltaE   RMS-Dens  Diis-err    time
 ---------------- ----- ----------------- --------- --------- ---------  ------
     COSMO solvation phase
 d= 0,ls=0.0,diis     1   -115.1907998927 -1.49D+02  2.02D-03  4.09D-03    12.2
 d= 0,ls=0.0,diis     2   -115.1910883781 -2.88D-04  1.17D-03  3.72D-03    13.0
 d= 0,ls=0.0,diis     3   -115.1914478578 -3.59D-04  4.23D-04  3.54D-04    13.8
 d= 0,ls=0.0,diis     4   -115.1914756572 -2.78D-05  1.58D-04  4.95D-05    14.5
 d= 0,ls=0.0,diis     5   -115.1914809548 -5.30D-06  6.05D-06  1.21D-07    15.1
 d= 0,ls=0.0,diis     6   -115.1914809668 -1.20D-08  9.08D-07  2.68D-09    15.5


         Total DFT energy =     -115.191480966778
      One electron energy =     -234.052911428093
           Coulomb energy =       96.052902189552
    Exchange-Corr. energy =      -15.404600163960
 Nuclear repulsion energy =       33.984457079289

 Numeric. integr. density =       17.999998138640

     Total iterative time =      4.9s


                  COSMO solvation results
                  -----------------------
  
     skipped: no gas phase energy
                 sol phase energy =      -115.1914809668

                  Occupations of the irreducible representations
                  ----------------------------------------------

                     irrep           alpha         beta
                     --------     --------     --------
                     a1                5.0          5.0
                     a2                0.0          0.0
                     e                 4.0          4.0


                       DFT Final Molecular Orbital Analysis
                       ------------------------------------

 Vector    1  Occ=2.000000D+00  E=-1.898129D+01  Symmetry=a1
              MO Center=  8.6D-20, -2.1D-19, -8.3D-01, r^2= 1.5D-02
   Bfn.  Coefficient  Atom+Function         Bfn.  Coefficient  Atom+Function  
  ----- ------------  ---------------      ----- ------------  ---------------
     1      0.992910  1 O  s          

 Vector    2  Occ=2.000000D+00  E=-1.017573D+01  Symmetry=a1
              MO Center= -1.1D-18,  1.4D-18,  5.3D-01, r^2= 2.8D-02
   Bfn.  Coefficient  Atom+Function         Bfn.  Coefficient  Atom+Function  
  ----- ------------  ---------------      ----- ------------  ---------------
    16      0.992977  2 C  s          

 Vector    3  Occ=2.000000D+00  E=-8.476137D-01  Symmetry=a1
              MO Center= -5.8D-17, -3.8D-18, -4.3D-01, r^2= 6.7D-01
   Bfn.  Coefficient  Atom+Function         Bfn.  Coefficient  Atom+Function  
  ----- ------------  ---------------      ----- ------------  ---------------
     6      0.421594  1 O  s                  2      0.412373  1 O  s          
    17      0.213995  2 C  s                  1     -0.192248  1 O  s          

 Vector    4  Occ=2.000000D+00  E=-5.845999D-01  Symmetry=a1
              MO Center= -1.5D-16,  2.3D-16,  6.3D-01, r^2= 1.4D+00
   Bfn.  Coefficient  Atom+Function         Bfn.  Coefficient  Atom+Function  
  ----- ------------  ---------------      ----- ------------  ---------------
    17     -0.311788  2 C  s                 21     -0.294009  2 C  s          
     6      0.287506  1 O  s                  2      0.210526  1 O  s          
    20     -0.202382  2 C  pz                16      0.155162  2 C  s          

 Vector    5  Occ=2.000000D+00  E=-3.644050D-01  Symmetry=e
              MO Center= -1.8D-01, -1.0D-01,  5.8D-01, r^2= 1.4D+00
   Bfn.  Coefficient  Atom+Function         Bfn.  Coefficient  Atom+Function  
  ----- ------------  ---------------      ----- ------------  ---------------
    18      0.337648  2 C  px                19     -0.255658  2 C  py         
    36     -0.226039  5 H  s                 35     -0.223896  5 H  s          
    34      0.192635  4 H  s                 33      0.190809  4 H  s          
    22      0.154557  2 C  px         

 Vector    6  Occ=2.000000D+00  E=-3.644050D-01  Symmetry=e
              MO Center=  1.8D-01,  1.0D-01,  5.8D-01, r^2= 1.4D+00
   Bfn.  Coefficient  Atom+Function         Bfn.  Coefficient  Atom+Function  
  ----- ------------  ---------------      ----- ------------  ---------------
    19      0.337648  2 C  py                18      0.255658  2 C  px         
    32      0.241721  3 H  s                 31      0.239430  3 H  s          
    23      0.154557  2 C  py         

 Vector    7  Occ=2.000000D+00  E=-3.010579D-01  Symmetry=a1
              MO Center= -5.4D-17,  4.1D-17, -5.9D-01, r^2= 1.2D+00
   Bfn.  Coefficient  Atom+Function         Bfn.  Coefficient  Atom+Function  
  ----- ------------  ---------------      ----- ------------  ---------------
     5      0.480010  1 O  pz                 6     -0.447726  1 O  s          
    20     -0.359439  2 C  pz                 9      0.296676  1 O  pz         

 Vector    8  Occ=2.000000D+00  E=-1.410079D-01  Symmetry=e
              MO Center=  5.7D-02,  6.0D-02, -5.0D-01, r^2= 1.4D+00
   Bfn.  Coefficient  Atom+Function         Bfn.  Coefficient  Atom+Function  
  ----- ------------  ---------------      ----- ------------  ---------------
     3      0.411562  1 O  px                 4      0.402012  1 O  py         
     7      0.348832  1 O  px                 8      0.340738  1 O  py         
    32     -0.340752  3 H  s                 36      0.173840  5 H  s          
    34      0.166912  4 H  s                 31     -0.160022  3 H  s          

 Vector    9  Occ=2.000000D+00  E=-1.410079D-01  Symmetry=e
              MO Center= -5.7D-02, -6.0D-02, -5.0D-01, r^2= 1.4D+00
   Bfn.  Coefficient  Atom+Function         Bfn.  Coefficient  Atom+Function  
  ----- ------------  ---------------      ----- ------------  ---------------
     4     -0.411562  1 O  py                 3      0.402012  1 O  px         
     8     -0.348832  1 O  py                 7      0.340738  1 O  px         
    34     -0.297099  4 H  s                 36      0.293100  5 H  s          

 Vector   10  Occ=0.000000D+00  E= 1.328157D-01  Symmetry=a1
              MO Center= -5.6D-16,  1.7D-16,  1.1D+00, r^2= 3.4D+00
   Bfn.  Coefficient  Atom+Function         Bfn.  Coefficient  Atom+Function  
  ----- ------------  ---------------      ----- ------------  ---------------
    21      2.247362  2 C  s                 32     -1.159548  3 H  s          
    34     -1.159548  4 H  s                 36     -1.159548  5 H  s          
    24      0.763581  2 C  pz                20      0.217373  2 C  pz         
    17      0.158825  2 C  s          

 Vector   11  Occ=0.000000D+00  E= 2.064220D-01  Symmetry=e
              MO Center= -3.0D-01, -3.0D-01,  8.9D-01, r^2= 2.8D+00
   Bfn.  Coefficient  Atom+Function         Bfn.  Coefficient  Atom+Function  
  ----- ------------  ---------------      ----- ------------  ---------------
    34      1.438465  4 H  s                 36     -1.441344  5 H  s          
    22     -0.896993  2 C  px                23      0.893892  2 C  py         
    18     -0.334351  2 C  px                19      0.333195  2 C  py         
     7      0.227400  1 O  px                 8     -0.226614  1 O  py         

 Vector   12  Occ=0.000000D+00  E= 2.064220D-01  Symmetry=e
              MO Center=  3.0D-01,  3.0D-01,  8.9D-01, r^2= 2.8D+00
   Bfn.  Coefficient  Atom+Function         Bfn.  Coefficient  Atom+Function  
  ----- ------------  ---------------      ----- ------------  ---------------
    32      1.662659  3 H  s                 22     -0.893892  2 C  px         
    23     -0.896993  2 C  py                34     -0.833822  4 H  s          
    36     -0.828836  5 H  s                 18     -0.333195  2 C  px         
    19     -0.334351  2 C  py                 7      0.226614  1 O  px         
     8      0.227400  1 O  py         

 Vector   13  Occ=0.000000D+00  E= 2.495643D-01  Symmetry=a1
              MO Center= -1.1D-15, -9.9D-16,  4.3D-01, r^2= 2.4D+00
   Bfn.  Coefficient  Atom+Function         Bfn.  Coefficient  Atom+Function  
  ----- ------------  ---------------      ----- ------------  ---------------
     6      1.647171  1 O  s                 24      1.653711  2 C  pz         
    21     -1.345498  2 C  s                  9      0.932585  1 O  pz         
     5      0.274801  1 O  pz         

 Vector   14  Occ=0.000000D+00  E= 6.178128D-01  Symmetry=e
              MO Center= -4.8D-02,  2.1D-01,  4.6D-01, r^2= 2.1D+00
   Bfn.  Coefficient  Atom+Function         Bfn.  Coefficient  Atom+Function  
  ----- ------------  ---------------      ----- ------------  ---------------
    23      1.643116  2 C  py                19     -0.737972  2 C  py         
    22     -0.471170  2 C  px                33      0.456972  4 H  s          
    34      0.420819  4 H  s                 35     -0.235397  5 H  s          
     8     -0.224623  1 O  py                31     -0.221575  3 H  s          
    36     -0.216774  5 H  s                 18      0.211617  2 C  px         

 Vector   15  Occ=0.000000D+00  E= 6.178128D-01  Symmetry=e
              MO Center=  4.8D-02, -2.1D-01,  4.6D-01, r^2= 2.1D+00
   Bfn.  Coefficient  Atom+Function         Bfn.  Coefficient  Atom+Function  
  ----- ------------  ---------------      ----- ------------  ---------------
    22      1.643116  2 C  px                18     -0.737972  2 C  px         
    23      0.471170  2 C  py                31     -0.399740  3 H  s          
    35      0.391759  5 H  s                 32     -0.368114  3 H  s          
    36      0.360765  5 H  s                  7     -0.224623  1 O  px         
    19     -0.211617  2 C  py                 3     -0.200293  1 O  px         

 Vector   16  Occ=0.000000D+00  E= 6.325732D-01  Symmetry=a1
              MO Center= -1.6D-15, -2.4D-15,  1.8D-01, r^2= 1.4D+00
   Bfn.  Coefficient  Atom+Function         Bfn.  Coefficient  Atom+Function  
  ----- ------------  ---------------      ----- ------------  ---------------
    24      1.201231  2 C  pz                20     -1.005787  2 C  pz         
     6      0.641245  1 O  s                 17      0.437611  2 C  s          
     5     -0.396560  1 O  pz                21     -0.199094  2 C  s          
     2     -0.187449  1 O  s          

 Vector   17  Occ=0.000000D+00  E= 8.677295D-01  Symmetry=e
              MO Center= -2.0D-01, -3.5D-01,  9.0D-01, r^2= 2.1D+00
   Bfn.  Coefficient  Atom+Function         Bfn.  Coefficient  Atom+Function  
  ----- ------------  ---------------      ----- ------------  ---------------
    34      1.484831  4 H  s                 36     -1.272605  5 H  s          
    23      0.992537  2 C  py                22     -0.759039  2 C  px         
    33     -0.762310  4 H  s                 35      0.653354  5 H  s          
    19     -0.627239  2 C  py                18      0.479678  2 C  px         
    32     -0.212226  3 H  s                 29      0.184528  2 C  dyz        

 Vector   18  Occ=0.000000D+00  E= 8.677295D-01  Symmetry=e
              MO Center=  2.0D-01,  3.5D-01,  9.0D-01, r^2= 2.1D+00
   Bfn.  Coefficient  Atom+Function         Bfn.  Coefficient  Atom+Function  
  ----- ------------  ---------------      ----- ------------  ---------------
    32      1.592006  3 H  s                 22     -0.992537  2 C  px         
    36     -0.979797  5 H  s                 31     -0.817334  3 H  s          
    23     -0.759039  2 C  py                18      0.627239  2 C  px         
    34     -0.612210  4 H  s                 35      0.503026  5 H  s          
    19      0.479678  2 C  py                33      0.314308  4 H  s          

 Vector   19  Occ=0.000000D+00  E= 9.004833D-01  Symmetry=a1
              MO Center=  2.0D-15,  2.3D-15, -5.6D-01, r^2= 2.6D+00
   Bfn.  Coefficient  Atom+Function         Bfn.  Coefficient  Atom+Function  
  ----- ------------  ---------------      ----- ------------  ---------------
     6      1.595290  1 O  s                  2     -0.881947  1 O  s          
    21      0.578886  2 C  s                  9     -0.561953  1 O  pz         
    24      0.522793  2 C  pz                 5      0.487394  1 O  pz         
    31     -0.411513  3 H  s                 33     -0.411513  4 H  s          
    35     -0.411513  5 H  s                 15     -0.336726  1 O  dzz        


 center of mass
 --------------
 x =   0.00000000 y =   0.00000000 z =  -0.23901703

 moments of inertia (a.u.)
 ------------------
          66.740578633244           0.000000000000           0.000000000000
           0.000000000000          66.740578633244           0.000000000000
           0.000000000000           0.000000000000          11.166974042258

     Multipole analysis of the density
     ---------------------------------

     L   x y z        total         alpha         beta         nuclear
     -   - - -        -----         -----         ----         -------
     0   0 0 0     -1.000000     -9.000000     -9.000000     17.000000

     1   1 0 0      0.000000      0.000000      0.000000      0.000000
     1   0 1 0      0.000000      0.000000      0.000000      0.000000
     1   0 0 1      1.146109      0.994125      0.994125     -0.842141

     2   2 0 0    -11.609154     -8.574645     -8.574645      5.540135
     2   1 1 0      0.000000      0.000000      0.000000      0.000000
     2   1 0 1      0.000000      0.000000      0.000000      0.000000
     2   0 2 0    -11.609154     -8.574645     -8.574645      5.540135
     2   0 1 1      0.000000      0.000000      0.000000      0.000000
     2   0 0 2    -14.396645    -25.698807    -25.698807     37.000968


 Parallel integral file used       4 records with       0 large values

 Line search: 
     step= 1.00 grad=-5.7D-03 hess= 2.6D-03 energy=   -115.191481 mode=accept  
 new step= 1.00                   predicted energy=   -115.191481

          --------
          Step   1
          --------


                         Geometry "geometry" -> "geometry"
                         ---------------------------------

 Output coordinates in angstroms (scale by  1.889725989 to convert to a.u.)

  No.       Tag          Charge          X              Y              Z
 ---- ---------------- ---------- -------------- -------------- --------------
    1 o                    8.0000     0.00000000     0.00000000    -0.83420765
    2 c                    6.0000     0.00000000     0.00000000     0.52797200
    3 h                    1.0000     0.71911894     0.71911894     1.02006243
    4 h                    1.0000     0.26321580    -0.98233474     1.02006243
[...]
  ----- ------------  ---------------      ----- ------------  ---------------
    24      1.146124  2 C  pz                20     -1.010169  2 C  pz         
     6      0.585548  1 O  s                 17      0.451972  2 C  s          
     5     -0.401788  1 O  pz                 2     -0.197506  1 O  s          
    21     -0.156667  2 C  s          

 Vector   17  Occ=0.000000D+00  E= 8.591386D-01  Symmetry=e
              MO Center= -4.1D-01, -5.2D-02,  9.0D-01, r^2= 2.1D+00
   Bfn.  Coefficient  Atom+Function         Bfn.  Coefficient  Atom+Function  
  ----- ------------  ---------------      ----- ------------  ---------------
    36      1.563016  5 H  s                 22      1.088607  2 C  px         
    34     -1.048206  4 H  s                 35     -0.816352  5 H  s          
    18     -0.687472  2 C  px                33      0.547470  4 H  s          
    23     -0.534389  2 C  py                32     -0.514810  3 H  s          
    19      0.337475  2 C  py                31      0.268881  3 H  s          

 Vector   18  Occ=0.000000D+00  E= 8.591386D-01  Symmetry=e
              MO Center=  4.1D-01,  5.2D-02,  9.0D-01, r^2= 2.1D+00
   Bfn.  Coefficient  Atom+Function         Bfn.  Coefficient  Atom+Function  
  ----- ------------  ---------------      ----- ------------  ---------------
    32      1.507590  3 H  s                 34     -1.199633  4 H  s          
    23     -1.088607  2 C  py                31     -0.787403  3 H  s          
    19      0.687472  2 C  py                33      0.626559  4 H  s          
    22     -0.534389  2 C  px                18      0.337475  2 C  px         
    36     -0.307957  5 H  s                 29     -0.209273  2 C  dyz        

 Vector   19  Occ=0.000000D+00  E= 9.022115D-01  Symmetry=a1
              MO Center=  8.2D-16, -9.1D-16, -6.2D-01, r^2= 2.5D+00
   Bfn.  Coefficient  Atom+Function         Bfn.  Coefficient  Atom+Function  
  ----- ------------  ---------------      ----- ------------  ---------------
     6      1.576665  1 O  s                  2     -0.861096  1 O  s          
     9     -0.613902  1 O  pz                 5      0.517404  1 O  pz         
    24      0.508106  2 C  pz                21      0.428352  2 C  s          
    31     -0.394118  3 H  s                 33     -0.394118  4 H  s          
    35     -0.394118  5 H  s                 15     -0.336363  1 O  dzz        


 center of mass
 --------------
 x =   0.00000000 y =   0.00000000 z =  -0.24274460

 moments of inertia (a.u.)
 ------------------
          65.192787970780           0.000000000000           0.000000000000
           0.000000000000          65.192787970780           0.000000000000
           0.000000000000           0.000000000000          11.231475693487

     Multipole analysis of the density
     ---------------------------------

     L   x y z        total         alpha         beta         nuclear
     -   - - -        -----         -----         ----         -------
     0   0 0 0     -1.000000     -9.000000     -9.000000     17.000000

     1   1 0 0      0.000000      0.000000      0.000000      0.000000
     1   0 1 0      0.000000      0.000000      0.000000      0.000000
     1   0 0 1      1.044889      0.968322      0.968322     -0.891756

     2   2 0 0    -11.709159     -8.640648     -8.640648      5.572136
     2   1 1 0      0.000000      0.000000      0.000000      0.000000
     2   1 0 1      0.000000      0.000000      0.000000      0.000000
     2   0 2 0    -11.709159     -8.640648     -8.640648      5.572136
     2   0 1 1      0.000000      0.000000      0.000000      0.000000
     2   0 0 2    -14.442105    -25.356130    -25.356130     36.270156


 Parallel integral file used       4 records with       0 large values

 Line search: 
     step= 1.00 grad=-7.3D-10 hess=-1.4D-08 energy=   -115.191974 mode=accept  
 new step= 1.00                   predicted energy=   -115.191974

          --------
          Step   1
          --------


                         Geometry "geometry" -> "geometry"
                         ---------------------------------

 Output coordinates in angstroms (scale by  1.889725989 to convert to a.u.)

  No.       Tag          Charge          X              Y              Z
 ---- ---------------- ---------- -------------- -------------- --------------
    1 o                    8.0000     0.00000000     0.00000000    -0.82558605
    2 c                    6.0000     0.00000000     0.00000000     0.51065079
    3 h                    1.0000     0.72119281     0.72119281     1.02296230
    4 h                    1.0000     0.26397489    -0.98516769     1.02296230
    5 h                    1.0000    -0.98516769     0.26397489     1.02296230

      Atomic Mass 
      ----------- 

      o                 15.994910
      c                 12.000000
      h                  1.007825


 Effective nuclear repulsion energy (a.u.)      34.2686443677

            Nuclear Dipole moment (a.u.) 
            ----------------------------
        X                 Y               Z
 ---------------- ---------------- ----------------
     0.0000000000     0.0000000000    -0.8917555436

      Symmetry information
      --------------------

 Group name             C3v       
 Group number             17
 Group order               6
 No. of unique centers     3

      Symmetry unique atoms

     1    2    3


                                 NWChem DFT Module
                                 -----------------




 Summary of "ao basis" -> "ao basis" (cartesian)
 ------------------------------------------------------------------------------
       Tag                 Description            Shells   Functions and Types
 ---------------- ------------------------------  ------  ---------------------
 o                           6-31g*                  6       15   3s2p1d
 c                           6-31g*                  6       15   3s2p1d
 h                           6-31g*                  2        2   2s


      Symmetry analysis of basis
      --------------------------

        a1         16
        a2          0
        e          20


          ---------------
          -cosmo- solvent
          ---------------
 dielectric constant -eps-     =  78.40
 charge screening approach     =   2
 screen = (eps-1)/(eps    )    =   0.98724
 -lineq- algorithm             =   1
 -bem- low  level              =   2
 -bem- high level              =   4
 -bem- from -octahedral-
 solvent radius (ang.)         =   0.000
 gaussian surface charge width =   1.00000
 degree of switching           =   1.00000
 switching function tolerance  =   0.00010
 atomic radii = 
 --------------
    1  8.000  1.720
    2  6.000  2.000
    3  1.000  1.300
    4  1.000  1.300
    5  1.000  1.300

 solvent accessible surface
 --------------------------

 ---------- ATOMIC COORDINATES (A.U.) ------------ VDWR(ANG.) --
     1    0.00000000    0.00000000   -1.56013141     1.720
     2    0.00000000    0.00000000    0.96499006     2.000
     3    1.36285679    1.36285679    1.93311845     1.300
     4    0.49884021   -1.86169700    1.93311845     1.300
     5   -1.86169700    0.49884021    1.93311845     1.300
 number of segments per atom =         32
 number of   points per atom =         32
 atom (   nspa,  nppa )
 ----------------------
    1 (     24,     0 )       0
    2 (     21,     0 )       0
    3 (     16,     0 )       0
    4 (     16,     0 )       0
    5 (     16,     0 )       0
 number of -cosmo- surface points =       93
 molecular surface =     64.999 angstrom**2
 molecular volume  =     36.555 angstrom**3
 G(cav/disp)       =      1.185 kcal/mol
 ...... end of -cosmo- initialization ......



  The DFT is already converged 

         Total DFT energy =   -115.191974162473



                            NWChem DFT Gradient Module
                            --------------------------



  charge          =  -1.00
  wavefunction    = closed shell

  Rotation of axis 
  Using symmetry


                         DFT ENERGY GRADIENTS

    atom               coordinates                        gradient
                 x          y          z           x          y          z
   1 o       0.000000   0.000000  -1.560131    0.000000   0.000000   0.000000
   2 c       0.000000   0.000000   0.964990    0.000000   0.000000   0.000001
   3 h       1.362857   1.362857   1.933118    0.000000   0.000000   0.000000
   4 h       0.498840  -1.861697   1.933118    0.000000   0.000000   0.000000
   5 h      -1.861697   0.498840   1.933118    0.000000   0.000000   0.000000

                 ----------------------------------------
                 |  Time  |  1-e(secs)   |  2-e(secs)   |
                 ----------------------------------------
                 |  CPU   |       0.02   |       0.18   |
                 ----------------------------------------
                 |  WALL  |       0.04   |       0.18   |
                 ----------------------------------------

  Step       Energy      Delta E   Gmax     Grms     Xrms     Xmax   Walltime
  ---- ---------------- -------- -------- -------- -------- -------- --------
@    1    -115.19197416 -1.4D-08  0.00000  0.00000  0.00001  0.00003     42.9
                                     ok       ok       ok       ok  



                                Z-matrix (autoz)
                                -------- 

 Units are Angstrom for bonds and degrees for angles

      Type          Name      I     J     K     L     M      Value     Gradient
      ----------- --------  ----- ----- ----- ----- ----- ---------- ----------
    1 Stretch                  1     2                       1.33624    0.00000
    2 Stretch                  2     3                       1.14136    0.00000
    3 Stretch                  2     4                       1.14136    0.00000
    4 Stretch                  2     5                       1.14136    0.00000
    5 Bend                     1     2     3               116.67062    0.00000
    6 Bend                     1     2     4               116.67062    0.00000
    7 Bend                     1     2     5               116.67062    0.00000
    8 Bend                     3     2     4               101.40752    0.00000
    9 Bend                     3     2     5               101.40752    0.00000
   10 Bend                     4     2     5               101.40752    0.00000


      ----------------------
      Optimization converged
      ----------------------


  Step       Energy      Delta E   Gmax     Grms     Xrms     Xmax   Walltime
  ---- ---------------- -------- -------- -------- -------- -------- --------
@    1    -115.19197416 -1.4D-08  0.00000  0.00000  0.00001  0.00003     42.9
                                     ok       ok       ok       ok  



                                Z-matrix (autoz)
                                -------- 

 Units are Angstrom for bonds and degrees for angles

      Type          Name      I     J     K     L     M      Value     Gradient
      ----------- --------  ----- ----- ----- ----- ----- ---------- ----------
    1 Stretch                  1     2                       1.33624    0.00000
    2 Stretch                  2     3                       1.14136    0.00000
    3 Stretch                  2     4                       1.14136    0.00000
    4 Stretch                  2     5                       1.14136    0.00000
    5 Bend                     1     2     3               116.67062    0.00000
    6 Bend                     1     2     4               116.67062    0.00000
    7 Bend                     1     2     5               116.67062    0.00000
    8 Bend                     3     2     4               101.40752    0.00000
    9 Bend                     3     2     5               101.40752    0.00000
   10 Bend                     4     2     5               101.40752    0.00000



                         Geometry "geometry" -> "geometry"
                         ---------------------------------

 Output coordinates in angstroms (scale by  1.889725989 to convert to a.u.)

  No.       Tag          Charge          X              Y              Z
 ---- ---------------- ---------- -------------- -------------- --------------
    1 o                    8.0000     0.00000000     0.00000000    -0.82558605
    2 c                    6.0000     0.00000000     0.00000000     0.51065079
    3 h                    1.0000     0.72119281     0.72119281     1.02296230
    4 h                    1.0000     0.26397489    -0.98516769     1.02296230
    5 h                    1.0000    -0.98516769     0.26397489     1.02296230

      Atomic Mass 
      ----------- 

      o                 15.994910
      c                 12.000000
      h                  1.007825


 Effective nuclear repulsion energy (a.u.)      34.2686443677

            Nuclear Dipole moment (a.u.) 
            ----------------------------
        X                 Y               Z
 ---------------- ---------------- ----------------
     0.0000000000     0.0000000000    -0.8917555436

      Symmetry information
      --------------------

 Group name             C3v       
 Group number             17
 Group order               6
 No. of unique centers     3

      Symmetry unique atoms

     1    2    3


                Final and change from initial internal coordinates
                --------------------------------------------------



                                Z-matrix (autoz)
                                -------- 

 Units are Angstrom for bonds and degrees for angles

      Type          Name      I     J     K     L     M      Value       Change
      ----------- --------  ----- ----- ----- ----- ----- ---------- ----------
    1 Stretch                  1     2                       1.33624    0.00001
    2 Stretch                  2     3                       1.14136   -0.00001
    3 Stretch                  2     4                       1.14136   -0.00001
    4 Stretch                  2     5                       1.14136   -0.00001
    5 Bend                     1     2     3               116.67062   -0.00090
    6 Bend                     1     2     4               116.67062   -0.00090
    7 Bend                     1     2     5               116.67062   -0.00090
    8 Bend                     3     2     4               101.40752    0.00110
    9 Bend                     3     2     5               101.40752    0.00110
   10 Bend                     4     2     5               101.40752    0.00110

 ==============================================================================
                                internuclear distances
 ------------------------------------------------------------------------------
       center one      |      center two      | atomic units |  angstroms
 ------------------------------------------------------------------------------
    2 c                |   1 o                |     2.52512  |     1.33624
    3 h                |   2 c                |     2.15686  |     1.14136
    4 h                |   2 c                |     2.15686  |     1.14136
    5 h                |   2 c                |     2.15686  |     1.14136
 ------------------------------------------------------------------------------
                         number of included internuclear distances:          4
 ==============================================================================



 ==============================================================================
                                 internuclear angles
 ------------------------------------------------------------------------------
        center 1       |       center 2       |       center 3       |  degrees
 ------------------------------------------------------------------------------
    1 o                |   2 c                |   3 h                |   116.67
    1 o                |   2 c                |   4 h                |   116.67
    1 o                |   2 c                |   5 h                |   116.67
    3 h                |   2 c                |   4 h                |   101.41
    3 h                |   2 c                |   5 h                |   101.41
    4 h                |   2 c                |   5 h                |   101.41
 ------------------------------------------------------------------------------
                            number of included internuclear angles:          6
 ==============================================================================




 Task  times  cpu:        9.1s     wall:       10.0s
 Summary of allocated global arrays
-----------------------------------
  No active global arrays



                         GA Statistics for process    0
                         ------------------------------

       create   destroy   get      put      acc     scatter   gather  read&inc
calls: 2153     2153     6.33e+04 6340     1.80e+04    0        0     2517     
number of processes/call 1.19e+00 1.53e+00 1.17e+00 0.00e+00 0.00e+00
bytes total:             4.06e+07 1.09e+07 1.90e+07 0.00e+00 0.00e+00 2.01e+04
bytes remote:            1.25e+07 2.13e+06 6.62e+06 0.00e+00 0.00e+00 0.00e+00
Max memory consumed for GA by this process: 272352 bytes
MA_summarize_allocated_blocks: starting scan ...
MA_summarize_allocated_blocks: scan completed: 0 heap blocks, 0 stack blocks
MA usage statistics:

	allocation statistics:
					      heap	     stack
					      ----	     -----
	current number of blocks	         0	         0
	maximum number of blocks	        29	        51
	current total bytes		         0	         0
	maximum total bytes		   1760360	  32696584
	maximum total K-bytes		      1761	     32697
	maximum total M-bytes		         2	        33


                                NWChem Input Module
                                -------------------





                                     CITATION
                                     --------
                Please cite the following reference when publishing
                           results obtained with NWChem:

                 M. Valiev, E.J. Bylaska, N. Govind, K. Kowalski,
              T.P. Straatsma, H.J.J. van Dam, D. Wang, J. Nieplocha,
                        E. Apra, T.L. Windus, W.A. de Jong
                 "NWChem: a comprehensive and scalable open-source
                  solution for large scale molecular simulations"
                      Comput. Phys. Commun. 181, 1477 (2010)
                           doi:10.1016/j.cpc.2010.04.018

                              AUTHORS & CONTRIBUTORS
                              ----------------------
          E. Apra, E. J. Bylaska, W. A. de Jong, N. Govind, K. Kowalski,
       T. P. Straatsma, M. Valiev, H. J. J. van Dam, D. Wang, T. L. Windus,
        J. Hammond, J. Autschbach, K. Bhaskaran-Nair, J. Brabec, K. Lopata,
     F. Aquino, S. Hirata, M. T. Hackler, T. Risthaus, M. Malagoli, J. Mullin,
        P. Nichols, R. Peverati, J. Pittner, Y. Zhao, P.-D. Fan, A. Fonari,
     R. J. Harrison, M. Dupuis, D. Silverstein, D. M. A. Smith, J. Nieplocha,
       V. Tipparaju, M. Krishnan, B. E. Van Kuiken,  A. Vazquez-Mayagoitia,
        L. Jensen, M. Swart, Q. Wu, T. Van Voorhis, A. A. Auer, M. Nooijen,
      L. D. Crosby, E. Brown, G. Cisneros, G. I. Fann, H. Fruchtl, J. Garza,
   K. Hirao, R. Kendall, J. A. Nichols, K. Tsemekhman, K. Wolinski, J. Anchell,
       D. Bernholdt, P. Borowski, T. Clark, D. Clerc, H. Dachsel, M. Deegan,
        K. Dyall, D. Elwood, E. Glendening, M. Gutowski, A. Hess, J. Jaffe,
   B. Johnson, J. Ju, R. Kobayashi, R. Kutteh, Z. Lin, R. Littlefield, X. Long,
        B. Meng,T. Nakajima, S. Niu, L. Pollack, M. Rosing, K. Glaesemann,
      G. Sandrone, M. Stave, H. Taylor, G. Thomas, J. H. van Lenthe, A. Wong,
                                     Z.Zhang.

 Total times  cpu:       38.0s     wall:       42.9s
