refund: UserID = kowalski
refund: SLURM Job ID = 2679114
refund: Number of nodes          = 4
refund: Number of cores per node = 16
refund: Number of cores          = 64
refund: Amount of time requested = 2:00
refund: Directory = /home/kowalski/NWCHEM_GITHUB/nwchem_2018_clean/QA/chem_library_tests/Ar
 
Processor list
 
g[974,1012,1066,1113]
 
 argument  1 = /home/kowalski/NWCHEM_GITHUB/nwchem_2018_clean/QA/chem_library_tests/Ar/ar_ccpvdz.nw
All connections between all procs tested: SUCCESS
 


============================== echo of input deck ==============================
start ar_ccpvdz

echo

geometry units bohr
symmetry c1
  ar  0.0 0.0 0.0
end

basis
 * library cc-pvdz
end

scf
thresh 1.0e-10
tol2e 1.0e-11
singlet
rhf
end

tce
2eorb
2emet 13
tilesize 1
ccsd
thresh 1.0e-6
nroots 1
end

set tce:print_integrals T
set tce:qorb 19
set tce:qela  9
set tce:qelb  9

task tce energy

================================================================================


                                         
                                         
 
 
              Northwest Computational Chemistry Package (NWChem) 6.8
              ------------------------------------------------------
 
 
                    Environmental Molecular Sciences Laboratory
                       Pacific Northwest National Laboratory
                                Richland, WA 99352
 
                              Copyright (c) 1994-2018
                       Pacific Northwest National Laboratory
                            Battelle Memorial Institute
 
             NWChem is an open-source computational chemistry package
                        distributed under the terms of the
                      Educational Community License (ECL) 2.0
             A copy of the license is included with this distribution
                              in the LICENSE.TXT file
 
                                  ACKNOWLEDGMENT
                                  --------------

            This software and its documentation were developed at the
            EMSL at Pacific Northwest National Laboratory, a multiprogram
            national laboratory, operated for the U.S. Department of Energy
            by Battelle under Contract Number DE-AC05-76RL01830. Support
            for this work was provided by the Department of Energy Office
            of Biological and Environmental Research, Office of Basic
            Energy Sciences, and the Office of Advanced Scientific Computing.


           Job information
           ---------------

    hostname        = g974
    program         = /home/kowalski/NWCHEM_GITHUB/nwchem_2018_clean/bin/LINUX64/nwchem
    date            = Wed Oct 17 19:50:57 2018

    compiled        = Wed_Oct_17_13:24:31_2018
    source          = /home/kowalski/NWCHEM_GITHUB/nwchem_2018_clean
    nwchem branch   = Development
    nwchem revision = nwchem_on_git-600-g8e3a403
    ga revision     = 5.6.5
    use scalapack   = T
    input           = /home/kowalski/NWCHEM_GITHUB/nwchem_2018_clean/QA/chem_library_tests/Ar/ar_ccpvdz.nw
    prefix          = ar_ccpvdz.
    data base       = ./ar_ccpvdz.db
    status          = startup
    nproc           =       64
    time left       =     -1s



           Memory information
           ------------------

    heap     =   13107198 doubles =    100.0 Mbytes
    stack    =   13107195 doubles =    100.0 Mbytes
    global   =   26214400 doubles =    200.0 Mbytes (distinct from heap & stack)
    total    =   52428793 doubles =    400.0 Mbytes
    verify   = yes
    hardfail = no 


           Directory information
           ---------------------
 
  0 permanent = .
  0 scratch   = .
 
 
 
 
                                NWChem Input Module
                                -------------------
 
 
 
 
                             Geometry "geometry" -> ""
                             -------------------------
 
 Output coordinates in a.u. (scale by  1.000000000 to convert to a.u.)
 
  No.       Tag          Charge          X              Y              Z
 ---- ---------------- ---------- -------------- -------------- --------------
    1 ar                  18.0000     0.00000000     0.00000000     0.00000000
 
      Atomic Mass 
      ----------- 
 
      ar                39.962400
 

 Effective nuclear repulsion energy (a.u.)       0.0000000000

            Nuclear Dipole moment (a.u.) 
            ----------------------------
        X                 Y               Z
 ---------------- ---------------- ----------------
     0.0000000000     0.0000000000     0.0000000000
 
 
            XYZ format geometry
            -------------------
     1
 geometry
 ar                    0.00000000     0.00000000     0.00000000
 
  library name resolved from: environment
  library file name is: <
 /home/scicons/cascade/apps/nwchem-6.8.1_rhel7/src/basis/libraries/>
  


 Summary of "ao basis" -> "" (cartesian)
 ------------------------------------------------------------------------------
       Tag                 Description            Shells   Functions and Types
 ---------------- ------------------------------  ------  ---------------------
 *                          cc-pvdz                   on all atoms 


                      Basis "ao basis" -> "ao basis" (cartesian)
                      -----
  ar (Argon)
  ----------
            Exponent  Coefficients 
       -------------- ---------------------------------------------------------
  1 S  1.45700000E+05  0.000237
  1 S  2.18400000E+04  0.001835
  1 S  4.97200000E+03  0.009529
  1 S  1.40800000E+03  0.038628
  1 S  4.59700000E+02  0.124081
  1 S  1.65900000E+02  0.296471
  1 S  6.46900000E+01  0.422068
  1 S  2.64400000E+01  0.241711
  1 S  7.62800000E+00  0.020051
  1 S  2.99600000E+00 -0.003610
  1 S  6.50400000E-01  0.000976
 
  2 S  1.45700000E+05 -0.000067
  2 S  2.18400000E+04 -0.000519
  2 S  4.97200000E+03 -0.002748
  2 S  1.40800000E+03 -0.011101
  2 S  4.59700000E+02 -0.038482
  2 S  1.65900000E+02 -0.099760
  2 S  6.46900000E+01 -0.203088
  2 S  2.64400000E+01 -0.135608
  2 S  7.62800000E+00  0.507195
  2 S  2.99600000E+00  0.612898
  2 S  6.50400000E-01  0.044297
 
  3 S  1.45700000E+05  0.000021
  3 S  2.18400000E+04  0.000163
  3 S  4.97200000E+03  0.000855
  3 S  1.40800000E+03  0.003497
  3 S  4.59700000E+02  0.012016
  3 S  1.65900000E+02  0.032137
  3 S  6.46900000E+01  0.065528
  3 S  2.64400000E+01  0.049937
  3 S  7.62800000E+00 -0.229769
  3 S  2.99600000E+00 -0.421006
  3 S  6.50400000E-01  0.642331
 
  4 S  2.33700000E-01  1.000000
 
  5 P  4.53700000E+02  0.005706
  5 P  1.06800000E+02  0.043046
  5 P  3.37300000E+01  0.176591
  5 P  1.21300000E+01  0.406863
  5 P  4.59400000E+00  0.452549
  5 P  1.67800000E+00  0.122801
  5 P  5.90900000E-01 -0.004460
 
  6 P  4.53700000E+02 -0.001607
  6 P  1.06800000E+02 -0.012171
  6 P  3.37300000E+01 -0.052079
  6 P  1.21300000E+01 -0.123737
  6 P  4.59400000E+00 -0.151619
  6 P  1.67800000E+00  0.142425
  6 P  5.90900000E-01  0.584501
 
  7 P  1.85200000E-01  1.000000
 
  8 D  7.38000000E-01  1.000000
 


 Summary of "ao basis" -> "ao basis" (cartesian)
 ------------------------------------------------------------------------------
       Tag                 Description            Shells   Functions and Types
 ---------------- ------------------------------  ------  ---------------------
 ar                         cc-pvdz                  8       19   4s3p1d


                                 NWChem SCF Module
                                 -----------------
 
 

  ao basis        = "ao basis"
  functions       =    19
  atoms           =     1
  closed shells   =     9
  open shells     =     0
  charge          =   0.00
  wavefunction    = RHF 
  input vectors   = atomic
  output vectors  = ./ar_ccpvdz.movecs
  use symmetry    = F
  symmetry adapt  = F


 Summary of "ao basis" -> "ao basis" (cartesian)
 ------------------------------------------------------------------------------
       Tag                 Description            Shells   Functions and Types
 ---------------- ------------------------------  ------  ---------------------
 ar                         cc-pvdz                  8       19   4s3p1d



 Forming initial guess at      31.8s

 
      Superposition of Atomic Density Guess
      -------------------------------------
 
 Sum of atomic energies:        -526.79986540
 
      Non-variational initial energy
      ------------------------------

 Total energy =    -526.799865
 1-e energy   =    -728.276229
 2-e energy   =     201.476364
 HOMO         =      -0.588036
 LUMO         =       0.797192
 

 Starting SCF solution at      32.1s



 ----------------------------------------------
         Quadratically convergent ROHF

 Convergence threshold     :          1.000E-10
 Maximum no. of iterations :           30
 Final Fock-matrix accuracy:          1.000E-11
 ----------------------------------------------


              iter       energy          gnorm     gmax       time
             ----- ------------------- --------- --------- --------
                 1     -526.8000795850  6.96D-03  6.36D-03      2.5
                 2     -526.8000800547  3.27D-05  1.25D-05      2.7
                 3     -526.8000800548  7.42D-10  5.68D-10      3.0
                 4     -526.8000800548  5.32D-12  3.07D-12      3.2


       Final RHF  results 
       ------------------ 

         Total SCF energy =   -526.800080054771
      One-electron energy =   -728.253481974060
      Two-electron energy =    201.453401919289
 Nuclear repulsion energy =      0.000000000000

        Time for solution =      0.8s


             Final eigenvalues
             -----------------

              1      
    1 -118.6110
    2  -12.3188
    3   -9.5684
    4   -9.5684
    5   -9.5684
    6   -1.2743
    7   -0.5880
    8   -0.5880
    9   -0.5880
   10    0.7971
   11    0.7971
   12    0.7971
   13    0.8195
   14    1.1084
   15    1.1084
   16    1.1084
   17    1.1084
   18    1.1084
   19    3.7521
 
                       ROHF Final Molecular Orbital Analysis
                       -------------------------------------
 
 Vector    2  Occ=2.000000D+00  E=-1.231881D+01
              MO Center= -2.1D-16,  1.0D-17,  1.6D-18, r^2= 5.6D-02
   Bfn.  Coefficient  Atom+Function         Bfn.  Coefficient  Atom+Function  
  ----- ------------  ---------------      ----- ------------  ---------------
     2      1.004574  1 Ar s          
 
 Vector    3  Occ=2.000000D+00  E=-9.568373D+00
              MO Center=  1.1D-16,  4.0D-18, -2.3D-18, r^2= 4.9D-02
   Bfn.  Coefficient  Atom+Function         Bfn.  Coefficient  Atom+Function  
  ----- ------------  ---------------      ----- ------------  ---------------
     5      0.999155  1 Ar px         
 
 Vector    4  Occ=2.000000D+00  E=-9.568373D+00
              MO Center= -1.6D-18,  3.0D-18,  5.2D-19, r^2= 4.9D-02
   Bfn.  Coefficient  Atom+Function         Bfn.  Coefficient  Atom+Function  
  ----- ------------  ---------------      ----- ------------  ---------------
     6      0.999158  1 Ar py         
 
 Vector    5  Occ=2.000000D+00  E=-9.568373D+00
              MO Center=  1.9D-19, -1.8D-18,  1.0D-17, r^2= 4.9D-02
   Bfn.  Coefficient  Atom+Function         Bfn.  Coefficient  Atom+Function  
  ----- ------------  ---------------      ----- ------------  ---------------
     7      0.999719  1 Ar pz         
 
 Vector    6  Occ=2.000000D+00  E=-1.274303D+00
              MO Center=  3.2D-17,  1.3D-18,  4.1D-19, r^2= 6.6D-01
   Bfn.  Coefficient  Atom+Function         Bfn.  Coefficient  Atom+Function  
  ----- ------------  ---------------      ----- ------------  ---------------
     4      0.566485  1 Ar s                  3      0.542957  1 Ar s          
 
 Vector    7  Occ=2.000000D+00  E=-5.880332D-01
              MO Center= -1.1D-17, -2.4D-18, -1.7D-17, r^2= 9.2D-01
   Bfn.  Coefficient  Atom+Function         Bfn.  Coefficient  Atom+Function  
  ----- ------------  ---------------      ----- ------------  ---------------
    10      0.595628  1 Ar pz                13      0.389804  1 Ar pz         
     9      0.288685  1 Ar py                12      0.188927  1 Ar py         
 
 Vector    8  Occ=2.000000D+00  E=-5.880332D-01
              MO Center= -4.5D-17, -1.1D-17,  2.2D-17, r^2= 9.2D-01
   Bfn.  Coefficient  Atom+Function         Bfn.  Coefficient  Atom+Function  
  ----- ------------  ---------------      ----- ------------  ---------------
     8      0.654799  1 Ar px                11      0.428528  1 Ar px         
 
 Vector    9  Occ=2.000000D+00  E=-5.880332D-01
              MO Center=  5.2D-17, -1.9D-17, -2.8D-17, r^2= 9.2D-01
   Bfn.  Coefficient  Atom+Function         Bfn.  Coefficient  Atom+Function  
  ----- ------------  ---------------      ----- ------------  ---------------
     9      0.589111  1 Ar py                12      0.385538  1 Ar py         
    10     -0.300652  1 Ar pz                13     -0.196759  1 Ar pz         
 
 Vector   10  Occ=0.000000D+00  E= 7.971349D-01
              MO Center=  5.7D-15, -8.6D-16,  1.3D-15, r^2= 2.0D+00
   Bfn.  Coefficient  Atom+Function         Bfn.  Coefficient  Atom+Function  
  ----- ------------  ---------------      ----- ------------  ---------------
    11      1.168897  1 Ar px                 8     -1.059598  1 Ar px         
    13      0.266197  1 Ar pz                10     -0.241306  1 Ar pz         
    12     -0.180847  1 Ar py                 5     -0.164725  1 Ar px         
     9      0.163937  1 Ar py         
 
 Vector   11  Occ=0.000000D+00  E= 7.971349D-01
              MO Center=  1.5D-15,  1.1D-15, -5.8D-15, r^2= 2.0D+00
   Bfn.  Coefficient  Atom+Function         Bfn.  Coefficient  Atom+Function  
  ----- ------------  ---------------      ----- ------------  ---------------
    13      1.156601  1 Ar pz                10     -1.048452  1 Ar pz         
    11     -0.296042  1 Ar px                 8      0.268360  1 Ar px         
    12     -0.210997  1 Ar py                 9      0.191268  1 Ar py         
     7     -0.162992  1 Ar pz         
 
 Vector   12  Occ=0.000000D+00  E= 7.971349D-01
              MO Center=  9.3D-16,  8.5D-15,  1.8D-15, r^2= 2.0D+00
   Bfn.  Coefficient  Atom+Function         Bfn.  Coefficient  Atom+Function  
  ----- ------------  ---------------      ----- ------------  ---------------
    12      1.180110  1 Ar py                 9     -1.069763  1 Ar py         
    13      0.247587  1 Ar pz                10     -0.224436  1 Ar pz         
     6     -0.166305  1 Ar py         
 
 Vector   13  Occ=0.000000D+00  E= 8.195116D-01
              MO Center= -8.1D-15, -8.8D-15,  2.8D-15, r^2= 1.7D+00
   Bfn.  Coefficient  Atom+Function         Bfn.  Coefficient  Atom+Function  
  ----- ------------  ---------------      ----- ------------  ---------------
     4      2.363015  1 Ar s                  3     -1.428458  1 Ar s          
     2     -1.122343  1 Ar s                 14     -0.399477  1 Ar dxx        
    17     -0.399477  1 Ar dyy               19     -0.399477  1 Ar dzz        
     1     -0.179211  1 Ar s          
 
 Vector   14  Occ=0.000000D+00  E= 1.108428D+00
              MO Center=  6.0D-18,  7.7D-18, -3.5D-17, r^2= 6.6D-01
   Bfn.  Coefficient  Atom+Function         Bfn.  Coefficient  Atom+Function  
  ----- ------------  ---------------      ----- ------------  ---------------
    19      0.998427  1 Ar dzz               17     -0.547327  1 Ar dyy        
    14     -0.451100  1 Ar dxx        
 
 Vector   15  Occ=0.000000D+00  E= 1.108428D+00
              MO Center= -1.9D-18,  6.3D-18,  1.7D-18, r^2= 6.6D-01
   Bfn.  Coefficient  Atom+Function         Bfn.  Coefficient  Atom+Function  
  ----- ------------  ---------------      ----- ------------  ---------------
    14      0.888989  1 Ar dxx               17     -0.833341  1 Ar dyy        
 
 Vector   16  Occ=0.000000D+00  E= 1.108428D+00
              MO Center= -6.7D-17, -2.4D-17,  1.6D-17, r^2= 6.6D-01
   Bfn.  Coefficient  Atom+Function         Bfn.  Coefficient  Atom+Function  
  ----- ------------  ---------------      ----- ------------  ---------------
    15      1.481194  1 Ar dxy               16     -0.877217  1 Ar dxz        
    18     -0.173186  1 Ar dyz        
 
 Vector   17  Occ=0.000000D+00  E= 1.108428D+00
              MO Center= -1.5D-17, -1.2D-17, -2.8D-18, r^2= 6.6D-01
   Bfn.  Coefficient  Atom+Function         Bfn.  Coefficient  Atom+Function  
  ----- ------------  ---------------      ----- ------------  ---------------
    16      1.460009  1 Ar dxz               15      0.805419  1 Ar dxy        
    18     -0.455602  1 Ar dyz        
 
 Vector   18  Occ=0.000000D+00  E= 1.108428D+00
              MO Center= -1.9D-18, -3.6D-17,  2.0D-17, r^2= 6.6D-01
   Bfn.  Coefficient  Atom+Function         Bfn.  Coefficient  Atom+Function  
  ----- ------------  ---------------      ----- ------------  ---------------
    18      1.658403  1 Ar dyz               15      0.382786  1 Ar dxy        
    16      0.312052  1 Ar dxz        
 
 Vector   19  Occ=0.000000D+00  E= 3.752067D+00
              MO Center=  5.9D-17,  7.9D-17,  1.8D-17, r^2= 8.8D-01
   Bfn.  Coefficient  Atom+Function         Bfn.  Coefficient  Atom+Function  
  ----- ------------  ---------------      ----- ------------  ---------------
     3      2.289458  1 Ar s                  4      1.916047  1 Ar s          
    14     -1.783244  1 Ar dxx               17     -1.783244  1 Ar dyy        
    19     -1.783244  1 Ar dzz                2      0.912490  1 Ar s          
 

 center of mass
 --------------
 x =   0.00000000 y =   0.00000000 z =   0.00000000

 moments of inertia (a.u.)
 ------------------
           0.000000000000           0.000000000000           0.000000000000
           0.000000000000           0.000000000000           0.000000000000
           0.000000000000           0.000000000000           0.000000000000
 
  Mulliken analysis of the total density
  --------------------------------------

    Atom       Charge   Shell Charges
 -----------   ------   -------------------------------------------------------
    1 Ar  18    18.00   2.00  2.01  0.97  1.02  6.00  3.77  2.23 -0.00
 
       Multipole analysis of the density wrt the origin
       ------------------------------------------------
 
     L   x y z        total         open         nuclear
     -   - - -        -----         ----         -------
     0   0 0 0     -0.000000      0.000000     18.000000
 
     1   1 0 0      0.000000      0.000000      0.000000
     1   0 1 0      0.000000      0.000000      0.000000
     1   0 0 1      0.000000      0.000000      0.000000
 
     2   2 0 0     -8.599068      0.000000      0.000000
     2   1 1 0     -0.000000      0.000000      0.000000
     2   1 0 1     -0.000000      0.000000      0.000000
     2   0 2 0     -8.599068      0.000000      0.000000
     2   0 1 1     -0.000000      0.000000      0.000000
     2   0 0 2     -8.599068      0.000000      0.000000
 
 ------------------------------------
     Number of active orbitals     19
     Number of active alpha electrons      9
     Number of active beta electrons       9
 ------------------------------------
                   NWChem Extensible Many-Electron Theory Module
                   ---------------------------------------------
 
              ======================================================
                   This portion of the program was automatically
                  generated by a Tensor Contraction Engine (TCE).
                  The development of this portion of the program
                 and TCE was supported by US Department of Energy,
                Office of Science, Office of Basic Energy Science.
                      TCE is a product of Battelle and PNNL.
              Please cite: S.Hirata, J.Phys.Chem.A 107, 9887 (2003).
              ======================================================
 
            General Information
            -------------------
      Number of processors :    64
         Wavefunction type : Restricted Hartree-Fock
          No. of electrons :    18
           Alpha electrons :     9
            Beta electrons :     9
           No. of orbitals :    38
            Alpha orbitals :    19
             Beta orbitals :    19
        Alpha frozen cores :     0
         Beta frozen cores :     0
     Alpha frozen virtuals :     0
      Beta frozen virtuals :     0
         Spin multiplicity : singlet 
    Number of AO functions :    19
       Number of AO shells :     8
        Use of symmetry is : off
      Symmetry adaption is : off
         Schwarz screening : 0.10D-10
 
          Correlation Information
          -----------------------
          Calculation type : Coupled-cluster singles & doubles                           
   Perturbative correction : none                                                        
            Max iterations :      100
        Residual threshold : 0.10D-05
     T(0) DIIS level shift : 0.00D+00
     L(0) DIIS level shift : 0.00D+00
     T(1) DIIS level shift : 0.00D+00
     L(1) DIIS level shift : 0.00D+00
     T(R) DIIS level shift : 0.00D+00
     T(I) DIIS level shift : 0.00D+00
   CC-T/L Amplitude update :  5-th order DIIS
     No. of excited states :     1
               Target root :     1
           Target symmetry : none
      Symmetry restriction : off
   Dipole & oscillator str : off
                I/O scheme : Global Array Library
        L-threshold :  0.10D-05
        EOM-threshold :  0.10D-05
 no EOMCCSD initial starts read in
 TCE RESTART OPTIONS
 READ_INT:   F
 WRITE_INT:  F
 READ_TA:    F
 WRITE_TA:   F
 READ_XA:    F
 WRITE_XA:   F
 READ_IN3:   F
 WRITE_IN3:  F
 SLICE:      F
 D4D5:       F
 
            Memory Information
            ------------------
          Available GA space size is    1677721239 doubles
          Available MA space size is      26212692 doubles
 
 Maximum block size supplied by input
 Maximum block size         1 doubles

 tile_dim =      1

 Block   Spin    Irrep     Size     Offset   Alpha
 -------------------------------------------------
   1    alpha     a      1 doubles       0       1
   2    alpha     a      1 doubles       1       2
   3    alpha     a      1 doubles       2       3
   4    alpha     a      1 doubles       3       4
   5    alpha     a      1 doubles       4       5
   6    alpha     a      1 doubles       5       6
   7    alpha     a      1 doubles       6       7
   8    alpha     a      1 doubles       7       8
   9    alpha     a      1 doubles       8       9
  10    beta      a      1 doubles       9       1
  11    beta      a      1 doubles      10       2
  12    beta      a      1 doubles      11       3
  13    beta      a      1 doubles      12       4
  14    beta      a      1 doubles      13       5
  15    beta      a      1 doubles      14       6
  16    beta      a      1 doubles      15       7
  17    beta      a      1 doubles      16       8
  18    beta      a      1 doubles      17       9
  19    alpha     a      1 doubles      18      19
  20    alpha     a      1 doubles      19      20
  21    alpha     a      1 doubles      20      21
  22    alpha     a      1 doubles      21      22
  23    alpha     a      1 doubles      22      23
  24    alpha     a      1 doubles      23      24
  25    alpha     a      1 doubles      24      25
  26    alpha     a      1 doubles      25      26
  27    alpha     a      1 doubles      26      27
  28    alpha     a      1 doubles      27      28
  29    beta      a      1 doubles      28      19
  30    beta      a      1 doubles      29      20
  31    beta      a      1 doubles      30      21
  32    beta      a      1 doubles      31      22
  33    beta      a      1 doubles      32      23
  34    beta      a      1 doubles      33      24
  35    beta      a      1 doubles      34      25
  36    beta      a      1 doubles      35      26
  37    beta      a      1 doubles      36      27
  38    beta      a      1 doubles      37      28

 Global array virtual files algorithm will be used

 Parallel file system coherency ......... OK
 
 Fock matrix recomputed
 1-e file size   =              361
 1-e file name   = ./ar_ccpvdz.f1
 Cpu & wall time / sec            0.1            0.1
 4-electron integrals stored in orbital form
 
 v2    file size   =            18145
 4-index algorithm nr.  13 is used
 imaxsize =       30
 imaxsize ichop =        0
 begin_one_electron_integrals
    1    1      -161.8737165671
    2    1         2.3781213715
    6    1        -0.6562672987
   13    1         0.3956141386
   19    1        -1.0099723771
    1    2         2.3781213715
    2    2       -38.8802062543
    6    2         2.5464464504
   13    2        -1.4848057547
   19    2         3.1104880030
    3    3       -38.1594006715
    7    3         0.3715566887
    8    3         2.4803009233
    9    3         0.4583402296
   10    3        -2.3332129707
   11    3         0.6329804788
   12    3        -0.3320938030
    4    4       -38.1594006715
    7    4         1.1103047000
    8    4        -0.5768205201
    9    4         2.2213789343
   10    4         0.4405878567
   11    4         0.3807441141
   12    4        -2.3697572887
    5    5       -38.1594006715
    7    5         2.2647719332
    8    5        -0.1241298779
    9    5        -1.1642262122
   10    5        -0.5628791355
   11    5        -2.3257693308
   12    5        -0.4783277599
    1    6        -0.6562672987
    2    6         2.5464464504
    6    6       -13.5120680588
   13    6         2.9837009554
   19    6        -2.9653631348
    3    7         0.3715566887
    4    7         1.1103047000
    5    7         2.2647719332
    7    7       -11.7941826975
   10    7         0.9850826803
   11    7         2.7476991518
   12    7         2.2877673095
    3    8         2.4803009233
    4    8        -0.5768205201
    5    8        -0.1241298779
    8    8       -11.7941826975
   10    8         3.5595569356
   11    8        -0.9770540305
   12    8        -0.3592180694
    3    9         0.4583402296
    4    9         2.2213789343
    5    9        -1.1642262122
    9    9       -11.7941826975
   10    9        -0.3365773504
   11    9        -2.2912076665
   12    9         2.8967569615
    3   10        -2.3332129707
    4   10         0.4405878567
    5   10        -0.5628791355
    7   10         0.9850826803
    8   10         3.5595569356
    9   10        -0.3365773504
   10   10        -8.8276540486
    3   11         0.6329804788
    4   11         0.3807441141
    5   11        -2.3257693308
    7   11         2.7476991518
    8   11        -0.9770540305
    9   11        -2.2912076665
   11   11        -8.8276540486
    3   12        -0.3320938030
    4   12        -2.3697572887
    5   12        -0.4783277599
    7   12         2.2877673095
    8   12        -0.3592180694
    9   12         2.8967569615
   12   12        -8.8276540486
    1   13         0.3956141386
    2   13        -1.4848057547
    6   13         2.9837009554
   13   13        -7.9514273108
   19   13         3.0740083836
   14   14       -10.5774115631
   15   15       -10.5774115631
   16   16       -10.5774115631
   17   17       -10.5774115631
   18   18       -10.5774115631
    1   19        -1.0099723771
    2   19         3.1104880030
    6   19        -2.9653631348
   13   19         3.0740083836
   19   19       -10.7069335774
 end_one_electron_integrals
 begin_two_electron_integrals
    1    1    1    1       10.9212068433
    2    1    1    1       -1.3220466224
    2    1    2    1        0.2650462557
    3    1    3    1        0.1687926127
    4    1    4    1        0.1687926127
    5    1    5    1        0.1687926127
    6    1    1    1        0.3924164846
    6    1    2    1       -0.0802937261
    6    1    6    1        0.0243591922
    6    1    2    2        0.0243958396
    6    1    3    3        0.0202990452
    6    1    4    4        0.0202990452
    6    1    5    5        0.0202990452
    7    1    3    1       -0.0064690862
    7    1    4    1       -0.0193312544
    7    1    5    1       -0.0394314122
    7    1    7    1        0.0116950562
    7    1    3    2       -0.0053718086
    7    1    4    2       -0.0160523133
    7    1    5    2       -0.0327431098
    7    1    6    3        0.0011590127
    7    1    6    4        0.0034634210
    7    1    6    5        0.0070646002
    8    1    3    1       -0.0431839368
    8    1    4    1        0.0100428866
    8    1    5    1        0.0021611961
    8    1    8    1        0.0116950562
    8    1    3    2       -0.0358591363
    8    1    4    2        0.0083394259
    8    1    5    2        0.0017946170
    8    1    6    3        0.0077369090
    8    1    6    4       -0.0017993010
    8    1    6    5       -0.0003872036
    9    1    3    1       -0.0079800541
    9    1    4    1       -0.0386759069
    9    1    5    1        0.0202700691
    9    1    9    1        0.0116950562
    9    1    3    2       -0.0066264882
    9    1    4    2       -0.0321157522
    9    1    5    2        0.0168318876
    9    1    6    3        0.0014297203
    9    1    6    4        0.0069292425
    9    1    6    5       -0.0036316207
   10    1    3    1        0.0444558435
   10    1    4    1       -0.0083947351
   10    1    5    1        0.0107248104
   10    1    7    1       -0.0032545575
   10    1    8    1       -0.0117602136
   10    1    9    1        0.0011119984
   10    1   10    1        0.0128375350
   10    1    3    2        0.0365973465
   10    1    4    2       -0.0069107907
   10    1    5    2        0.0088289766
   10    1    7    2       -0.0015130857
   10    1    8    2       -0.0054674748
   10    1    9    2        0.0005169824
   10    1    6    3       -0.0079187369
   10    1    6    4        0.0014953197
   10    1    6    5       -0.0019103665
   10    1    7    6        0.0012800190
   10    1    8    6        0.0046252976
   10    1    9    6       -0.0004373495
   11    1    3    1       -0.0120604855
   11    1    4    1       -0.0072545031
   11    1    5    1        0.0443140162
   11    1    7    1       -0.0090779638
   11    1    8    1        0.0032280321
   11    1    9    1        0.0075697880
   11    1   11    1        0.0128375350
   11    1    3    2       -0.0099285432
   11    1    4    2       -0.0059721185
   11    1    5    2        0.0364805901
   11    1    7    2       -0.0042204623
   11    1    8    2        0.0015007537
   11    1    9    2        0.0035192920
   11    1    6    3        0.0021482848
   11    1    6    4        0.0012922149
   11    1    6    5       -0.0078934738
   11    1    7    6        0.0035703675
   11    1    8    6       -0.0012695866
   11    1    9    6       -0.0029772012
   12    1    3    1        0.0063275450
   12    1    4    1        0.0451521402
   12    1    5    1        0.0091138119
   12    1    7    1       -0.0075584216
   12    1    8    1        0.0011867997
   12    1    9    1       -0.0095704272
   12    1   12    1        0.0128375350
   12    1    3    2        0.0052090195
   12    1    4    2        0.0371705582
   12    1    5    2        0.0075027556
   12    1    7    2       -0.0035140076
   12    1    8    2        0.0005517585
   12    1    9    2       -0.0044494149
   12    1    6    3       -0.0011270996
   12    1    6    4       -0.0080427654
   12    1    6    5       -0.0016234059
   12    1    7    6        0.0029727308
   12    1    8    6       -0.0004667689
   12    1    9    6        0.0037640536
   13    1    1    1       -0.2423762824
   13    1    2    1        0.0504610231
   13    1    6    1       -0.0153355031
   13    1   13    1        0.0097077928
   13    1    2    2       -0.0151415850
   13    1    6    2        0.0046994723
   13    1    3    3       -0.0118169983
   13    1    7    3        0.0004588776
   13    1    8    3        0.0030632059
   13    1    9    3        0.0005660565
   13    1   10    3       -0.0031588541
   13    1   11    3        0.0008569698
   13    1   12    3       -0.0004496100
   13    1    4    4       -0.0118169983
   13    1    7    4        0.0013712416
   13    1    8    4       -0.0007123813
   13    1    9    4        0.0027434337
   13    1   10    4        0.0005964962
   13    1   11    4        0.0005154759
   13    1   12    4       -0.0032083301
   13    1    5    5       -0.0118169983
   13    1    7    5        0.0027970246
   13    1    8    5       -0.0001533021
   13    1    9    5       -0.0014378354
   13    1   10    5       -0.0007620620
   13    1   11    5       -0.0031487764
   13    1   12    5       -0.0006475909
   13    1    6    6       -0.0014514421
   13    1    7    7       -0.0008344457
   13    1   10    7        0.0002324716
   13    1   11    7        0.0006484349
   13    1   12    7        0.0005398947
   13    1    8    8       -0.0008344457
   13    1   10    8        0.0008400268
   13    1   11    8       -0.0002305769
   13    1   12    8       -0.0000847726
   13    1    9    9       -0.0008344457
   13    1   10    9       -0.0000794295
   13    1   11    9       -0.0005407066
   13    1   12    9        0.0006836114
   13    1   10   10       -0.0009197087
   13    1   11   11       -0.0009197087
   13    1   12   12       -0.0009197087
   14    1   14    1        0.0000034628
   14    1    3    3       -0.0003470879
   14    1    4    3        0.0000021903
   14    1    5    3       -0.0000114229
   14    1    7    3        0.0000096530
   14    1    8    3        0.0000545180
   14    1    9    3        0.0000089258
   14    1   10    3       -0.0000528704
   14    1   11    3        0.0000124408
   14    1   12    3       -0.0000074748
   14    1    4    4       -0.0004216909
   14    1    5    4        0.0000128408
   14    1    7    4        0.0000277623
   14    1    8    4       -0.0000156498
   14    1    9    4        0.0000602156
   14    1   10    4        0.0000128181
   14    1   11    4        0.0000122296
   14    1   12    4       -0.0000642057
   14    1    5    5        0.0007687788
   14    1    7    5       -0.0001109151
   14    1    8    5        0.0000083081
   14    1    9    5        0.0000552158
   14    1   10    5        0.0000259052
   14    1   11    5        0.0001158265
   14    1   12    5        0.0000255134
   14    1    7    7        0.0000430264
   14    1    8    7       -0.0000043062
   14    1    9    7       -0.0000387472
   14    1   10    7       -0.0000096123
   14    1   11    7       -0.0000506309
   14    1   12    7        0.0000029389
   14    1    8    8       -0.0000284249
   14    1    9    8        0.0000038601
   14    1   10    8        0.0000255832
   14    1   11    8       -0.0000017011
   14    1   12    8       -0.0000027666
   14    1    9    9       -0.0000146016
   14    1   10    9        0.0000046780
   14    1   11    9        0.0000184061
   14    1   12    9        0.0000317217
   14    1   10   10       -0.0000224530
   14    1   11   10        0.0000174318
   14    1   12   10        0.0000049466
   14    1   11   11        0.0000504016
   14    1   12   11        0.0000173691
   14    1   12   12       -0.0000279486
   15    1   15    1        0.0000034628
   15    1    3    3        0.0006855693
   15    1    4    3       -0.0000060724
   15    1    5    3        0.0000204916
   15    1    7    3       -0.0000186468
   15    1    8    3       -0.0001077643
   15    1    9    3       -0.0000175373
   15    1   10    3        0.0001044042
   15    1   11    3       -0.0000248417
   15    1   12    3        0.0000144325
   15    1    4    4       -0.0006438218
   15    1    5    4       -0.0000370568
   15    1    7    4        0.0000507362
   15    1    8    4       -0.0000228597
   15    1    9    4        0.0000880300
   15    1   10    4        0.0000160854
   15    1   11    4        0.0000105317
   15    1   12    4       -0.0000999826
   15    1    5    5       -0.0000417475
   15    1    7    5        0.0000081125
   15    1    8    5       -0.0000049014
   15    1    9    5        0.0000015405
   15    1   10    5        0.0000026292
   15    1   11    5       -0.0000062079
   15    1   12    5       -0.0000065329
   15    1    7    7       -0.0000134520
   15    1    8    7        0.0000151877
   15    1    9    7       -0.0000187981
   15    1   10    7       -0.0000112997
   15    1   11    7        0.0000020930
   15    1   12    7        0.0000217388
   15    1    8    8        0.0000503119
   15    1    9    8        0.0000187492
   15    1   10    8       -0.0000450047
   15    1   11    8        0.0000120782
   15    1   12    8       -0.0000170164
   15    1    9    9       -0.0000368599
   15    1   10    9       -0.0000145336
   15    1   11    9       -0.0000034719
   15    1   12    9        0.0000375197
   15    1   10   10        0.0000466999
   15    1   11   10       -0.0000129697
   15    1   12   10        0.0000145302
   15    1   11   11       -0.0000005345
   15    1   12   11        0.0000026958
   15    1   12   12       -0.0000461655
   15    1   14   14       -0.0000042466
   16    1   16    1        0.0000034628
   16    1    3    3        0.0000170426
   16    1    4    3        0.0005683579
   16    1    5    3       -0.0003453683
   16    1    7    3        0.0000091714
   16    1    8    3        0.0000153724
   16    1    9    3       -0.0001059312
   16    1   10    3       -0.0000262046
   16    1   11    3       -0.0000666640
   16    1   12    3        0.0000768145
   16    1    4    4       -0.0000083187
   16    1    5    4       -0.0000492891
   16    1    7    4       -0.0000057203
   16    1    8    4       -0.0000899810
   16    1    9    4       -0.0000189642
   16    1   10    4        0.0000842344
   16    1   11    4       -0.0000304861
   16    1   12    4        0.0000094105
   16    1    5    5       -0.0000087239
   16    1    7    5        0.0000128457
   16    1    8    5        0.0000523883
   16    1    9    5        0.0000163181
   16    1   10    5       -0.0000510452
   16    1   11    5        0.0000140445
   16    1   12    5       -0.0000152468
   16    1    7    7       -0.0000051899
   16    1    8    7       -0.0000048533
   16    1    9    7        0.0000046559
   16    1   10    7        0.0000057425
   16    1   11    7        0.0000048390
   16    1   12    7       -0.0000008048
   16    1    8    8       -0.0000165782
   16    1    9    8        0.0000503783
   16    1   10    8        0.0000193569
   16    1   11    8        0.0000269840
   16    1   12    8       -0.0000337491
   16    1    9    9        0.0000217681
   16    1   10    9       -0.0000423307
   16    1   11    9        0.0000206889
   16    1   12    9       -0.0000133312
   16    1   10   10       -0.0000249180
   16    1   11   10       -0.0000263344
   16    1   12   10        0.0000326710
   16    1   11   11        0.0000169674
   16    1   12   11       -0.0000172023
   16    1   12   12        0.0000079505
   16    1   14   14       -0.0000002821
   16    1   15   14       -0.0000001681
   16    1   15   15       -0.0000006236
   17    1   17    1        0.0000034628
   17    1    3    3       -0.0000318614
   17    1    4    3        0.0003197133
   17    1    5    3        0.0005523642
   17    1    7    3       -0.0001009707
   17    1    8    3        0.0000210292
   17    1    9    3       -0.0000033269
   17    1   10    3        0.0000061922
   17    1   11    3        0.0000765415
   17    1   12    3        0.0000654244
   17    1    4    4        0.0000162986
   17    1    5    4       -0.0001920234
   17    1    7    4        0.0000188752
   17    1    8    4       -0.0000511415
   17    1    9    4       -0.0000257349
   17    1   10    4        0.0000408027
   17    1   11    4       -0.0000423869
   17    1   12    4        0.0000034255
   17    1    5    5        0.0000155628
   17    1    7    5       -0.0000017277
   17    1    8    5       -0.0000936702
   17    1    9    5        0.0000121298
   17    1   10    5        0.0000894181
   17    1   11    5       -0.0000155481
   17    1   12    5       -0.0000170904
   17    1    7    7        0.0000040631
   17    1    8    7        0.0000518238
   17    1    9    7        0.0000004641
   17    1   10    7       -0.0000451430
   17    1   11    7        0.0000097167
   17    1   12    7        0.0000019120
   17    1    8    8       -0.0000185148
   17    1    9    8       -0.0000010097
   17    1   10    8        0.0000034793
   17    1   11    8       -0.0000390262
   17    1   12    8       -0.0000293145
   17    1    9    9        0.0000144516
   17    1   10    9        0.0000019180
   17    1   11    9        0.0000073953
   17    1   12    9       -0.0000103768
   17    1   10   10        0.0000091838
   17    1   11   10        0.0000369908
   17    1   12   10        0.0000277700
   17    1   11   11       -0.0000134360
   17    1   12   11       -0.0000161818
   17    1   12   12        0.0000042522
   17    1   14   14        0.0000000073
   17    1   15   14        0.0000013385
   17    1   16   14       -0.0000158185
   17    1   15   15       -0.0000002744
   17    1   16   15       -0.0000098288
   17    1   16   16        0.0000035769
   18    1   18    1        0.0000034628
   18    1    3    3        0.0000386718
   18    1    4    3        0.0001402437
   18    1    5    3        0.0001414971
   18    1    7    3       -0.0000310706
   18    1    8    3        0.0000001610
   18    1    9    3       -0.0000104209
   18    1   10    3        0.0000069926
   18    1   11    3        0.0000162523
   18    1   12    3        0.0000267105
   18    1    4    4       -0.0000247340
   18    1    5    4        0.0006357018
   18    1    7    4       -0.0000927521
   18    1    8    4       -0.0000179380
   18    1    9    4        0.0000462863
   18    1   10    4        0.0000450239
   18    1   11    4        0.0000905176
   18    1   12    4        0.0000188932
   18    1    5    5       -0.0000139378
   18    1    7    5       -0.0000460371
   18    1    8    5        0.0000008868
   18    1    9    5       -0.0000945795
   18    1   10    5        0.0000027311
   18    1   11    5       -0.0000235504
   18    1   12    5        0.0001000693
   18    1    7    7        0.0000434244
   18    1    8    7        0.0000035425
   18    1    9    7        0.0000330819
   18    1   10    7       -0.0000106080
   18    1   11    7       -0.0000096028
   18    1   12    7       -0.0000464822
   18    1    8    8       -0.0000021110
   18    1    9    8        0.0000080989
   18    1   10    8        0.0000016182
   18    1   11    8        0.0000016205
   18    1   12    8       -0.0000077485
   18    1    9    9       -0.0000413134
   18    1   10    9       -0.0000180561
   18    1   11    9       -0.0000425846
   18    1   12    9        0.0000112430
   18    1   10   10       -0.0000003894
   18    1   11   10       -0.0000029859
   18    1   12   10        0.0000216485
   18    1   11   11       -0.0000195293
   18    1   12   11        0.0000409401
   18    1   12   12        0.0000199187
   18    1   14   14       -0.0000003134
   18    1   15   14       -0.0000020998
   18    1   16   14       -0.0000072234
   18    1   17   14       -0.0000031941
   18    1   15   15        0.0000032360
   18    1   16   15        0.0000000920
   18    1   17   15        0.0000097868
   18    1   16   16       -0.0000181247
   18    1   17   16        0.0000086494
   18    1   17   17        0.0000128852
   19    1    1    1        0.6297455650
   19    1    2    1       -0.1303867189
   19    1    6    1        0.0395907548
   19    1   13    1       -0.0249563363
   19    1   19    1        0.0643815944
   19    1    2    2        0.0381624195
   19    1    6    2       -0.0118580736
   19    1   13    2        0.0075876924
   19    1    3    3        0.0302982602
   19    1    7    3       -0.0011826645
   19    1    8    3       -0.0078947946
   19    1    9    3       -0.0014588963
   19    1   10    3        0.0081476332
   19    1   11    3       -0.0022103824
   19    1   12    3        0.0011596792
   19    1    4    4        0.0302982602
   19    1    7    4       -0.0035340984
   19    1    8    4        0.0018360190
   19    1    9    4       -0.0070706462
   19    1   10    4       -0.0015385429
   19    1   11    4       -0.0013295672
   19    1   12    4        0.0082752468
   19    1    5    5        0.0302982602
   19    1    7    5       -0.0072087661
   19    1    8    5        0.0003951052
   19    1    9    5        0.0037057305
   19    1   10    5        0.0019655869
   19    1   11    5        0.0081216399
   19    1   12    5        0.0016703315
   19    1    6    6        0.0036740957
   19    1   13    6       -0.0023586165
   19    1    7    7        0.0021641109
   19    1   10    7       -0.0006044407
   19    1   11    7       -0.0016859713
   19    1   12    7       -0.0014037600
   19    1    8    8        0.0021641109
   19    1   10    8       -0.0021841223
   19    1   11    8        0.0005995144
   19    1   12    8        0.0002204140
   19    1    9    9        0.0021641109
   19    1   10    9        0.0002065218
   19    1   11    9        0.0014058710
   19    1   12    9       -0.0017774323
   19    1   10   10        0.0023896167
   19    1   11   11        0.0023896167
   19    1   12   12        0.0023896167
   19    1   13   13        0.0015364982
   19    1   14   14       -0.0000089643
   19    1   15   15       -0.0000089643
   19    1   16   16       -0.0000089643
   19    1   17   17       -0.0000089643
   19    1   18   18       -0.0000089643
    2    2    1    1        3.0882963333
    2    2    2    1       -0.0865478281
    2    2    2    2        2.1941887607
    3    2    3    1        0.1495739249
    3    2    3    2        0.4504409010
    4    2    4    1        0.1495739249
    4    2    4    2        0.4504409010
    5    2    5    1        0.1495739249
    5    2    5    2        0.4504409010
    6    2    1    1       -0.4781888417
    6    2    2    1        0.0266801780
    6    2    6    1       -0.0075599240
    6    2    2    2       -0.2219812625
    6    2    6    2        0.0460458169
    6    2    3    3       -0.2485686770
    6    2    4    4       -0.2485686770
    6    2    5    5       -0.2485686770
    7    2    3    1       -0.0031615630
    7    2    4    1       -0.0094475443
    7    2    5    1       -0.0192708660
    7    2    7    1        0.0054670889
    7    2    3    2       -0.0053215772
    7    2    4    2       -0.0159022092
    7    2    5    2       -0.0324369312
    7    2    7    2        0.0113230930
    7    2    6    3        0.0021076721
    7    2    6    4        0.0062982537
    7    2    6    5        0.0128470214
    8    2    3    1       -0.0211047947
    8    2    4    1        0.0049081458
    8    2    5    1        0.0010562168
    8    2    8    1        0.0054670889
    8    2    3    2       -0.0355238200
    8    2    4    2        0.0082614445
    8    2    5    2        0.0017778357
    8    2    8    2        0.0113230930
    8    2    6    3        0.0140696193
    8    2    6    4       -0.0032720405
    8    2    6    5       -0.0007041324
    9    2    3    1       -0.0039000012
    9    2    4    1       -0.0189016365
    9    2    5    1        0.0099063606
    9    2    9    1        0.0054670889
    9    2    3    2       -0.0065645243
    9    2    4    2       -0.0318154401
    9    2    5    2        0.0166744938
    9    2    9    2        0.0113230930
    9    2    6    3        0.0025999557
    9    2    6    4        0.0126008726
    9    2    6    5       -0.0066041259
   10    2    3    1        0.0200069223
   10    2    4    1       -0.0037779693
   10    2    5    1        0.0048265972
   10    2    7    1       -0.0014059342
   10    2    8    1       -0.0050802871
   10    2    9    1        0.0004803715
   10    2   10    1        0.0055182765
   10    2    3    2        0.0295693159
   10    2    4    2       -0.0055836658
   10    2    5    2        0.0071334898
   10    2    7    2       -0.0030104851
   10    2    8    2       -0.0108782676
   10    2    9    2        0.0010286051
   10    2   10    2        0.0114998725
   10    2    6    3       -0.0135798030
   10    2    6    4        0.0025643164
   10    2    6    5       -0.0032760781
   10    2    7    6       -0.0034220768
   10    2    8    6       -0.0123655378
   10    2    9    6        0.0011692354
   11    2    3    1       -0.0054277048
   11    2    4    1       -0.0032648189
   11    2    5    1        0.0199430943
   11    2    7    1       -0.0039215837
   11    2    8    1        0.0013944755
   11    2    9    1        0.0032700679
   11    2   11    1        0.0055182765
   11    2    3    2       -0.0080218994
   11    2    4    2       -0.0048252530
   11    2    5    2        0.0294749810
   11    2    7    2       -0.0083971705
   11    2    8    2        0.0029859489
   11    2    9    2        0.0070020990
   11    2   11    2        0.0114998725
   11    2    6    3        0.0036840830
   11    2    6    4        0.0022160129
   11    2    6    5       -0.0135364795
   11    2    7    6       -0.0095452267
   11    2    8    6        0.0033941861
   11    2    9    6        0.0079594218
   12    2    3    1        0.0028476504
   12    2    4    1        0.0203202839
   12    2    5    1        0.0041015829
   12    2    7    1       -0.0032651577
   12    2    8    1        0.0005126849
   12    2    9    1       -0.0041343227
   12    2   12    1        0.0055182765
   12    2    3    2        0.0042086971
   12    2    4    2        0.0300324500
   12    2    5    2        0.0060619518
   12    2    7    2       -0.0069915850
   12    2    8    2        0.0010977968
   12    2    9    2       -0.0088527022
   12    2   12    2        0.0114998725
   12    2    6    3       -0.0019328576
   12    2    6    4       -0.0137924989
   12    2    6    5       -0.0027839708
   12    2    7    6       -0.0079474704
   12    2    8    6        0.0012478869
   12    2    9    6       -0.0100630383
   13    2    1    1        0.2857808156
   13    2    2    1       -0.0168877323
   13    2    6    1        0.0048180788
   13    2   13    1       -0.0030076517
   13    2    2    2        0.1310648287
   13    2    6    2       -0.0274338769
   13    2   13    2        0.0163774510
   13    2    3    3        0.1463230797
   13    2    7    3       -0.0037884980
   13    2    8    3       -0.0252898556
   13    2    9    3       -0.0046733677
   13    2   10    3        0.0244957328
   13    2   11    3       -0.0066454802
   13    2   12    3        0.0034865574
   13    2    4    4        0.1463230797
   13    2    7    4       -0.0113209834
   13    2    8    4        0.0058814265
   13    2    9    4       -0.0226498131
   13    2   10    4       -0.0046256053
   13    2   11    4       -0.0039973231
   13    2   12    4        0.0248794011
   13    2    5    5        0.1463230797
   13    2    7    5       -0.0230922605
   13    2    8    5        0.0012656636
   13    2    9    5        0.0118707825
   13    2   10    5        0.0059095064
   13    2   11    5        0.0244175841
   13    2   12    5        0.0050218258
   13    2    6    6        0.0099743121
   13    2    7    7        0.0078347155
   13    2   10    7       -0.0021589924
   13    2   11    7       -0.0060220952
   13    2   12    7       -0.0050140688
   13    2    8    8        0.0078347155
   13    2   10    8       -0.0078014329
   13    2   11    8        0.0021413961
   13    2   12    8        0.0007872934
   13    2    9    9        0.0078347155
   13    2   10    9        0.0007376720
   13    2   11    9        0.0050216090
   13    2   12    9       -0.0063487832
   13    2   10   10        0.0085099466
   13    2   11   11        0.0085099466
   13    2   12   12        0.0085099466
   14    2   14    1        0.0000512993
   14    2   14    2        0.0042024105
   14    2    3    3       -0.0072919934
   14    2    4    3        0.0000460161
   14    2    5    3       -0.0002399842
   14    2    7    3       -0.0000893436
   14    2    8    3       -0.0005045926
   14    2    9    3       -0.0000826129
   14    2   10    3        0.0006292577
   14    2   11    3       -0.0001480689
   14    2   12    3        0.0000889644
   14    2    4    4       -0.0088593332
   14    2    5    4        0.0002697725
   14    2    7    4       -0.0002569547
   14    2    8    4        0.0001448472
   14    2    9    4       -0.0005573267
   14    2   10    4       -0.0001525589
   14    2   11    4       -0.0001455554
   14    2   12    4        0.0007641689
   14    2    5    5        0.0161513266
   14    2    7    5        0.0010265765
   14    2    8    5       -0.0000768955
   14    2    9    5       -0.0005110506
   14    2   10    5       -0.0003083208
   14    2   11    5       -0.0013785528
   14    2   12    5       -0.0003036579
   14    2    7    7        0.0055964155
   14    2    8    7       -0.0005600997
   14    2    9    7       -0.0050398144
   14    2   10    7       -0.0008747848
   14    2   11    7       -0.0046077720
   14    2   12    7        0.0002674622
   14    2    8    8       -0.0036972013
   14    2    9    8        0.0005020798
   14    2   10    8        0.0023282475
   14    2   11    8       -0.0001548143
   14    2   12    8       -0.0002517802
   14    2    9    9       -0.0018992141
   14    2   10    9        0.0004257292
   14    2   11    9        0.0016750876
   14    2   12    9        0.0028868989
   14    2   10   10       -0.0022181438
   14    2   11   10        0.0017220961
   14    2   12   10        0.0004886824
   14    2   11   11        0.0049792039
   14    2   12   11        0.0017159049
   14    2   12   12       -0.0027610601
   15    2   15    1        0.0000512993
   15    2   15    2        0.0042024105
   15    2    3    3        0.0144031708
   15    2    4    3       -0.0001275752
   15    2    5    3        0.0004305086
   15    2    7    3        0.0001725856
   15    2    8    3        0.0009974143
   15    2    9    3        0.0001623168
   15    2   10    3       -0.0012426067
   15    2   11    3        0.0002956631
   15    2   12    3       -0.0001717739
   15    2    4    4       -0.0135260951
   15    2    5    4       -0.0007785278
   15    2    7    4       -0.0004695893
   15    2    8    4        0.0002115786
   15    2    9    4       -0.0008147631
   15    2   10    4       -0.0001914461
   15    2   11    4       -0.0001253469
   15    2   12    4        0.0011899811
   15    2    5    5       -0.0008770757
   15    2    7    5       -0.0000750850
   15    2    8    5        0.0000453646
   15    2    9    5       -0.0000142582
   15    2   10    5       -0.0000312919
   15    2   11    5        0.0000738860
   15    2   12    5        0.0000777534
   15    2    7    7       -0.0017496919
   15    2    8    7        0.0019754514
   15    2    9    7       -0.0024450497
   15    2   10    7       -0.0010283522
   15    2   11    7        0.0001904769
   15    2   12    7        0.0019783828
   15    2    8    8        0.0065440316
   15    2    9    8        0.0024386892
   15    2   10    8       -0.0040957425
   15    2   11    8        0.0010991971
   15    2   12    8       -0.0015486160
   15    2    9    9       -0.0047943397
   15    2   10    9       -0.0013226560
   15    2   11    9       -0.0003159710
   15    2   12    9        0.0034145566
   15    2   10   10        0.0046135131
   15    2   11   10       -0.0012812805
   15    2   12   10        0.0014354434
   15    2   11   11       -0.0000528010
   15    2   12   11        0.0002663221
   15    2   12   12       -0.0045607122
   15    2   14   14       -0.0010675361
   16    2   16    1        0.0000512993
   16    2   16    2        0.0042024105
   16    2    3    3        0.0003580496
   16    2    4    3        0.0119406692
   16    2    5    3       -0.0072558659
   16    2    7    3       -0.0000848861
   16    2    8    3       -0.0001422798
   16    2    9    3        0.0009804481
   16    2   10    3        0.0003118844
   16    2   11    3        0.0007934271
   16    2   12    3       -0.0009142368
   16    2    4    4       -0.0001747681
   16    2    5    4       -0.0010355185
   16    2    7    4        0.0000529446
   16    2    8    4        0.0008328206
   16    2    9    4        0.0001755236
   16    2   10    4       -0.0010025478
   16    2   11    4        0.0003628419
   16    2   12    4       -0.0001120021
   16    2    5    5       -0.0001832815
   16    2    7    5       -0.0001188938
   16    2    8    5       -0.0004848806
   16    2    9    5       -0.0001510325
   16    2   10    5        0.0006075341
   16    2   11    5       -0.0001671564
   16    2   12    5        0.0001814650
   16    2    7    7       -0.0006750467
   16    2    8    7       -0.0006312613
   16    2    9    7        0.0006055957
   16    2   10    7        0.0005226082
   16    2   11    7        0.0004403844
   16    2   12    7       -0.0000732423
   16    2    8    8       -0.0021563119
   16    2    9    8        0.0065526633
   16    2   10    8        0.0017616146
   16    2   11    8        0.0024557311
   16    2   12    8       -0.0030714058
   16    2    9    9        0.0028313585
   16    2   10    9       -0.0038523935
   16    2   11    9        0.0018828320
   16    2   12    9       -0.0012132375
   16    2   10   10       -0.0024616614
   16    2   11   10       -0.0026015887
   16    2   12   10        0.0032275830
   16    2   11   11        0.0016762238
   16    2   12   11       -0.0016994220
   16    2   12   12        0.0007854376
   16    2   14   14       -0.0000709258
   16    2   15   14       -0.0000422451
   16    2   15   15       -0.0001567539
   17    2   17    1        0.0000512993
   17    2   17    2        0.0042024105
   17    2    3    3       -0.0006693783
   17    2    4    3        0.0067168786
   17    2    5    3        0.0116046560
   17    2    7    3        0.0009345358
   17    2    8    3       -0.0001946361
   17    2    9    3        0.0000307918
   17    2   10    3       -0.0000736984
   17    2   11    3       -0.0009109871
   17    2   12    3       -0.0007786736
   17    2    4    4        0.0003424180
   17    2    5    4       -0.0040342323
   17    2    7    4       -0.0001747000
   17    2    8    4        0.0004733413
   17    2    9    4        0.0002381899
   17    2   10    4       -0.0004856289
   17    2   11    4        0.0005044843
   17    2   12    4       -0.0000407699
   17    2    5    5        0.0003269603
   17    2    7    5        0.0000159905
   17    2    8    5        0.0008669663
   17    2    9    5       -0.0001122676
   17    2   10    5       -0.0010642436
   17    2   11    5        0.0001850513
   17    2   12    5        0.0002034076
   17    2    7    7        0.0005284886
   17    2    8    7        0.0067406749
   17    2    9    7        0.0000603688
   17    2   10    7       -0.0041083345
   17    2   11    7        0.0008842918
   17    2   12    7        0.0001740071
   17    2    8    8       -0.0024082007
   17    2    9    8       -0.0001313267
   17    2   10    8        0.0003166366
   17    2   11    8       -0.0035516609
   17    2   12    8       -0.0026678305
   17    2    9    9        0.0018797121
   17    2   10    9        0.0001745482
   17    2   11    9        0.0006730271
   17    2   12    9       -0.0009443652
   17    2   10   10        0.0009072721
   17    2   11   10        0.0036543433
   17    2   12   10        0.0027434098
   17    2   11   11       -0.0013273488
   17    2   12   11       -0.0015986073
   17    2   12   12        0.0004200767
   17    2   14   14        0.0000018334
   17    2   15   14        0.0003364880
   17    2   16   14       -0.0039765153
   17    2   15   15       -0.0000689696
   17    2   16   15       -0.0024707864
   17    2   16   16        0.0008991820
   18    2   18    1        0.0000512993
   18    2   18    2        0.0042024105
   18    2    3    3        0.0008124583
   18    2    4    3        0.0029463886
   18    2    5    3        0.0029727223
   18    2    7    3        0.0002875743
   18    2    8    3       -0.0000014901
   18    2    9    3        0.0000964508
   18    2   10    3       -0.0000832252
   18    2   11    3       -0.0001934333
   18    2   12    3       -0.0003179057
   18    2    4    4       -0.0005196374
   18    2    5    4        0.0133555018
   18    2    7    4        0.0008584689
   18    2    8    4        0.0001660253
   18    2    9    4       -0.0004284032
   18    2   10    4       -0.0005358685
   18    2   11    4       -0.0010773298
   18    2   12    4       -0.0002248645
   18    2    5    5       -0.0002928209
   18    2    7    5        0.0004260969
   18    2    8    5       -0.0000082075
   18    2    9    5        0.0008753816
   18    2   10    5       -0.0000325053
   18    2   11    5        0.0002802936
   18    2   12    5       -0.0011910123
   18    2    7    7        0.0056481746
   18    2    8    7        0.0004607651
   18    2    9    7        0.0043029323
   18    2   10    7       -0.0009654007
   18    2   11    7       -0.0008739241
   18    2   12    7       -0.0042302121
   18    2    8    8       -0.0002745784
   18    2    9    8        0.0010534140
   18    2   10    8        0.0001472717
   18    2   11    8        0.0001474775
   18    2   12    8       -0.0007051668
   18    2    9    9       -0.0053735961
   18    2   10    9       -0.0016432366
   18    2   11    9       -0.0038755024
   18    2   12    9        0.0010231880
   18    2   10   10       -0.0000384687
   18    2   11   10       -0.0002949828
   18    2   12   10        0.0021386680
   18    2   11   11       -0.0019293066
   18    2   12   11        0.0040444976
   18    2   12   12        0.0019677753
   18    2   14   14       -0.0000787849
   18    2   15   14       -0.0005278526
   18    2   16   14       -0.0018158536
   18    2   17   14       -0.0008029376
   18    2   15   15        0.0008134822
   18    2   16   15        0.0000231275
   18    2   17   15        0.0024602395
   18    2   16   16       -0.0045562630
   18    2   17   16        0.0021743187
   18    2   17   17        0.0032391274
   19    2    1    1       -0.6616709310
   19    2    2    1        0.0437300179
   19    2    6    1       -0.0124339742
   19    2   13    1        0.0077324526
   19    2   19    1       -0.0195329798
   19    2    2    2       -0.2589103384
   19    2    6    2        0.0611893221
   19    2   13    2       -0.0363843540
   19    2   19    2        0.0854256403
   19    2    3    3       -0.2992689355
   19    2    7    3        0.0086323276
   19    2    8    3        0.0576245045
   19    2    9    3        0.0106485582
   19    2   10    3       -0.0566828739
   19    2   11    3        0.0153775729
   19    2   12    3       -0.0080678581
   19    2    4    4       -0.2992689355
   19    2    7    4        0.0257955628
   19    2    8    4       -0.0134011951
   19    2    9    4        0.0516090041
   19    2   10    4        0.0107036032
   19    2   11    4        0.0092497645
   19    2   12    4       -0.0575706784
   19    2    5    5       -0.2992689355
   19    2    7    5        0.0526171479
   19    2    8    5       -0.0028838931
   19    2    9    5       -0.0270483142
   19    2   10    5       -0.0136745370
   19    2   11    5       -0.0565020388
   19    2   12    5       -0.0116204532
   19    2    6    6       -0.0170977763
   19    2   13    6        0.0100201453
   19    2    7    7       -0.0139244096
   19    2   10    7        0.0038855134
   19    2   11    7        0.0108378943
   19    2   12    7        0.0090237609
   19    2    8    8       -0.0139244096
   19    2   10    8        0.0140401477
   19    2   11    8       -0.0038538456
   19    2   12    8       -0.0014168827
   19    2    9    9       -0.0139244096
   19    2   10    9       -0.0013275797
   19    2   11    9       -0.0090373309
   19    2   12    9        0.0114258309
   19    2   10   10       -0.0153138134
   19    2   11   11       -0.0153138134
   19    2   12   12       -0.0153138134
   19    2   13   13       -0.0058796775
   19    2   14   14       -0.0003317011
   19    2   15   15       -0.0003317011
   19    2   16   16       -0.0003317011
   19    2   17   17       -0.0003317011
   19    2   18   18       -0.0003317011
    3    3    1    1        3.3836986104
    3    3    2    1       -0.0772196856
    3    3    2    2        2.2912824024
    3    3    3    3        2.6206894840
    4    3    4    3        0.1366376231
    5    3    5    3        0.1366376231
    6    3    3    1       -0.0316615338
    6    3    3    2       -0.0614373001
    6    3    6    3        0.0191446494
    7    3    1    1       -0.0684066246
    7    3    2    1        0.0029550438
    7    3    6    1       -0.0007865398
    7    3    2    2       -0.0302511188
    7    3    6    2        0.0063938620
    7    3    3    3       -0.0387022525
    7    3    4    3       -0.0078395945
    7    3    5    3       -0.0159910101
    7    3    7    3        0.0063274921
    7    3    4    4       -0.0334553076
    7    3    5    5       -0.0334553076
    7    3    6    6       -0.0025694726
    8    3    1    1       -0.4566436812
    8    3    2    1        0.0197261902
    8    3    6    1       -0.0052504918
    8    3    2    2       -0.2019392469
    8    3    6    2        0.0426817826
    8    3    3    3       -0.2583542039
    8    3    4    3        0.0040727910
    8    3    5    3        0.0008764512
    8    3    7    3        0.0064929781
    8    3    8    3        0.0486982492
    8    3    4    4       -0.2233285870
    8    3    7    4        0.0169573886
    8    3    5    5       -0.2233285870
    8    3    7    5        0.0349114103
    8    3    6    6       -0.0171523364
    8    3    7    7       -0.0160771192
    9    3    1    1       -0.0843841841
    9    3    2    1        0.0036452458
    9    3    6    1       -0.0009702499
    9    3    2    2       -0.0373167949
    9    3    6    2        0.0078872599
    9    3    3    3       -0.0477418381
    9    3    4    3       -0.0156846226
    9    3    5    3        0.0082203214
    9    3    7    3        0.0011998516
    9    3    8    3        0.0080095263
    9    3    9    3        0.0068349219
    9    3    4    4       -0.0412693778
    9    3    7    4        0.0038461718
    9    3    8    4        0.0028940699
    9    3    5    5       -0.0412693778
    9    3    7    5        0.0061020140
    9    3    8    5       -0.0027328546
    9    3    6    6       -0.0031696177
    9    3    7    7       -0.0029709260
    9    3    8    8       -0.0029709260
   10    3    1    1        0.4458276374
   10    3    2    1       -0.0203062267
   10    3    6    1        0.0054139174
   10    3    2    2        0.1869725895
   10    3    6    2       -0.0413576708
   10    3    3    3        0.2420797821
   10    3    4    3       -0.0030742607
   10    3    5    3        0.0039275645
   10    3    7    3       -0.0077801665
   10    3    8    3       -0.0475212053
   10    3    9    3       -0.0073261727
   10    3   10    3        0.0470527804
   10    3    4    4        0.2095191707
   10    3    7    4       -0.0165375591
   10    3    8    4        0.0096191618
   10    3    9    4       -0.0331961474
   10    3    5    5        0.2095191707
   10    3    7    5       -0.0342067125
   10    3    8    5        0.0006467519
   10    3    9    5        0.0172653719
   10    3    6    6        0.0143378191
   10    3    7    7        0.0135449266
   10    3    8    7       -0.0011920123
   10    3    9    7       -0.0001033297
   10    3    8    8        0.0081874987
   10    3    9    8       -0.0002521713
   10    3    9    9        0.0138742953
   11    3    1    1       -0.1209491782
   11    3    2    1        0.0055089035
   11    3    6    1       -0.0014687489
   11    3    2    2       -0.0507240448
   11    3    6    2        0.0112199780
   11    3    3    3       -0.0656741490
   11    3    4    3       -0.0026566930
   11    3    5    3        0.0162283667
   11    3    7    3       -0.0023020882
   11    3    8    3        0.0129087434
   11    3    9    3        0.0054746667
   11    3   10    3       -0.0112592537
   11    3   11    3        0.0086048746
   11    3    4    4       -0.0568407371
   11    3    7    4        0.0046486732
   11    3    8    4       -0.0015269964
   11    3    9    4        0.0092058832
   11    3   10    4        0.0010381670
   11    3    5    5       -0.0568407371
   11    3    7    5        0.0084765206
   11    3    8    5       -0.0055389285
   11    3    9    5       -0.0056750733
   11    3   10    5        0.0026737412
   11    3    6    6       -0.0038897262
   11    3    7    7       -0.0043837886
   11    3    8    7       -0.0020422778
   11    3    9    7       -0.0001291655
   11    3   10    7        0.0020172780
   11    3    8    8       -0.0022033335
   11    3    9    8        0.0019405508
   11    3   10    8        0.0031064992
   11    3    9    9       -0.0030726730
   11    3   10    9       -0.0012079550
   11    3   10   10       -0.0037948697
   12    3    1    1        0.0634561000
   12    3    2    1       -0.0028902514
   12    3    6    1        0.0007705805
   12    3    2    2        0.0266124178
   12    3    6    2       -0.0058865720
   12    3    3    3        0.0344560040
   12    3    4    3        0.0165352985
   12    3    5    3        0.0033375959
   12    3    7    3       -0.0042506186
   12    3    8    3       -0.0054965420
   12    3    9    3       -0.0053526730
   12    3   10    3        0.0059071780
   12    3   11    3       -0.0016025663
   12    3   12    3        0.0063911244
   12    3    4    4        0.0298215461
   12    3    7    4       -0.0031423949
   12    3    8    4       -0.0038947857
   12    3    9    4       -0.0056976457
   12    3   10    4        0.0041744741
   12    3   11    4       -0.0022442241
   12    3    5    5        0.0298215461
   12    3    7    5       -0.0049978438
   12    3    8    5       -0.0007696836
   12    3    9    5        0.0022981942
   12    3   10    5        0.0022910848
   12    3   11    5        0.0048862186
   12    3    6    6        0.0020407485
   12    3    7    7        0.0014227506
   12    3    8    7       -0.0017538533
   12    3    9    7       -0.0006725892
   12    3   10    7        0.0003720090
   12    3   11    7       -0.0016479151
   12    3    8    8        0.0025249095
   12    3    9    8       -0.0022220967
   12    3   10    8       -0.0019642144
   12    3   11    8        0.0005387120
   12    3    9    9        0.0011203604
   12    3   10    9        0.0012837389
   12    3   11    9        0.0008742224
   12    3   10   10        0.0019909820
   12    3   11   11        0.0019909820
   13    3    3    1        0.0187936231
   13    3    7    1       -0.0006885629
   13    3    8    1       -0.0045964537
   13    3    9    1       -0.0008493887
   13    3   10    1        0.0047049487
   13    3   11    1       -0.0012764119
   13    3   12    1        0.0006696707
   13    3    3    2        0.0362509973
   13    3    7    2       -0.0012561118
   13    3    8    2       -0.0083850873
   13    3    9    2       -0.0015494986
   13    3   10    2        0.0080860782
   13    3   11    2       -0.0021936830
   13    3   12    2        0.0011509178
   13    3    6    3       -0.0114039347
   13    3   13    3        0.0068145775
   13    3    7    6       -0.0009696854
   13    3    8    6       -0.0064730675
   13    3    9    6       -0.0011961723
   13    3   10    6        0.0024995029
   13    3   11    6       -0.0006780935
   13    3   12    6        0.0003557624
   14    3    3    1       -0.0037811587
   14    3    4    1        0.0000238610
   14    3    5    1       -0.0001244404
   14    3    7    1        0.0001561311
   14    3    8    1        0.0008817940
   14    3    9    1        0.0001443690
   14    3   10    1       -0.0009044697
   14    3   11    1        0.0002128283
   14    3   12    1       -0.0001278738
   14    3    3    2       -0.0178247829
   14    3    4    2        0.0001124833
   14    3    5    2       -0.0005866252
   14    3    7    2       -0.0001430565
   14    3    8    2       -0.0008079513
   14    3    9    2       -0.0001322793
   14    3   10    2        0.0010978524
   14    3   11    2       -0.0002583326
   14    3   12    2        0.0001552143
   14    3    6    3       -0.0001651240
   14    3   13    3        0.0001333383
   14    3   14    3        0.0023938525
   14    3    6    4        0.0000010420
   14    3   13    4       -0.0000008414
   14    3    6    5       -0.0000054343
   14    3   13    5        0.0000043882
   14    3    7    6       -0.0017245987
   14    3    8    6       -0.0097401502
   14    3    9    6       -0.0015946762
   14    3   10    6        0.0055912215
   14    3   11    6       -0.0013156551
   14    3   12    6        0.0007904863
   14    3   13    7        0.0005017084
   14    3   13    8        0.0028335373
   14    3   13    9        0.0004639122
   14    3   13   10       -0.0056424153
   14    3   13   11        0.0013277013
   14    3   13   12       -0.0007977241
   15    3    3    1        0.0074685579
   15    3    4    1       -0.0000661523
   15    3    5    1        0.0002232341
   15    3    7    1       -0.0003015996
   15    3    8    1       -0.0017430178
   15    3    9    1       -0.0002836546
   15    3   10    1        0.0017860730
   15    3   11    1       -0.0004249742
   15    3   12    1        0.0002469009
   15    3    3    2        0.0352075735
   15    3    4    2       -0.0003118489
   15    3    5    2        0.0010523490
   15    3    7    2        0.0002763432
   15    3    8    2        0.0015970549
   15    3    9    2        0.0002599009
   15    3   10    2       -0.0021679494
   15    3   11    2        0.0005158370
   15    3   12    2       -0.0002996902
   15    3    6    3        0.0003261535
   15    3   13    3       -0.0002633702
   15    3   14    3       -0.0029617344
   15    3   15    3        0.0067439021
   15    3    6    4       -0.0000028889
   15    3   13    4        0.0000023328
   15    3   14    4        0.0000473406
   15    3    6    5        0.0000097487
   15    3   13    5       -0.0000078721
   15    3   14    5        0.0000682703
   15    3    7    6        0.0033314187
   15    3    8    6        0.0192530853
   15    3    9    6        0.0031332015
   15    3   10    6       -0.0110410883
   15    3   11    6        0.0026270918
   15    3   12    6       -0.0015262840
   15    3   13    7       -0.0009691533
   15    3   14    7       -0.0009330538
   15    3   13    8       -0.0056009747
   15    3   14    8       -0.0078106397
   15    3   13    9       -0.0009114894
   15    3   14    9       -0.0014121838
   15    3   13   10        0.0111421815
   15    3   14   10        0.0041394968
   15    3   13   11       -0.0026511457
   15    3   14   11       -0.0012086058
   15    3   13   12        0.0015402588
   15    3   14   12        0.0005044180
   16    3    3    1        0.0001856615
   16    3    4    1        0.0061916630
   16    3    5    1       -0.0037624253
   16    3    7    1        0.0001483416
   16    3    8    1        0.0002486391
   16    3    9    1       -0.0017133688
   16    3   10    1       -0.0004482901
   16    3   11    1       -0.0011404402
   16    3   12    1        0.0013140873
   16    3    3    2        0.0008752280
   16    3    4    2        0.0291881556
   16    3    5    2       -0.0177364719
   16    3    7    2       -0.0001359192
   16    3    8    2       -0.0002278177
   16    3    9    2        0.0015698887
   16    3   10    2        0.0005441380
   16    3   11    2        0.0013842752
   16    3   12    2       -0.0015950495
   16    3    6    3        0.0000081079
   16    3   13    3       -0.0000065471
   16    3   14    3       -0.0000090184
   16    3   15    3        0.0000143669
   16    3   16    3        0.0063974767
   16    3    6    4        0.0002703913
   16    3   13    4       -0.0002183420
   16    3   14    4       -0.0029395537
   16    3   15    4       -0.0029008552
   16    3    6    5       -0.0001643059
   16    3   13    5        0.0001326777
   16    3   14    5       -0.0024527500
   16    3   15    5       -0.0005412320
   16    3    7    6       -0.0016385565
   16    3    8    6       -0.0027464265
   16    3    9    6        0.0189255868
   16    3   10    6        0.0027712252
   16    3   11    6        0.0070499363
   16    3   12    6       -0.0081233826
   16    3   13    7        0.0004766775
   16    3   14    7       -0.0096311269
   16    3   15    7       -0.0047975406
   16    3   13    8        0.0007989714
   16    3   14    8        0.0021165990
   16    3   15    8        0.0020098484
   16    3   13    9       -0.0055057011
   16    3   14    9       -0.0037817076
   16    3   15    9       -0.0067715525
   16    3   13   10       -0.0027965988
   16    3   14   10        0.0000539867
   16    3   15   10       -0.0005809710
   16    3   13   11       -0.0071144861
   16    3   14   11        0.0027053179
   16    3   15   11        0.0001406095
   16    3   13   12        0.0081977610
   16    3   14   12        0.0048742244
   16    3   15   12        0.0041950723
   17    3    3    1       -0.0003470965
   17    3    4    1        0.0034829412
   17    3    5    1        0.0060174281
   17    3    7    1       -0.0016331353
   17    3    8    1        0.0003401338
   17    3    9    1       -0.0000538097
   17    3   10    1        0.0001059311
   17    3   11    1        0.0013094163
   17    3   12    1        0.0011192342
   17    3    3    2       -0.0016362498
   17    3    4    2        0.0164189540
   17    3    5    2        0.0283667939
   17    3    7    2        0.0014963741
   17    3    8    2       -0.0003116504
   17    3    9    2        0.0000493036
   17    3   10    2       -0.0001285800
   17    3   11    2       -0.0015893798
   17    3   12    2       -0.0013585352
   17    3    6    3       -0.0000151578
   17    3   13    3        0.0000122400
   17    3   14    3        0.0000677565
   17    3   15    3       -0.0001549975
   17    3   16    3       -0.0001193706
   17    3   17    3        0.0059714637
   17    3    6    4        0.0001521008
   17    3   13    4       -0.0001228220
   17    3   14    4       -0.0015507035
   17    3   15    4       -0.0019246037
   17    3   16    4       -0.0003374333
   17    3    6    5        0.0002627824
   17    3   13    5       -0.0002121978
   17    3   14    5        0.0040865867
   17    3   15    5        0.0003933783
   17    3   16    5       -0.0003110188
   17    3    7    6        0.0180393416
   17    3    8    6       -0.0037570609
   17    3    9    6        0.0005943735
   17    3   10    6       -0.0006548416
   17    3   11    6       -0.0080945075
   17    3   12    6       -0.0069188457
   17    3   13    7       -0.0052478808
   17    3   14    7        0.0084507582
   17    3   15    7       -0.0018481547
   17    3   16    7       -0.0011645290
   17    3   13    8        0.0010929782
   17    3   14    8        0.0005657622
   17    3   15    8        0.0008164087
   17    3   16    8       -0.0000459685
   17    3   13    9       -0.0001729110
   17    3   14    9       -0.0088957092
   17    3   15    9       -0.0052452344
   17    3   16    9       -0.0005981591
[...]
   19   17   10    9        0.0001035878
   19   17   11    9        0.0003994164
   19   17   12    9       -0.0005604454
   19   17   10   10       -0.0007986571
   19   17   11   10       -0.0032168600
   19   17   12   10       -0.0024149798
   19   17   11   11        0.0011684439
   19   17   12   11        0.0014072284
   19   17   12   12       -0.0003697868
   19   17   17   13       -0.0044500515
   19   17   14   14       -0.0000038445
   19   17   15   14       -0.0007055713
   19   17   16   14        0.0083382318
   19   17   17   14       -0.0026696156
   19   17   18   14        0.0016836550
   19   17   15   15        0.0001446203
   19   17   16   15        0.0051809156
   19   17   17   15       -0.0063415837
   19   17   18   15       -0.0051588001
   19   17   16   16       -0.0018854669
   19   17   17   16        0.0035905515
   19   17   18   16       -0.0045592617
   19   17   17   17        0.0086110242
   19   17   18   17       -0.0067920260
   19   17   19   17        0.0195429101
   19   17   18   18       -0.0068663331
   18   18    1    1        0.7311333066
   18   18    2    1       -0.0000069208
   18   18    6    1        0.0000036907
   18   18   13    1        0.0000039153
   18   18   14    1        0.0000097517
   18   18   15    1       -0.0000193129
   18   18   16    1        0.0000025589
   18   18   17    1        0.0000130262
   18   18   18    1        0.0000023169
   18   18    2    2        0.7298943698
   18   18    6    2       -0.0038397626
   18   18   13    2        0.0016423119
   18   18   14    2        0.0024514206
   18   18   15    2       -0.0048549341
   18   18   16    2        0.0006432704
   18   18   17    2        0.0032745646
   18   18   18    2        0.0005824382
   18   18    3    3        0.7214256211
   18   18    4    3        0.0030876186
   18   18    5    3        0.0031127575
   18   18    7    3        0.0007495594
   18   18    8    3       -0.0078961468
   18   18    9    3       -0.0008088364
   18   18   10    3        0.0053147275
   18   18   11    3       -0.0025154270
   18   18   12    3       -0.0007660009
   18   18    4    4        0.7342999550
   18   18    5    4       -0.0001592329
   18   18    7    4       -0.0006633594
   18   18    8    4        0.0017912112
   18   18    9    4       -0.0013223810
   18   18   10    4       -0.0012673967
   18   18   11    4        0.0003789792
   18   18   12    4       -0.0000063651
   18   18    5    5        0.7342977928
   18   18    7    5       -0.0014657330
   18   18    8    5        0.0014874740
   18   18    9    5        0.0010355125
   18   18   10    5       -0.0012379518
   18   18   11    5        0.0004889954
   18   18   12    5       -0.0000819754
   18   18    6    6        0.6177974296
   18   18   13    6       -0.0985282188
   18   18   14    6        0.0169965887
   18   18   15    6       -0.0336610199
   18   18   16    6        0.0044600273
   18   18   17    6        0.0227037446
   18   18   18    6        0.0040382556
   18   18    7    7        0.5927894043
   18   18    8    7        0.0074354088
   18   18    9    7        0.0017683437
   18   18   10    7       -0.0367369917
   18   18   11    7       -0.0959901418
   18   18   12    7       -0.0808443136
   18   18    8    8        0.5405602512
   18   18    9    8       -0.0042087400
   18   18   10    8       -0.1117362595
   18   18   11    8        0.0281493270
   18   18   12    8        0.0108334669
   18   18    9    9        0.5905308340
   18   18   10    9        0.0128346167
   18   18   11    9        0.0796771280
   18   18   12    9       -0.1020471246
   18   18   10   10        0.4385271359
   18   18   11   10        0.0112235977
   18   18   12   10        0.0035664953
   18   18   11   11        0.4573802322
   18   18   12   11       -0.0005779222
   18   18   12   12        0.4630183599
   18   18   13   13        0.4497918336
   18   18   14   13       -0.0030728568
   18   18   15   13        0.0060856621
   18   18   16   13       -0.0008063398
   18   18   17   13       -0.0041046682
   18   18   18   13       -0.0007300866
   18   18   14   14        0.6110651990
   18   18   15   14        0.0128682894
   18   18   16   14       -0.0074074378
   18   18   17   14       -0.0002184683
   18   18   15   15        0.5927812394
   18   18   16   15       -0.0027867476
   18   18   17   15        0.0049050024
   18   18   16   16        0.5940092064
   18   18   17   16       -0.0006813164
   18   18   17   17        0.5909141540
   18   18   18   18        0.6606621786
   19   18   18    1        0.0000157234
   19   18   18    2        0.0019396001
   19   18    3    3        0.0003339351
   19   18    4    3        0.0012110192
   19   18    5    3        0.0012218429
   19   18    7    3        0.0002418570
   19   18    8    3       -0.0000012532
   19   18    9    3        0.0000811175
   19   18   10    3       -0.0000893612
   19   18   11    3       -0.0002076946
   19   18   12    3       -0.0003413440
   19   18    4    4       -0.0002135804
   19   18    5    4        0.0054893538
   19   18    7    4        0.0007219935
   19   18    8    4        0.0001396314
   19   18    9    4       -0.0003602976
   19   18   10    4       -0.0005753766
   19   18   11    4       -0.0011567582
   19   18   12    4       -0.0002414432
   19   18    5    5       -0.0001203547
   19   18    7    5        0.0003583580
   19   18    8    5       -0.0000069027
   19   18    9    5        0.0007362174
   19   18   10    5       -0.0000349019
   19   18   11    5        0.0003009589
   19   18   12    5       -0.0012788222
   19   18   18    6       -0.0176237290
   19   18    7    7       -0.0101964038
   19   18    8    7       -0.0008317991
   19   18    9    7       -0.0077678964
   19   18   10    7       -0.0005729292
   19   18   11    7       -0.0005186412
   19   18   12    7       -0.0025104725
   19   18    8    8        0.0004956845
   19   18    9    8       -0.0019016824
   19   18   10    8        0.0000874002
   19   18   11    8        0.0000875224
   19   18   12    8       -0.0004184901
   19   18    9    9        0.0097007193
   19   18   10    9       -0.0009751994
   19   18   11    9       -0.0022999656
   19   18   12    9        0.0006072238
   19   18   10   10        0.0000338634
   19   18   11   10        0.0002596686
   19   18   12   10       -0.0018826352
   19   18   11   11        0.0016983378
   19   18   12   11       -0.0035603065
   19   18   12   12       -0.0017322011
   19   18   18   13       -0.0044500515
   19   18   14   14        0.0001652015
   19   18   15   14        0.0011068378
   19   18   16   14        0.0038076072
   19   18   17   14        0.0016836550
   19   18   18   14       -0.0051403080
   19   18   15   15       -0.0017057656
   19   18   16   15       -0.0000484953
   19   18   17   15       -0.0051588001
   19   18   18   15        0.0101801610
   19   18   16   16        0.0095538868
   19   18   17   16       -0.0045592617
   19   18   18   16       -0.0013488538
   19   18   17   17       -0.0067920260
   19   18   18   17       -0.0068663331
   19   18   18   18       -0.0012212967
   19   18   19   18        0.0195429101
   19   19    1    1        1.1679098236
   19   19    2    1       -0.0222929720
   19   19    6    1        0.0063624935
   19   19   13    1       -0.0039439844
   19   19   19    1        0.0099983436
   19   19    2    2        0.9657883212
   19   19    6    2       -0.0423842260
   19   19   13    2        0.0243818126
   19   19   19    2       -0.0444079601
   19   19    3    3        0.9850391983
   19   19    7    3       -0.0059327155
   19   19    8    3       -0.0396034308
   19   19    9    3       -0.0073184046
   19   19   10    3        0.0351323690
   19   19   11    3       -0.0095311076
   19   19   12    3        0.0050005045
   19   19    4    4        0.9850391983
   19   19    7    4       -0.0177284437
   19   19    8    4        0.0092102016
   19   19    9    4       -0.0354691748
   19   19   10    4       -0.0066341544
   19   19   11    4       -0.0057330569
   19   19   12    4        0.0356826353
   19   19    5    5        0.9850391983
   19   19    7    5       -0.0361620389
   19   19    8    5        0.0019820051
   19   19    9    5        0.0185894187
   19   19   10    5        0.0084755561
   19   19   11    5        0.0350202864
   19   19   12    5        0.0072024233
   19   19    6    6        0.6209186673
   19   19   13    6       -0.1140644926
   19   19   19    6        0.0770523760
   19   19    7    7        0.5720848398
   19   19   10    7       -0.0378949437
   19   19   11    7       -0.1057006756
   19   19   12    7       -0.0880076518
   19   19    8    8        0.5720848398
   19   19   10    8       -0.1369318663
   19   19   11    8        0.0375860913
   19   19   12    8        0.0138186863
   19   19    9    9        0.5720848398
   19   19   10    9        0.0129477251
   19   19   11    9        0.0881399982
   19   19   12    9       -0.1114347499
   19   19   10   10        0.4653160873
   19   19   11   11        0.4653160873
   19   19   12   12        0.4653160873
   19   19   13   13        0.4478407181
   19   19   19   13       -0.1108170940
   19   19   14   14        0.5915341619
   19   19   15   15        0.5915341619
   19   19   16   16        0.5915341619
   19   19   17   17        0.5915341619
   19   19   18   18        0.5915341619
   19   19   19   19        0.6347565190
 end_two_electron_integrals
 enrep_tce =   0.000000000000000E+000
  EHF(A)             =      -526.80008005
  EHF(total)         =      -526.80008005
  Shift (HFtot-HFA)  =         0.00000000
 Cpu & wall time / sec            0.9            1.3
 T1-number-of-tasks                    90
 
 t1 file size   =               90
 t1 file name   = ./ar_ccpvdz.t1
 t1 file handle =       -998
 T2-number-of-boxes                 10575
 
 t2 file size   =            10575
 t2 file name   = ./ar_ccpvdz.t2
 t2 file handle =       -996

 CCSD iterations
 -----------------------------------------------------------------
 Iter          Residuum       Correlation     Cpu    Wall    V2*C2
 -----------------------------------------------------------------
    1   0.0698709786373  -0.1493166044024    34.0    51.9     1.3
    2   0.0162509724304  -0.1583906193162    34.2    51.8     1.3
    3   0.0048452134817  -0.1595422343844    33.6    50.3     1.3
    4   0.0015203790087  -0.1598096986929    33.5    50.3     1.4
    5   0.0004922006931  -0.1598864599902    33.4    50.2     1.3
 MICROCYCLE DIIS UPDATE:                     5                     5
    6   0.0000375204002  -0.1599229190444    33.5    50.3     1.3
    7   0.0000083173081  -0.1599202285528    33.6    50.3     1.3
    8   0.0000029147172  -0.1599202088834    34.1    50.9     1.3
    9   0.0000010595521  -0.1599202057574    33.6    50.3     1.4
   10   0.0000003965108  -0.1599202064871    33.4    50.1     1.3
 -----------------------------------------------------------------
 Iterations converged
 CCSD correlation energy / hartree =        -0.159920206487060
 CCSD total energy / hartree       =      -526.960000261258415

 Singles contributions

 Doubles contributions
 Ground state specisication for QC:
 exp(T)|Ref>~(1+T)|Ref>
 ------- a(p)+/a(q) strings ----------

 singles norm

 doubles norm

 Reference string
   1.00000000000000      :(1a)+ (2a)+ (3a)+ (4a)+ (5a)+ (6a)+ (7a)+ (8a)+ (9a)+ 
 (1b)+ (2b)+ (3b)+ (4b)+ (5b)+ (6b)+ (7b)+ (8b)+ (9b)+ |0>

 Singles strings

 Doubles strings
 -------------------------------------
 
 Ground-state symmetry is a   
 
 =========================================
 Excited-state calculation ( a   symmetry)
 =========================================
 Dim. of EOMCC iter. space      500
 
 x1 file size   =               90
 
 x2 file size   =            10575

 EOMCCSD SOLVER TYPE  1

 No. of initial right vectors    9

 EOM-CCSD right-hand side iterations
 --------------------------------------------------------------
      Residuum       Omega / hartree  Omega / eV    Cpu    Wall
 --------------------------------------------------------------

 Iteration   1 using    9 trial vectors
   0.4619968512443   1.0357584024362   28.18443   412.9   606.4

 Iteration   2 using   10 trial vectors
   0.1560889782487   0.9822903334752   26.72949    44.7    65.5

 Iteration   3 using   11 trial vectors
   0.0417681364537   0.9811541253597   26.69857    44.8    65.3

 Iteration   4 using   12 trial vectors
   0.0100060945203   0.9812316399295   26.70068    44.9    65.5

 Iteration   5 using   13 trial vectors
   0.0023307657125   0.9812477679333   26.70112    44.6    65.5

 Iteration   6 using   14 trial vectors
   0.0004684175772   0.9812541583350   26.70130    45.0    65.5

 Iteration   7 using   15 trial vectors
   0.0001633185783   0.9812549306963   26.70132    44.8    65.5

 Iteration   8 using   16 trial vectors
   0.0000438131633   0.9812550181333   26.70132    44.9    65.6

 Iteration   9 using   17 trial vectors
   0.0000085024082   0.9812550248135   26.70132    44.7    65.6

 Iteration  10 using   18 trial vectors
   0.0000028530861   0.9812550289484   26.70132    44.9    65.8

 Iteration  11 using   19 trial vectors
   0.0000006083350   0.9812550289081   26.70132    44.7    65.5
 --------------------------------------------------------------
 Iterations converged
 ------------------

 Excited state root  1
 Excitation energy / hartree =        0.981255028908095
                   / eV      =       26.701319266735130
 largest EOMCCSD amplitudes: R1 and R2

 Singles contributions
    10a   (alpha) ---     7a   (alpha)       -0.5208804303
    10a   (alpha) ---     8a   (alpha)        0.1682692630
    10a   (alpha) ---     9a   (alpha)        0.2550787556
    11a   (alpha) ---     8a   (alpha)        0.5962349320
    11a   (alpha) ---     9a   (alpha)       -0.3116758423
    12a   (alpha) ---     7a   (alpha)        0.2817902955
    12a   (alpha) ---     9a   (alpha)       -0.2168840382

 Doubles contributions
 Excited state specisication for QC:
 Rexp(T)|Ref>~(R_1+R_2)|Ref>
 ------- a(p)+/a(q) strings ----------

 singles norm

 doubles norm

 Singles strings
 -0.379129867180612      :(10a)+(7a)  (1a)+ (2a)+ (3a)+ (4a)+ (5a)+ (6a)+ (7a)+ 
 (8a)+ (9a)+ (1b)+ (2b)+ (3b)+ (4b)+ (5b)+ (6b)+ (7b)+ (8b)+ (9b)+ |0>
 -0.379129867180612      :(10b)+(7b)  (1a)+ (2a)+ (3a)+ (4a)+ (5a)+ (6a)+ (7a)+ 
 (8a)+ (9a)+ (1b)+ (2b)+ (3b)+ (4b)+ (5b)+ (6b)+ (7b)+ (8b)+ (9b)+ |0>
  0.122477059253788      :(10a)+(8a)  (1a)+ (2a)+ (3a)+ (4a)+ (5a)+ (6a)+ (7a)+ 
 (8a)+ (9a)+ (1b)+ (2b)+ (3b)+ (4b)+ (5b)+ (6b)+ (7b)+ (8b)+ (9b)+ |0>
  0.122477059253788      :(10b)+(8b)  (1a)+ (2a)+ (3a)+ (4a)+ (5a)+ (6a)+ (7a)+ 
 (8a)+ (9a)+ (1b)+ (2b)+ (3b)+ (4b)+ (5b)+ (6b)+ (7b)+ (8b)+ (9b)+ |0>
  0.185662522783096      :(10a)+(9a)  (1a)+ (2a)+ (3a)+ (4a)+ (5a)+ (6a)+ (7a)+ 
 (8a)+ (9a)+ (1b)+ (2b)+ (3b)+ (4b)+ (5b)+ (6b)+ (7b)+ (8b)+ (9b)+ |0>
  0.185662522783096      :(10b)+(9b)  (1a)+ (2a)+ (3a)+ (4a)+ (5a)+ (6a)+ (7a)+ 
 (8a)+ (9a)+ (1b)+ (2b)+ (3b)+ (4b)+ (5b)+ (6b)+ (7b)+ (8b)+ (9b)+ |0>
  0.433977660605387      :(11a)+(8a)  (1a)+ (2a)+ (3a)+ (4a)+ (5a)+ (6a)+ (7a)+ 
 (8a)+ (9a)+ (1b)+ (2b)+ (3b)+ (4b)+ (5b)+ (6b)+ (7b)+ (8b)+ (9b)+ |0>
  0.433977660605387      :(11b)+(8b)  (1a)+ (2a)+ (3a)+ (4a)+ (5a)+ (6a)+ (7a)+ 
 (8a)+ (9a)+ (1b)+ (2b)+ (3b)+ (4b)+ (5b)+ (6b)+ (7b)+ (8b)+ (9b)+ |0>
 -0.226857477902980      :(11a)+(9a)  (1a)+ (2a)+ (3a)+ (4a)+ (5a)+ (6a)+ (7a)+ 
 (8a)+ (9a)+ (1b)+ (2b)+ (3b)+ (4b)+ (5b)+ (6b)+ (7b)+ (8b)+ (9b)+ |0>
 -0.226857477902980      :(11b)+(9b)  (1a)+ (2a)+ (3a)+ (4a)+ (5a)+ (6a)+ (7a)+ 
 (8a)+ (9a)+ (1b)+ (2b)+ (3b)+ (4b)+ (5b)+ (6b)+ (7b)+ (8b)+ (9b)+ |0>
  0.205104878427727      :(12a)+(7a)  (1a)+ (2a)+ (3a)+ (4a)+ (5a)+ (6a)+ (7a)+ 
 (8a)+ (9a)+ (1b)+ (2b)+ (3b)+ (4b)+ (5b)+ (6b)+ (7b)+ (8b)+ (9b)+ |0>
  0.205104878427727      :(12b)+(7b)  (1a)+ (2a)+ (3a)+ (4a)+ (5a)+ (6a)+ (7a)+ 
 (8a)+ (9a)+ (1b)+ (2b)+ (3b)+ (4b)+ (5b)+ (6b)+ (7b)+ (8b)+ (9b)+ |0>
 -0.157861981053369      :(12a)+(9a)  (1a)+ (2a)+ (3a)+ (4a)+ (5a)+ (6a)+ (7a)+ 
 (8a)+ (9a)+ (1b)+ (2b)+ (3b)+ (4b)+ (5b)+ (6b)+ (7b)+ (8b)+ (9b)+ |0>
 -0.157861981053369      :(12b)+(9b)  (1a)+ (2a)+ (3a)+ (4a)+ (5a)+ (6a)+ (7a)+ 
 (8a)+ (9a)+ (1b)+ (2b)+ (3b)+ (4b)+ (5b)+ (6b)+ (7b)+ (8b)+ (9b)+ |0>

 Doubles strings
 -------------------------------------

 Task  times  cpu:     1201.2s     wall:     1772.9s
 
 
                                NWChem Input Module
                                -------------------
 
 
 Summary of allocated global arrays
-----------------------------------
  No active global arrays



                         GA Statistics for process    0
                         ------------------------------

       create   destroy   get      put      acc     scatter   gather  read&inc
calls: 4370     4370     1.47e+07 1.08e+04 2.01e+05    0        0     4.96e+05 
number of processes/call 1.00e+00 1.49e+00 1.04e+00 0.00e+00 0.00e+00
bytes total:             1.38e+08 4.16e+06 5.34e+06 0.00e+00 0.00e+00 3.97e+06
bytes remote:            1.34e+08 3.80e+06 5.09e+06 0.00e+00 0.00e+00 0.00e+00
Max memory consumed for GA by this process: 82080 bytes
 
MA_summarize_allocated_blocks: starting scan ...
MA_summarize_allocated_blocks: scan completed: 0 heap blocks, 0 stack blocks
MA usage statistics:

	allocation statistics:
					      heap	     stack
					      ----	     -----
	current number of blocks	         0	         0
	maximum number of blocks	        16	        37
	current total bytes		         0	         0
	maximum total bytes		     80120	  22509368
	maximum total K-bytes		        81	     22510
	maximum total M-bytes		         1	        23
 
 
                                     CITATION
                                     --------
                Please cite the following reference when publishing
                           results obtained with NWChem:
 
                 M. Valiev, E.J. Bylaska, N. Govind, K. Kowalski,
              T.P. Straatsma, H.J.J. van Dam, D. Wang, J. Nieplocha,
                        E. Apra, T.L. Windus, W.A. de Jong
                 "NWChem: a comprehensive and scalable open-source
                  solution for large scale molecular simulations"
                      Comput. Phys. Commun. 181, 1477 (2010)
                           doi:10.1016/j.cpc.2010.04.018
 
                                      AUTHORS
                                      -------
          E. Apra, E. J. Bylaska, W. A. de Jong, N. Govind, K. Kowalski,
       T. P. Straatsma, M. Valiev, H. J. J. van Dam, D. Wang, T. L. Windus,
        J. Hammond, J. Autschbach, K. Bhaskaran-Nair, J. Brabec, K. Lopata,
    S. A. Fischer, S. Krishnamoorthy, M. Jacquelin, W. Ma, M. Klemm, O. Villa,
      Y. Chen, V. Anisimov, F. Aquino, S. Hirata, M. T. Hackler, V. Konjkov,
            D. Mejia-Rodriguez, T. Risthaus, M. Malagoli, A. Marenich,
   A. Otero-de-la-Roza, J. Mullin, P. Nichols, R. Peverati, J. Pittner, Y. Zhao,
        P.-D. Fan, A. Fonari, M. J. Williamson, R. J. Harrison, J. R. Rehr,
      M. Dupuis, D. Silverstein, D. M. A. Smith, J. Nieplocha, V. Tipparaju,
    M. Krishnan, B. E. Van Kuiken, A. Vazquez-Mayagoitia, L. Jensen, M. Swart,
      Q. Wu, T. Van Voorhis, A. A. Auer, M. Nooijen, L. D. Crosby, E. Brown,
      G. Cisneros, G. I. Fann, H. Fruchtl, J. Garza, K. Hirao, R. A. Kendall,
      J. A. Nichols, K. Tsemekhman, K. Wolinski, J. Anchell, D. E. Bernholdt,
      P. Borowski, T. Clark, D. Clerc, H. Dachsel, M. J. O. Deegan, K. Dyall,
    D. Elwood, E. Glendening, M. Gutowski, A. C. Hess, J. Jaffe, B. G. Johnson,
     J. Ju, R. Kobayashi, R. Kutteh, Z. Lin, R. Littlefield, X. Long, B. Meng,
      T. Nakajima, S. Niu, L. Pollack, M. Rosing, K. Glaesemann, G. Sandrone,
      M. Stave, H. Taylor, G. Thomas, J. H. van Lenthe, A. T. Wong, Z. Zhang.

 Total times  cpu:     1203.4s     wall:     1804.6s
