 argument  1 = metagga_li4h4_0_m06_0.nw
All connections between all procs tested: SUCCESS
 


============================== echo of input deck ==============================
echo
start metagga_dat
geometry noautosym
   li           -0.86951255    -0.86951258    -0.86951257
   h            -0.94323913    -0.94323915     0.94323910
   h            -0.94323915     0.94323911    -0.94323918
   h             0.94323909    -0.94323917    -0.94323918
   li            0.86951263     0.86951263    -0.86951264
   li            0.86951266    -0.86951265     0.86951266
   li           -0.86951267     0.86951268     0.86951268
   h             0.94323913     0.94323913     0.94323914
end

basis
  * library "6-311++G(2d,2p)"
end

dft
  direct
  xc xm06
  maxiter 1000
end

driver
  clear
  maxiter 100
end

task dft optimize
task dft frequencies numerical
================================================================================


                                         
                                         
 
 
              Northwest Computational Chemistry Package (NWChem) 6.5
              ------------------------------------------------------
 
 
                    Environmental Molecular Sciences Laboratory
                       Pacific Northwest National Laboratory
                                Richland, WA 99352
 
                              Copyright (c) 1994-2013
                       Pacific Northwest National Laboratory
                            Battelle Memorial Institute
 
             NWChem is an open-source computational chemistry package
                        distributed under the terms of the
                      Educational Community License (ECL) 2.0
             A copy of the license is included with this distribution
                              in the LICENSE.TXT file
 
                                  ACKNOWLEDGMENT
                                  --------------

            This software and its documentation were developed at the
            EMSL at Pacific Northwest National Laboratory, a multiprogram
            national laboratory, operated for the U.S. Department of Energy
            by Battelle under Contract Number DE-AC05-76RL01830. Support
            for this work was provided by the Department of Energy Office
            of Biological and Environmental Research, Office of Basic
            Energy Sciences, and the Office of Advanced Scientific Computing.


           Job information
           ---------------

    hostname        = arcen
    program         = /home/d3y133/nwchem-dev/nwchem-dev-2015-01-16/bin/LINUX64/nwchem
    date            = Mon Feb  2 21:18:48 2015

    compiled        = Mon_Feb_02_10:11:44_2015
    source          = /home/d3y133/nwchem-dev/nwchem-dev-2015-01-16
    nwchem branch   = Development
    nwchem revision = 26704
    ga revision     = 10514
    input           = metagga_li4h4_0_m06_0.nw
    prefix          = metagga_dat.
    data base       = /home/d3y133/nwchem-dev/nwchem-trunk-nonwad/QA/scratchdir/metagga_dat.db
    status          = startup
    nproc           =        4
    time left       =     -1s



           Memory information
           ------------------

    heap     =   13107196 doubles =    100.0 Mbytes
    stack    =   13107201 doubles =    100.0 Mbytes
    global   =   26214400 doubles =    200.0 Mbytes (distinct from heap & stack)
    total    =   52428797 doubles =    400.0 Mbytes
    verify   = yes
    hardfail = no 


           Directory information
           ---------------------
 
  0 permanent = /home/d3y133/nwchem-dev/nwchem-trunk-nonwad/QA/scratchdir
  0 scratch   = /home/d3y133/nwchem-dev/nwchem-trunk-nonwad/QA/scratchdir
 
 
 
 
                                NWChem Input Module
                                -------------------
 
 

 Scaling coordinates for geometry "geometry" by  1.889725989
 (inverse scale =  0.529177249)


          ------
          auto-z
          ------
  autoz: excessive number of variables                    312
                    18

 AUTOZ failed to generate good internal coordinates.
 Cartesian coordinates will be used in optimizations.

 
 
                             Geometry "geometry" -> ""
                             -------------------------
 
 Output coordinates in angstroms (scale by  1.889725989 to convert to a.u.)
 
  No.       Tag          Charge          X              Y              Z
 ---- ---------------- ---------- -------------- -------------- --------------
    1 li                   3.0000    -0.86951256    -0.86951259    -0.86951259
    2 h                    1.0000    -0.94323914    -0.94323916     0.94323908
    3 h                    1.0000    -0.94323916     0.94323910    -0.94323920
    4 h                    1.0000     0.94323908    -0.94323918    -0.94323920
    5 li                   3.0000     0.86951262     0.86951262    -0.86951266
    6 li                   3.0000     0.86951265    -0.86951266     0.86951264
    7 li                   3.0000    -0.86951268     0.86951267     0.86951266
    8 h                    1.0000     0.94323912     0.94323912     0.94323912
 
      Atomic Mass 
      ----------- 
 
      li                 7.016000
      h                  1.007825
 

 Effective nuclear repulsion energy (a.u.)      25.3234783205

            Nuclear Dipole moment (a.u.) 
            ----------------------------
        X                 Y               Z
 ---------------- ---------------- ----------------
    -0.0000000000    -0.0000000000     0.0000000000
 
 
            XYZ format geometry
            -------------------
     8
 geometry
 li                   -0.86951256    -0.86951259    -0.86951259
 h                    -0.94323914    -0.94323916     0.94323908
 h                    -0.94323916     0.94323910    -0.94323920
 h                     0.94323908    -0.94323918    -0.94323920
 li                    0.86951262     0.86951262    -0.86951266
 li                    0.86951265    -0.86951266     0.86951264
 li                   -0.86951268     0.86951267     0.86951266
 h                     0.94323912     0.94323912     0.94323912
 
 ==============================================================================
                                internuclear distances
 ------------------------------------------------------------------------------
       center one      |      center two      | atomic units |  angstroms
 ------------------------------------------------------------------------------
    5 li               |   1 li               |     4.64750  |     2.45935
    6 li               |   1 li               |     4.64750  |     2.45935
    6 li               |   5 li               |     4.64750  |     2.45935
    7 li               |   1 li               |     4.64750  |     2.45935
    7 li               |   5 li               |     4.64750  |     2.45935
    7 li               |   6 li               |     4.64750  |     2.45935
 ------------------------------------------------------------------------------
                         number of included internuclear distances:          6
 ==============================================================================



 ==============================================================================
                                 internuclear angles
 ------------------------------------------------------------------------------
        center 1       |       center 2       |       center 3       |  degrees
 ------------------------------------------------------------------------------
    5 li               |   1 li               |   6 li               |    60.00
    5 li               |   1 li               |   7 li               |    60.00
    6 li               |   1 li               |   7 li               |    60.00
    5 li               |   1 li               |   6 li               |    60.00
    5 li               |   1 li               |   7 li               |    60.00
    6 li               |   5 li               |   7 li               |    60.00
    6 li               |   1 li               |   5 li               |    60.00
    6 li               |   1 li               |   7 li               |    60.00
    6 li               |   5 li               |   7 li               |    60.00
    7 li               |   1 li               |   5 li               |    60.00
    7 li               |   1 li               |   6 li               |    60.00
    7 li               |   5 li               |   6 li               |    60.00
 ------------------------------------------------------------------------------
                            number of included internuclear angles:         12
 ==============================================================================



  library name resolved from: environment
  library file name is: <
 /home/d3y133/nwchem-dev/nwchem-trunk-nonwad/QA/../src/basis/libraries/>
  


 Summary of "ao basis" -> "" (cartesian)
 ------------------------------------------------------------------------------
       Tag                 Description            Shells   Functions and Types
 ---------------- ------------------------------  ------  ---------------------
 *                      6-311++G(2d,2p)               on all atoms 


 
  Deleted DRIVER restart files 
 
 
 
                           NWChem Geometry Optimization
                           ----------------------------
 
 
 maximum gradient threshold         (gmax) =   0.000450
 rms gradient threshold             (grms) =   0.000300
 maximum cartesian step threshold   (xmax) =   0.001800
 rms cartesian step threshold       (xrms) =   0.001200
 fixed trust radius                (trust) =   0.300000
 maximum step size to saddle      (sadstp) =   0.100000
 energy precision                  (eprec) =   5.0D-06
 maximum number of steps          (nptopt) =  100
 initial hessian option           (inhess) =    0
 line search option               (linopt) =    1
 hessian update option            (modupd) =    1
 saddle point option              (modsad) =    0
 initial eigen-mode to follow     (moddir) =    0
 initial variable to follow       (vardir) =    0
 follow first negative mode     (firstneg) =    T
 apply conjugacy                    (opcg) =    F
 source of zmatrix                         =           


          -------------------
          Energy Minimization
          -------------------

 
 Using diagonal initial Hessian 

          --------
          Step   0
          --------
 
 
                         Geometry "geometry" -> "geometry"
                         ---------------------------------
 
 Output coordinates in angstroms (scale by  1.889725989 to convert to a.u.)
 
  No.       Tag          Charge          X              Y              Z
 ---- ---------------- ---------- -------------- -------------- --------------
    1 li                   3.0000    -0.86951256    -0.86951259    -0.86951259
    2 h                    1.0000    -0.94323914    -0.94323916     0.94323908
    3 h                    1.0000    -0.94323916     0.94323910    -0.94323920
    4 h                    1.0000     0.94323908    -0.94323918    -0.94323920
    5 li                   3.0000     0.86951262     0.86951262    -0.86951266
    6 li                   3.0000     0.86951265    -0.86951266     0.86951264
    7 li                   3.0000    -0.86951268     0.86951267     0.86951266
    8 h                    1.0000     0.94323912     0.94323912     0.94323912
 
      Atomic Mass 
      ----------- 
 
      li                 7.016000
      h                  1.007825
 

 Effective nuclear repulsion energy (a.u.)      25.3234783205

            Nuclear Dipole moment (a.u.) 
            ----------------------------
        X                 Y               Z
 ---------------- ---------------- ----------------
    -0.0000000000    -0.0000000000     0.0000000000
 
 
                                 NWChem DFT Module
                                 -----------------
 
 
                      Basis "ao basis" -> "ao basis" (cartesian)
                      -----
  li (Lithium)
  ------------
            Exponent  Coefficients 
       -------------- ---------------------------------------------------------
  1 S  9.00460000E+02  0.002287
  1 S  1.34433000E+02  0.017635
  1 S  3.04365000E+01  0.087343
  1 S  8.62639000E+00  0.280977
  1 S  2.48332000E+00  0.658741
  1 S  3.03179000E-01  0.118712
 
  2 S  4.86890000E+00  0.093329
  2 S  8.56924000E-01  0.943045
  2 S  2.43227000E-01 -0.002798
 
  3 P  4.86890000E+00  0.032766
  3 P  8.56924000E-01  0.159792
  3 P  2.43227000E-01  0.885667
 
  4 S  6.35070000E-02  1.000000
 
  5 P  6.35070000E-02  1.000000
 
  6 S  2.43683000E-02  1.000000
 
  7 P  2.43683000E-02  1.000000
 
  8 S  7.40000000E-03  1.000000
 
  9 P  7.40000000E-03  1.000000
 
 10 D  4.00000000E-01  1.000000
 
 11 D  1.00000000E-01  1.000000
 
  h (Hydrogen)
  ------------
            Exponent  Coefficients 
       -------------- ---------------------------------------------------------
  1 S  3.38650000E+01  0.025494
  1 S  5.09479000E+00  0.190373
  1 S  1.15879000E+00  0.852161
 
  2 S  3.25840000E-01  1.000000
 
  3 S  1.02741000E-01  1.000000
 
  4 S  3.60000000E-02  1.000000
 
  5 P  1.50000000E+00  1.000000
 
  6 P  3.75000000E-01  1.000000
 


 Summary of "ao basis" -> "ao basis" (cartesian)
 ------------------------------------------------------------------------------
       Tag                 Description            Shells   Functions and Types
 ---------------- ------------------------------  ------  ---------------------
 li                     6-311++G(2d,2p)             11       29   5s4p2d
 h                      6-311++G(2d,2p)              6       10   4s2p




 Summary of "ao basis" -> "ao basis" (cartesian)
 ------------------------------------------------------------------------------
       Tag                 Description            Shells   Functions and Types
 ---------------- ------------------------------  ------  ---------------------
 li                     6-311++G(2d,2p)             11       29   5s4p2d
 h                      6-311++G(2d,2p)              6       10   4s2p


  Caching 1-el integrals 
 
            General Information
            -------------------
          SCF calculation type: DFT
          Wavefunction type:  closed shell.
          No. of atoms     :     8
          No. of electrons :    16
           Alpha electrons :     8
            Beta electrons :     8
          Charge           :     0
          Spin multiplicity:     1
          Use of symmetry is: off; symmetry adaption is: off
          Maximum number of iterations: ***
          This is a Direct SCF calculation.
          AO basis - number of functions:   156
                     number of shells:    68
          Convergence on energy requested: 1.00D-06
          Convergence on density requested: 1.00D-05
          Convergence on gradient requested: 5.00D-04
 
              XC Information
              --------------
                           M06 Exchange Functional  1.000          
 
             Grid Information
             ----------------
          Grid used for XC integration:  medium    
          Radial quadrature: Mura-Knowles        
          Angular quadrature: Lebedev. 
          Tag              B.-S. Rad. Rad. Pts. Rad. Cut. Ang. Pts.
          ---              ---------- --------- --------- ---------
          li                  1.45       49          22.0       434
          h                   0.35       45          17.0       434
          Grid pruning is: on 
          Number of quadrature shells:   376
          Spatial weights used:  Erf1
 
          Convergence Information
          -----------------------
          Convergence aids based upon iterative change in 
          total energy or number of iterations. 
          Levelshifting, if invoked, occurs when the 
          HOMO/LUMO gap drops below (HL_TOL): 1.00D-02
          DIIS, if invoked, will attempt to extrapolate 
          using up to (NFOCK): 10 stored Fock matrices.

                    Damping( 0%)  Levelshifting(0.5)       DIIS
                  --------------- ------------------- ---------------
          dE  on:    start            ASAP                start   
          dE off:    2 iters        *** iters           *** iters 

 
      Screening Tolerance Information
      -------------------------------
          Density screening/tol_rho: 1.00D-10
          AO Gaussian exp screening on grid/accAOfunc:  14
          CD Gaussian exp screening on grid/accCDfunc:  20
          XC Gaussian exp screening on grid/accXCfunc:  20
          Schwarz screening/accCoul: 1.00D-08

 
      Superposition of Atomic Density Guess
      -------------------------------------
 
 Sum of atomic energies:         -31.72729480
 
      Non-variational initial energy
      ------------------------------

 Total energy =     -31.934051
 1-e energy   =     -90.491177
 2-e energy   =      33.233648
 HOMO         =      -0.380570
 LUMO         =      -0.044914
 
   Time after variat. SCF:      0.4
   Time prior to 1st pass:      0.4

 Grid_pts file          = /home/d3y133/nwchem-dev/nwchem-trunk-nonwad/QA/scratchdir/metagga_dat.gridpts.0
 Record size in doubles =  12289        No. of grid_pts per rec  =   3070
 Max. records in memory =     16        Max. recs in file   = 253312716

 Grid integrated density:      16.000129732132
 Requested integration accuracy:   0.10E-05

           Memory utilization after 1st SCF pass: 
           Heap Space remaining (MW):       12.88            12882468
          Stack Space remaining (MW):       13.11            13106180

   convergence    iter        energy       DeltaE   RMS-Dens  Diis-err    time
 ---------------- ----- ----------------- --------- --------- ---------  ------
 d= 0,ls=0.0,diis     1    -29.6745228906 -5.50D+01  2.42D-02  7.11D-01     3.6
 Grid integrated density:      16.000095102670
 Requested integration accuracy:   0.10E-05
 d= 0,ls=0.0,diis     2    -29.5859972156  8.85D-02  2.02D-02  5.64D-01     6.7
 Grid integrated density:      16.000149083583
 Requested integration accuracy:   0.10E-05
 d= 0,ls=0.0,diis     3    -29.7507242762 -1.65D-01  6.02D-03  8.32D-02     9.8
 Grid integrated density:      16.000125614388
 Requested integration accuracy:   0.10E-05
 d= 0,ls=0.0,diis     4    -29.7771442382 -2.64D-02  1.03D-02  1.99D-03    12.9
 Grid integrated density:      16.000127684849
 Requested integration accuracy:   0.10E-05
 d= 0,ls=0.0,diis     5    -29.7775322050 -3.88D-04  1.95D-03  1.33D-04    16.0
 Grid integrated density:      16.000126291680
 Requested integration accuracy:   0.10E-05
  Resetting Diis
 d= 0,ls=0.0,diis     6    -29.7775580421 -2.58D-05  8.96D-04  2.74D-05    19.2
 Grid integrated density:      16.000126878206
 Requested integration accuracy:   0.10E-05
 d= 0,ls=0.0,diis     7    -29.7775626392 -4.60D-06  7.20D-05  2.26D-06    22.4
 Grid integrated density:      16.000126730040
 Requested integration accuracy:   0.10E-05
 d= 0,ls=0.0,diis     8    -29.7775627842 -1.45D-07  5.54D-05  8.37D-07    25.6
 Grid integrated density:      16.000126805746
 Requested integration accuracy:   0.10E-05
 d= 0,ls=0.0,diis     9    -29.7775628788 -9.46D-08  1.06D-05  9.29D-09    28.7
 Grid integrated density:      16.000126789881
 Requested integration accuracy:   0.10E-05
 d= 0,ls=0.0,diis    10    -29.7775628798 -1.04D-09  5.81D-06  2.86D-09    31.9


         Total DFT energy =      -29.777562879832
      One electron energy =      -92.095516099248
           Coulomb energy =       43.036649197367
    Exchange-Corr. energy =       -6.042174298437
 Nuclear repulsion energy =       25.323478320486

 Numeric. integr. density =       16.000126789881

     Total iterative time =     31.5s


 
                       DFT Final Molecular Orbital Analysis
                       ------------------------------------
 
 Vector    1  Occ=2.000000D+00  E=-1.567370D+00
              MO Center=  3.3D-06,  1.7D-06,  4.8D-07, r^2= 2.4D+00
   Bfn.  Coefficient  Atom+Function         Bfn.  Coefficient  Atom+Function  
  ----- ------------  ---------------      ----- ------------  ---------------
     1      0.291818  1 Li s                 60      0.291820  5 Li s          
    89      0.291819  6 Li s                118      0.291819  7 Li s          
     2      0.216058  1 Li s                 61      0.216060  5 Li s          
    90      0.216059  6 Li s                119      0.216059  7 Li s          
 
 Vector    2  Occ=2.000000D+00  E=-1.563966D+00
              MO Center=  8.1D-01,  2.9D-01, -2.3D-01, r^2= 1.6D+00
   Bfn.  Coefficient  Atom+Function         Bfn.  Coefficient  Atom+Function  
  ----- ------------  ---------------      ----- ------------  ---------------
    60      0.467593  5 Li s                 61      0.340228  5 Li s          
    89     -0.339319  6 Li s                 90     -0.246894  6 Li s          
    73      0.234687  5 Li s                102     -0.170299  6 Li s          
 
 Vector    3  Occ=2.000000D+00  E=-1.563966D+00
              MO Center= -1.7D-01,  2.7D-01,  7.5D-01, r^2= 1.7D+00
   Bfn.  Coefficient  Atom+Function         Bfn.  Coefficient  Atom+Function  
  ----- ------------  ---------------      ----- ------------  ---------------
   118      0.452155  7 Li s                 89     -0.343187  6 Li s          
   119      0.328996  7 Li s                 90     -0.249708  6 Li s          
   131      0.226912  7 Li s                102     -0.172232  6 Li s          
 
 Vector    4  Occ=2.000000D+00  E=-1.563966D+00
              MO Center= -6.4D-01, -5.5D-01, -5.2D-01, r^2= 1.4D+00
   Bfn.  Coefficient  Atom+Function         Bfn.  Coefficient  Atom+Function  
  ----- ------------  ---------------      ----- ------------  ---------------
     1      0.506803  1 Li s                  2      0.368758  1 Li s          
    14      0.254403  1 Li s                118     -0.208913  7 Li s          
    89     -0.161099  6 Li s                119     -0.152009  7 Li s          
 
 Vector    5  Occ=2.000000D+00  E=-1.759695D-01
              MO Center=  1.9D-07,  1.1D-07,  9.1D-08, r^2= 3.2D+00
   Bfn.  Coefficient  Atom+Function         Bfn.  Coefficient  Atom+Function  
  ----- ------------  ---------------      ----- ------------  ---------------
     6      0.174657  1 Li s                 65      0.174657  5 Li s          
    94      0.174657  6 Li s                123      0.174657  7 Li s          
    32      0.152270  2 H  s                 42      0.152270  3 H  s          
    52      0.152271  4 H  s                149      0.152269  8 H  s          
 
 Vector    6  Occ=2.000000D+00  E=-1.099080D-01
              MO Center=  6.2D-01,  5.6D-01,  5.3D-01, r^2= 3.4D+00
   Bfn.  Coefficient  Atom+Function         Bfn.  Coefficient  Atom+Function  
  ----- ------------  ---------------      ----- ------------  ---------------
    10      0.402970  1 Li s                149      0.303119  8 H  s          
   148      0.241011  8 H  s                147      0.161205  8 H  s          
   127     -0.158713  7 Li s          
 
 Vector    7  Occ=2.000000D+00  E=-1.099080D-01
              MO Center=  2.1D-01, -3.6D-01, -7.0D-01, r^2= 3.7D+00
   Bfn.  Coefficient  Atom+Function         Bfn.  Coefficient  Atom+Function  
  ----- ------------  ---------------      ----- ------------  ---------------
   127      0.366695  7 Li s                 52      0.276044  4 H  s          
    98     -0.249156  6 Li s                 51      0.219492  4 H  s          
    42     -0.187544  3 H  s          
 
 Vector    8  Occ=2.000000D+00  E=-1.099080D-01
              MO Center= -8.3D-01, -1.9D-01,  1.7D-01, r^2= 3.6D+00
   Bfn.  Coefficient  Atom+Function         Bfn.  Coefficient  Atom+Function  
  ----- ------------  ---------------      ----- ------------  ---------------
    69      0.360277  5 Li s                 98     -0.289978  6 Li s          
    32      0.271121  2 H  s                 42     -0.218239  3 H  s          
    31      0.215574  2 H  s                 41     -0.173527  3 H  s          
 
 Vector    9  Occ=0.000000D+00  E=-2.202057D-02
              MO Center=  4.0D-06,  8.7D-06,  1.3D-05, r^2= 3.8D+01
   Bfn.  Coefficient  Atom+Function         Bfn.  Coefficient  Atom+Function  
  ----- ------------  ---------------      ----- ------------  ---------------
    33     -0.310391  2 H  s                 43     -0.310402  3 H  s          
    53     -0.310415  4 H  s                150     -0.310362  8 H  s          
   131      0.290558  7 Li s                 73      0.287510  5 Li s          
   102      0.288882  6 Li s                 14      0.283769  1 Li s          
 
 Vector   10  Occ=0.000000D+00  E=-1.212783D-02
              MO Center= -4.5D-01,  5.5D-01,  1.1D+00, r^2= 4.3D+01
   Bfn.  Coefficient  Atom+Function         Bfn.  Coefficient  Atom+Function  
  ----- ------------  ---------------      ----- ------------  ---------------
   127      2.315723  7 Li s                 98     -1.451747  6 Li s          
    69     -0.621022  5 Li s                128      0.606818  7 Li px         
   129     -0.573762  7 Li py               130     -0.501150  7 Li pz         
    99      0.448015  6 Li px               100     -0.414965  6 Li py         
   131     -0.391819  7 Li s                 53     -0.361326  4 H  s          
 
 Vector   11  Occ=0.000000D+00  E=-1.212778D-02
              MO Center=  1.1D+00,  1.8D-01, -1.2D-01, r^2= 4.3D+01
   Bfn.  Coefficient  Atom+Function         Bfn.  Coefficient  Atom+Function  
  ----- ------------  ---------------      ----- ------------  ---------------
    69      2.061070  5 Li s                 98     -1.809883  6 Li s          
    72      0.585149  5 Li pz               127     -0.550507  7 Li s          
   101      0.538970  6 Li pz                71     -0.510858  5 Li py         
   100     -0.464690  6 Li py                70     -0.400778  5 Li px         
    73     -0.347183  5 Li s                 33     -0.321587  2 H  s          
 
 Vector   12  Occ=0.000000D+00  E=-1.212770D-02
              MO Center= -6.5D-01, -7.3D-01, -9.7D-01, r^2= 4.3D+01
   Bfn.  Coefficient  Atom+Function         Bfn.  Coefficient  Atom+Function  
  ----- ------------  ---------------      ----- ------------  ---------------
    10      2.406356  1 Li s                 69     -1.141900  5 Li s          
    98     -0.744186  6 Li s                 11      0.607127  1 Li px         
    12      0.587567  1 Li py                13      0.552795  1 Li pz         
   127     -0.520345  7 Li s                 14     -0.400941  1 Li s          
    70      0.374729  5 Li px               150     -0.375460  8 H  s          
 
 Vector   13  Occ=0.000000D+00  E= 1.912347D-03
              MO Center=  7.7D-01,  8.7D-01,  1.1D+00, r^2= 5.8D+01
   Bfn.  Coefficient  Atom+Function         Bfn.  Coefficient  Atom+Function  
  ----- ------------  ---------------      ----- ------------  ---------------
    14     23.321636  1 Li s                 73    -11.056144  5 Li s          
   102     -7.212452  6 Li s                131     -5.052936  7 Li s          
    15      1.614242  1 Li px                16      1.471908  1 Li py         
    74      1.403870  5 Li px               103      1.338943  6 Li px         
    75      1.260428  5 Li py                17      1.217008  1 Li pz         
 
 Vector   14  Occ=0.000000D+00  E= 1.914261D-03
              MO Center= -1.3D+00, -2.1D-01,  1.4D-01, r^2= 5.9D+01
   Bfn.  Coefficient  Atom+Function         Bfn.  Coefficient  Atom+Function  
  ----- ------------  ---------------      ----- ------------  ---------------
    73     19.888884  5 Li s                102    -17.465446  6 Li s          
   131     -5.302014  7 Li s                 14      2.878623  1 Li s          
    76      1.855092  5 Li pz               105      1.812679  6 Li pz         
   134      1.608537  7 Li pz                17      1.563244  1 Li pz         
    75     -1.307727  5 Li py               104     -1.268251  6 Li py         
 
 Vector   15  Occ=0.000000D+00  E= 1.915303D-03
              MO Center=  5.3D-01, -6.5D-01, -1.3D+00, r^2= 5.8D+01
   Bfn.  Coefficient  Atom+Function         Bfn.  Coefficient  Atom+Function  
  ----- ------------  ---------------      ----- ------------  ---------------
   131     22.290816  7 Li s                102    -13.971224  6 Li s          
    73     -5.989225  5 Li s                 14     -2.330419  1 Li s          
   132      1.707426  7 Li px               103      1.567089  6 Li px         
   133     -1.461481  7 Li py                74      1.432331  5 Li px         
   104     -1.322917  6 Li py                15      1.290150  1 Li px         
 
 Vector   16  Occ=0.000000D+00  E= 2.455743D-03
              MO Center= -1.8D-05, -1.1D-03, -1.7D-03, r^2= 6.1D+01
   Bfn.  Coefficient  Atom+Function         Bfn.  Coefficient  Atom+Function  
  ----- ------------  ---------------      ----- ------------  ---------------
    17     -0.850040  1 Li pz                76     -0.848518  5 Li pz         
   105      0.850798  6 Li pz               134      0.850106  7 Li pz         
    16      0.799336  1 Li py                75     -0.800631  5 Li py         
   104      0.798178  6 Li py               133     -0.798607  7 Li py         
 
 Vector   17  Occ=0.000000D+00  E= 2.455743D-03
              MO Center= -5.9D-04, -4.6D-04, -6.1D-04, r^2= 6.1D+01
   Bfn.  Coefficient  Atom+Function         Bfn.  Coefficient  Atom+Function  
  ----- ------------  ---------------      ----- ------------  ---------------
    15      0.952858  1 Li px                74     -0.952533  5 Li px         
   103     -0.952013  6 Li px               132      0.950923  7 Li px         
    16     -0.519248  1 Li py                75      0.519310  5 Li py         
   104     -0.520049  6 Li py               133      0.521109  7 Li py         
    17     -0.431481  1 Li pz                76     -0.431733  5 Li pz         
 
 Vector   18  Occ=0.000000D+00  E= 1.333141D-02
              MO Center= -1.6D-03, -4.1D-03, -6.1D-03, r^2= 8.5D+01
   Bfn.  Coefficient  Atom+Function         Bfn.  Coefficient  Atom+Function  
  ----- ------------  ---------------      ----- ------------  ---------------
    15      1.074726  1 Li px                16      1.076606  1 Li py         
    17      1.078262  1 Li pz                76      1.068719  5 Li pz         
    74     -1.062704  5 Li px                75     -1.060740  5 Li py         
   103     -1.059265  6 Li px               104      1.063784  6 Li py         
   105     -1.055722  6 Li pz               132      1.057632  7 Li px         
 
 Vector   19  Occ=0.000000D+00  E= 1.761098D-02
              MO Center= -1.1D+00, -1.4D+00, -2.1D+00, r^2= 9.5D+01
   Bfn.  Coefficient  Atom+Function         Bfn.  Coefficient  Atom+Function  
  ----- ------------  ---------------      ----- ------------  ---------------
    14    133.452410  1 Li s                 73    -72.537354  5 Li s          
   102    -40.275277  6 Li s                131    -20.637950  7 Li s          
    15     13.688364  1 Li px                16     13.480455  1 Li py         
    17     12.680380  1 Li pz                74      9.366030  5 Li px         
    75      8.516911  5 Li py               103      7.122650  6 Li px         
 
 Vector   20  Occ=0.000000D+00  E= 1.762105D-02
              MO Center=  2.2D+00,  1.4D-01, -1.6D-01, r^2= 9.8D+01
   Bfn.  Coefficient  Atom+Function         Bfn.  Coefficient  Atom+Function  
  ----- ------------  ---------------      ----- ------------  ---------------
    73    111.722245  5 Li s                102   -104.244503  6 Li s          
   131    -32.213452  7 Li s                 14     24.736688  1 Li s          
    76     13.885687  5 Li pz               105     12.439440  6 Li pz         
   104    -11.183232  6 Li py                75    -10.876673  5 Li py         
    74     -8.599798  5 Li px               103      7.507136  6 Li px         
 
 Vector   21  Occ=0.000000D+00  E= 1.762685D-02
              MO Center= -1.1D+00,  1.1D+00,  2.2D+00, r^2= 9.5D+01
   Bfn.  Coefficient  Atom+Function         Bfn.  Coefficient  Atom+Function  
  ----- ------------  ---------------      ----- ------------  ---------------
   131    131.463384  7 Li s                102    -79.068422  6 Li s          
    73    -31.229524  5 Li s                 14    -21.166522  1 Li s          
   132     14.517424  7 Li px               133    -13.431723  7 Li py         
   134    -11.309827  7 Li pz               103     10.032950  6 Li px         
   104     -9.927472  6 Li py                74      6.088498  5 Li px         
 
 Vector   22  Occ=0.000000D+00  E= 1.787755D-02
              MO Center=  3.6D-01,  1.5D-01,  8.5D-02, r^2= 8.1D+01
   Bfn.  Coefficient  Atom+Function         Bfn.  Coefficient  Atom+Function  
  ----- ------------  ---------------      ----- ------------  ---------------
    74      8.120027  5 Li px               103     -8.142411  6 Li px         
    75     -6.354728  5 Li py               133      6.275961  7 Li py         
   134     -4.243329  7 Li pz               105      4.161117  6 Li pz         
   104     -3.954896  6 Li py                16      3.876145  1 Li py         
    15     -2.196660  1 Li px               132      2.174308  7 Li px         
 
 Vector   23  Occ=0.000000D+00  E= 1.787912D-02
              MO Center= -2.8D-03, -2.0D-01,  1.7D-01, r^2= 8.2D+01
   Bfn.  Coefficient  Atom+Function         Bfn.  Coefficient  Atom+Function  
  ----- ------------  ---------------      ----- ------------  ---------------
   102      9.937456  6 Li s                 16      7.823230  1 Li py         
   105     -7.437646  6 Li pz               134      6.498520  7 Li pz         
   104     -6.391021  6 Li py                73     -6.270400  5 Li s          
    17     -5.266550  1 Li pz                75      4.813789  5 Li py         
    76      4.327449  5 Li pz               131     -3.518564  7 Li s          
 
 Vector   24  Occ=0.000000D+00  E= 1.787985D-02
              MO Center= -3.0D-01,  1.6D-01, -1.1D-01, r^2= 8.2D+01
   Bfn.  Coefficient  Atom+Function         Bfn.  Coefficient  Atom+Function  
  ----- ------------  ---------------      ----- ------------  ---------------
    73     10.209195  5 Li s                131     -8.904962  7 Li s          
    15     -8.732245  1 Li px               132      6.734504  7 Li px         
    17      6.494609  1 Li pz                76     -5.695828  5 Li pz         
    75     -4.981161  5 Li py               133      4.790360  7 Li py         
    14     -4.749626  1 Li s                134      4.607476  7 Li pz         
 
 Vector   25  Occ=0.000000D+00  E= 3.167907D-02
              MO Center= -1.1D-03, -2.8D-03, -4.2D-03, r^2= 4.8D+01
   Bfn.  Coefficient  Atom+Function         Bfn.  Coefficient  Atom+Function  
  ----- ------------  ---------------      ----- ------------  ---------------
    33      3.081711  2 H  s                 43      3.081837  3 H  s          
    53      3.081993  4 H  s                150      3.081359  8 H  s          
    11     -1.531293  1 Li px                12     -1.532120  1 Li py         
    13     -1.532830  1 Li pz                70      1.525240  5 Li px         
    71      1.524389  5 Li py                72     -1.527863  5 Li pz         
 
 Vector   26  Occ=0.000000D+00  E= 3.744353D-02
              MO Center= -2.3D-01, -2.7D-01, -3.5D-01, r^2= 5.8D+01
   Bfn.  Coefficient  Atom+Function         Bfn.  Coefficient  Atom+Function  
  ----- ------------  ---------------      ----- ------------  ---------------
    14    130.327829  1 Li s                 73    -61.783690  5 Li s          
   102    -40.307338  6 Li s                131    -28.239995  7 Li s          
    15     12.110139  1 Li px                16     11.629364  1 Li py         
    17     10.779954  1 Li pz                10      9.553010  1 Li s          
    74      7.857235  5 Li px                75      7.383725  5 Li py         
 
 Vector   27  Occ=0.000000D+00  E= 3.745586D-02
              MO Center=  4.0D-01,  6.2D-02, -4.2D-02, r^2= 5.9D+01
   Bfn.  Coefficient  Atom+Function         Bfn.  Coefficient  Atom+Function  
  ----- ------------  ---------------      ----- ------------  ---------------
    73    111.579995  5 Li s                102    -98.048683  6 Li s          
   131    -29.674369  7 Li s                 14     16.141631  1 Li s          
    76     11.945503  5 Li pz               105     11.118046  6 Li pz         
    75    -10.152852  5 Li py               104     -9.304410  6 Li py         
    69      8.166307  5 Li s                 74     -7.455984  5 Li px         
 
 Vector   28  Occ=0.000000D+00  E= 3.746256D-02
              MO Center= -1.7D-01,  2.0D-01,  3.9D-01, r^2= 5.8D+01
   Bfn.  Coefficient  Atom+Function         Bfn.  Coefficient  Atom+Function  
  ----- ------------  ---------------      ----- ------------  ---------------
   131    125.374723  7 Li s                102    -78.510270  6 Li s          
    73    -33.749128  5 Li s                 14    -13.113714  1 Li s          
   132     12.192994  7 Li px               133    -11.388823  7 Li py         
   134     -9.630223  7 Li pz               103      9.290459  6 Li px         
   127      9.168222  7 Li s                104     -8.474540  6 Li py         
 
 Vector   29  Occ=0.000000D+00  E= 4.586266D-02
              MO Center= -1.0D-05, -4.2D-05, -5.8D-05, r^2= 4.0D+01
   Bfn.  Coefficient  Atom+Function         Bfn.  Coefficient  Atom+Function  
  ----- ------------  ---------------      ----- ------------  ---------------
    17     -0.773315  1 Li pz                76     -0.773429  5 Li pz         
   105      0.772845  6 Li pz               134      0.772947  7 Li pz         
    16      0.744318  1 Li py                75     -0.743921  5 Li py         
   104      0.744414  6 Li py               133     -0.744152  7 Li py         
    13      0.701039  1 Li pz                72      0.700896  5 Li pz         
 
 Vector   30  Occ=0.000000D+00  E= 4.586266D-02
              MO Center= -1.9D-05, -3.2D-05, -5.4D-05, r^2= 4.0D+01
   Bfn.  Coefficient  Atom+Function         Bfn.  Coefficient  Atom+Function  
  ----- ------------  ---------------      ----- ------------  ---------------
    15      0.876072  1 Li px                74     -0.875950  5 Li px         
   103     -0.875972  6 Li px               132      0.876143  7 Li px         
    11     -0.794461  1 Li px                70      0.794451  5 Li px         
    99      0.794397  6 Li px               128     -0.794251  7 Li px         
    16     -0.463275  1 Li py                75      0.463139  5 Li py         
 
 Vector   31  Occ=0.000000D+00  E= 5.660884D-02
              MO Center=  9.6D-02,  1.1D-01,  1.4D-01, r^2= 5.7D+01
   Bfn.  Coefficient  Atom+Function         Bfn.  Coefficient  Atom+Function  
  ----- ------------  ---------------      ----- ------------  ---------------
    14    131.808824  1 Li s                 73    -62.537222  5 Li s          
   102    -40.742953  6 Li s                131    -28.529428  7 Li s          
    10     19.289523  1 Li s                 15     13.442257  1 Li px         
    16     13.070545  1 Li py                17     12.407762  1 Li pz         
    69     -9.148568  5 Li s                 74      8.028705  5 Li px         
 
 Vector   32  Occ=0.000000D+00  E= 5.663552D-02
              MO Center= -1.6D-01, -2.8D-02,  1.6D-02, r^2= 5.7D+01
   Bfn.  Coefficient  Atom+Function         Bfn.  Coefficient  Atom+Function  
  ----- ------------  ---------------      ----- ------------  ---------------
    73    113.031812  5 Li s                102    -99.322920  6 Li s          
   131    -30.117410  7 Li s                 69     16.519678  5 Li s          
    14     16.408170  1 Li s                 98    -14.514110  6 Li s          
    76     12.768906  5 Li pz               105     11.698894  6 Li pz         
    75    -11.354955  5 Li py               104    -10.283478  6 Li py         
 
 Vector   33  Occ=0.000000D+00  E= 5.665013D-02
              MO Center=  6.2D-02, -7.8D-02, -1.5D-01, r^2= 5.7D+01
   Bfn.  Coefficient  Atom+Function         Bfn.  Coefficient  Atom+Function  
  ----- ------------  ---------------      ----- ------------  ---------------
   131    127.129757  7 Li s                102    -79.640123  6 Li s          
    73    -34.174425  5 Li s                127     18.565020  7 Li s          
   132     13.395699  7 Li px                14    -13.314814  1 Li s          
   133    -12.761877  7 Li py                98    -11.631199  6 Li s          
   134    -11.379371  7 Li pz               103      9.684495  6 Li px         
 
 Vector   34  Occ=0.000000D+00  E= 6.469121D-02
              MO Center=  2.4D-01,  2.7D-01,  3.4D-01, r^2= 4.8D+01
   Bfn.  Coefficient  Atom+Function         Bfn.  Coefficient  Atom+Function  
  ----- ------------  ---------------      ----- ------------  ---------------
   105      5.707007  6 Li pz               134     -5.702874  7 Li pz         
    75     -5.159980  5 Li py               133      5.150424  7 Li py         
    74      4.800654  5 Li px               103     -4.794426  6 Li px         
   101     -3.674374  6 Li pz               130      3.675730  7 Li pz         
    71      3.322799  5 Li py               129     -3.325918  7 Li py         
 
 Vector   35  Occ=0.000000D+00  E= 6.469133D-02
              MO Center= -3.9D-01, -9.0D-02,  5.9D-02, r^2= 4.8D+01
   Bfn.  Coefficient  Atom+Function         Bfn.  Coefficient  Atom+Function  
  ----- ------------  ---------------      ----- ------------  ---------------
    15      6.257090  1 Li px               132     -6.236057  7 Li px         
    16     -4.391691  1 Li py               104      4.387348  6 Li py         
    11     -4.025528  1 Li px               128      4.032389  7 Li px         
    75      3.275285  5 Li py               133     -3.279653  7 Li py         
   105      2.982749  6 Li pz               134     -2.984866  7 Li pz         
 
 Vector   36  Occ=0.000000D+00  E= 6.469139D-02
              MO Center=  1.5D-01, -1.8D-01, -4.0D-01, r^2= 4.8D+01
   Bfn.  Coefficient  Atom+Function         Bfn.  Coefficient  Atom+Function  
  ----- ------------  ---------------      ----- ------------  ---------------
    17      6.174863  1 Li pz                76     -6.161661  5 Li pz         
    16     -4.648579  1 Li py               104      4.635799  6 Li py         
    74     -4.088332  5 Li px               103      4.079249  6 Li px         
    13     -3.979558  1 Li pz                72      3.983852  5 Li pz         
    12      2.991907  1 Li py               100     -2.996118  6 Li py         
 
 Vector   37  Occ=0.000000D+00  E= 6.635726D-02
              MO Center= -2.6D-04, -6.6D-04, -9.8D-04, r^2= 3.8D+01
   Bfn.  Coefficient  Atom+Function         Bfn.  Coefficient  Atom+Function  
  ----- ------------  ---------------      ----- ------------  ---------------
    33      7.286865  2 H  s                 43      7.287306  3 H  s          
    53      7.287845  4 H  s                150      7.285610  8 H  s          
    10     -5.847086  1 Li s                 69     -5.850047  5 Li s          
    98     -5.851035  6 Li s                127     -5.852233  7 Li s          
    11     -2.356192  1 Li px                12     -2.355871  1 Li py         
 
 Vector   38  Occ=0.000000D+00  E= 7.867131D-02
              MO Center= -5.7D-01, -6.5D-01, -8.7D-01, r^2= 2.7D+01
   Bfn.  Coefficient  Atom+Function         Bfn.  Coefficient  Atom+Function  
  ----- ------------  ---------------      ----- ------------  ---------------
    10     34.627253  1 Li s                 69    -16.571281  5 Li s          
    98    -10.667634  6 Li s                127     -7.390840  7 Li s          
    11      6.814695  1 Li px                12      6.676011  1 Li py         
    13      6.426397  1 Li pz                14     -4.704872  1 Li s          
   150      4.717774  8 H  s                 70      3.862179  5 Li px         
 
 Vector   39  Occ=0.000000D+00  E= 7.867164D-02
              MO Center=  9.8D-01,  1.6D-01, -1.0D-01, r^2= 2.8D+01
   Bfn.  Coefficient  Atom+Function         Bfn.  Coefficient  Atom+Function  
  ----- ------------  ---------------      ----- ------------  ---------------
    69     29.609861  5 Li s                 98    -26.140301  6 Li s          
   127     -7.901311  7 Li s                 72      6.281860  5 Li pz         
    71     -5.760502  5 Li py               101      5.714766  6 Li pz         
   100     -5.193209  6 Li py                70     -4.989113  5 Li px         
    10      4.430615  1 Li s                 99      4.128380  6 Li px         
 
 Vector   40  Occ=0.000000D+00  E= 7.867181D-02
              MO Center= -4.1D-01,  5.0D-01,  9.7D-01, r^2= 2.7D+01
   Bfn.  Coefficient  Atom+Function         Bfn.  Coefficient  Atom+Function  
  ----- ------------  ---------------      ----- ------------  ---------------
   127     33.385354  7 Li s                 98    -20.844505  6 Li s          
    69     -8.957199  5 Li s                128      6.720303  7 Li px         
   129     -6.493108  7 Li py               130     -5.990405  7 Li pz         
    99      4.669220  6 Li px                53      4.547420  4 H  s          
   131     -4.508291  7 Li s                100     -4.441911  6 Li py         
 
 Vector   41  Occ=0.000000D+00  E= 1.174927D-01
              MO Center=  5.8D-07,  1.4D-06,  1.7D-06, r^2= 1.8D+01
   Bfn.  Coefficient  Atom+Function         Bfn.  Coefficient  Atom+Function  
  ----- ------------  ---------------      ----- ------------  ---------------
    13     -0.746592  1 Li pz                72     -0.746590  5 Li pz         
   101      0.746592  6 Li pz               130      0.746591  7 Li pz         
    12      0.693010  1 Li py                71     -0.693013  5 Li py         
   100      0.693011  6 Li py               129     -0.693007  7 Li py         
     9      0.591251  1 Li pz                68      0.591214  5 Li pz         
 
 Vector   42  Occ=0.000000D+00  E= 1.174927D-01
              MO Center=  8.3D-07,  1.3D-06,  2.0D-06, r^2= 1.8D+01
   Bfn.  Coefficient  Atom+Function         Bfn.  Coefficient  Atom+Function  
  ----- ------------  ---------------      ----- ------------  ---------------
    11      0.831154  1 Li px                70     -0.831154  5 Li px         
    99     -0.831154  6 Li px               128      0.831156  7 Li px         
     7     -0.658252  1 Li px                66      0.658260  5 Li px         
    95      0.658248  6 Li px               124     -0.658208  7 Li px         
    15     -0.488261  1 Li px                74      0.488246  5 Li px         
 
 Vector   43  Occ=0.000000D+00  E= 1.356052D-01
              MO Center= -1.4D-01, -1.7D-01, -2.3D-01, r^2= 2.6D+01
   Bfn.  Coefficient  Atom+Function         Bfn.  Coefficient  Atom+Function  
  ----- ------------  ---------------      ----- ------------  ---------------
    14     90.348192  1 Li s                 73    -42.933592  5 Li s          
   102    -27.884155  6 Li s                131    -19.547531  7 Li s          
    15      8.641098  1 Li px                16      8.344320  1 Li py         
    17      7.809436  1 Li pz               150     -7.231670  8 H  s          
    74      5.440553  5 Li px                75      5.144786  5 Li py         
 
 Vector   44  Occ=0.000000D+00  E= 1.356179D-01
              MO Center=  2.8D-01,  3.7D-02, -1.4D-02, r^2= 2.6D+01
   Bfn.  Coefficient  Atom+Function         Bfn.  Coefficient  Atom+Function  
  ----- ------------  ---------------      ----- ------------  ---------------
    73     77.458139  5 Li s                102    -68.037612  6 Li s          
   131    -20.737796  7 Li s                 14     11.309218  1 Li s          
    76      8.407317  5 Li pz               105      7.778462  6 Li pz         
    75     -7.271056  5 Li py               104     -6.639285  6 Li py         
    33     -6.106520  2 H  s                 74     -5.591025  5 Li px         
 
 Vector   45  Occ=0.000000D+00  E= 1.356250D-01
              MO Center= -1.4D-01,  1.6D-01,  2.9D-01, r^2= 2.6D+01
   Bfn.  Coefficient  Atom+Function         Bfn.  Coefficient  Atom+Function  
  ----- ------------  ---------------      ----- ------------  ---------------
   131     87.086625  7 Li s                102    -54.638907  6 Li s          
    73    -23.341163  5 Li s                 14     -9.097069  1 Li s          
   132      8.688651  7 Li px               133     -8.184079  7 Li py         
   134     -7.073405  7 Li pz                53     -6.619042  4 H  s          
   103      6.474432  6 Li px               104     -5.968225  6 Li py         
 
 Vector   46  Occ=0.000000D+00  E= 1.357594D-01
              MO Center= -9.5D-03, -2.9D-02, -4.4D-02, r^2= 2.7D+01
   Bfn.  Coefficient  Atom+Function         Bfn.  Coefficient  Atom+Function  
  ----- ------------  ---------------      ----- ------------  ---------------
    53     14.716435  4 H  s                 33     14.617676  2 H  s          
    43     14.660095  3 H  s                150     14.506856  8 H  s          
    10    -11.695128  1 Li s                 69    -11.678434  5 Li s          
    98    -11.671973  6 Li s                127    -11.663422  7 Li s          
    71      2.971867  5 Li py               101      2.980856  6 Li pz         
 
 Vector   47  Occ=0.000000D+00  E= 1.455662D-01
              MO Center=  1.5D-01,  1.7D-01,  2.2D-01, r^2= 2.5D+01
   Bfn.  Coefficient  Atom+Function         Bfn.  Coefficient  Atom+Function  
  ----- ------------  ---------------      ----- ------------  ---------------
    10     29.631982  1 Li s                 14    -26.536229  1 Li s          
    69    -14.053602  5 Li s                 73     12.586596  5 Li s          
    98     -9.149154  6 Li s                102      8.186116  6 Li s          
   127     -6.433902  7 Li s                150     -6.281863  8 H  s          
   131      5.763539  7 Li s                  6      5.436817  1 Li s          
 
 Vector   48  Occ=0.000000D+00  E= 1.455825D-01
              MO Center= -2.5D-01, -4.1D-02,  2.6D-02, r^2= 2.5D+01
   Bfn.  Coefficient  Atom+Function         Bfn.  Coefficient  Atom+Function  
  ----- ------------  ---------------      ----- ------------  ---------------
    69     25.384724  5 Li s                 73    -22.660393  5 Li s          
    98    -22.302601  6 Li s                102     19.910845  6 Li s          
   127     -6.767887  7 Li s                131      6.043495  7 Li s          
    33     -5.383636  2 H  s                 43      4.731008  3 H  s          
    65      4.653604  5 Li s                 72      4.589910  5 Li pz         
 
 Vector   49  Occ=0.000000D+00  E= 1.455915D-01
              MO Center=  1.0D-01, -1.2D-01, -2.4D-01, r^2= 2.5D+01
   Bfn.  Coefficient  Atom+Function         Bfn.  Coefficient  Atom+Function  
  ----- ------------  ---------------      ----- ------------  ---------------
   127     28.528911  7 Li s                131    -25.424943  7 Li s          
    98    -17.883545  6 Li s                102     15.941333  6 Li s          
    69     -7.675398  5 Li s                 73      6.842357  5 Li s          
    53     -6.052702  4 H  s                123      5.227517  7 Li s          
   128      4.475650  7 Li px               124      4.273497  7 Li px         
 
 Vector   50  Occ=0.000000D+00  E= 1.608225D-01
              MO Center=  4.3D-05,  1.0D-04,  1.5D-04, r^2= 2.1D+01
   Bfn.  Coefficient  Atom+Function         Bfn.  Coefficient  Atom+Function  
  ----- ------------  ---------------      ----- ------------  ---------------
    33      5.748401  2 H  s                 43      5.748705  3 H  s          
    53      5.749075  4 H  s                150      5.747540  8 H  s          
    10     -2.237878  1 Li s                 69     -2.238548  5 Li s          
    98     -2.238803  6 Li s                127     -2.239109  7 Li s          
    11     -1.233317  1 Li px                12     -1.233179  1 Li py         
 
 Vector   51  Occ=0.000000D+00  E= 2.005860D-01
              MO Center=  1.0D-01,  1.5D-01,  4.0D-02, r^2= 1.6D+01
   Bfn.  Coefficient  Atom+Function         Bfn.  Coefficient  Atom+Function  
  ----- ------------  ---------------      ----- ------------  ---------------
    67     -2.666258  5 Li py               125      2.666241  7 Li py         
    71      2.542434  5 Li py               129     -2.542613  7 Li py         
    66      2.456321  5 Li px                95     -2.456331  6 Li px         
    70     -2.342650  5 Li px                99      2.342286  6 Li px         
    75     -2.102617  5 Li py               133      2.102230  7 Li py         
 
 Vector   52  Occ=0.000000D+00  E= 2.005860D-01
              MO Center= -1.5D-01, -8.5D-02,  1.7D-01, r^2= 1.6D+01
   Bfn.  Coefficient  Atom+Function         Bfn.  Coefficient  Atom+Function  
  ----- ------------  ---------------      ----- ------------  ---------------
    97      2.673904  6 Li pz               126     -2.673903  7 Li pz         
   101     -2.549638  6 Li pz               130      2.549621  7 Li pz         
     7      2.535628  1 Li px               124     -2.535558  7 Li px         
    11     -2.417397  1 Li px               128      2.418772  7 Li px         
   105      2.109164  6 Li pz               134     -2.109127  7 Li pz         
 
 Vector   53  Occ=0.000000D+00  E= 2.005860D-01
              MO Center=  4.2D-02, -6.1D-02, -2.1D-01, r^2= 1.6D+01
   Bfn.  Coefficient  Atom+Function         Bfn.  Coefficient  Atom+Function  
  ----- ------------  ---------------      ----- ------------  ---------------
     9      2.920397  1 Li pz                68     -2.920357  5 Li pz         
    13     -2.784702  1 Li pz                72      2.785622  5 Li pz         
    17      2.302592  1 Li pz                76     -2.300925  5 Li pz         
     8     -2.083476  1 Li py                96      2.083439  6 Li py         
    12      1.986459  1 Li py               100     -1.987303  6 Li py         
 
 Vector   54  Occ=0.000000D+00  E= 2.173996D-01
              MO Center= -1.0D-01, -1.2D-01, -1.5D-01, r^2= 1.4D+01
   Bfn.  Coefficient  Atom+Function         Bfn.  Coefficient  Atom+Function  
  ----- ------------  ---------------      ----- ------------  ---------------
    14     19.161245  1 Li s                 10    -12.088159  1 Li s          
    73     -9.059944  5 Li s                102     -5.936382  6 Li s          
    69      5.715625  5 Li s                131     -4.164919  7 Li s          
    98      3.745317  6 Li s                150     -3.345600  8 H  s          
   149      3.311759  8 H  s                127      2.627574  7 Li s          
 
 Vector   55  Occ=0.000000D+00  E= 2.174000D-01
              MO Center=  1.7D-01,  2.9D-02, -1.8D-02, r^2= 1.4D+01
   Bfn.  Coefficient  Atom+Function         Bfn.  Coefficient  Atom+Function  
  ----- ------------  ---------------      ----- ------------  ---------------
    73     16.404475  5 Li s                102    -14.408586  6 Li s          
    69    -10.360963  5 Li s                 98      9.100431  6 Li s          
   131     -4.344038  7 Li s                 33     -2.866564  2 H  s          
    32      2.837228  2 H  s                127      2.743688  7 Li s          
    43      2.517695  3 H  s                 42     -2.492020  3 H  s          
 
 Vector   56  Occ=0.000000D+00  E= 2.174002D-01
              MO Center= -7.1D-02,  8.7D-02,  1.7D-01, r^2= 1.4D+01
   Bfn.  Coefficient  Atom+Function         Bfn.  Coefficient  Atom+Function  
  ----- ------------  ---------------      ----- ------------  ---------------
   131     18.421695  7 Li s                127    -11.642546  7 Li s          
   102    -11.529067  6 Li s                 98      7.286260  6 Li s          
    73     -4.973437  5 Li s                 53     -3.220410  4 H  s          
    52      3.187320  4 H  s                 69      3.143114  5 Li s          
   130      2.545218  7 Li pz               129      2.429455  7 Li py         
 
 Vector   57  Occ=0.000000D+00  E= 2.236410D-01
              MO Center= -3.8D-02, -4.3D-02, -5.7D-02, r^2= 1.8D+01
   Bfn.  Coefficient  Atom+Function         Bfn.  Coefficient  Atom+Function  
  ----- ------------  ---------------      ----- ------------  ---------------
    14     47.751581  1 Li s                 73    -22.870900  5 Li s          
   102    -14.649602  6 Li s                 10     11.817656  1 Li s          
     6    -10.512713  1 Li s                131    -10.231126  7 Li s          
    69     -5.660132  5 Li s                  7     -5.331825  1 Li px         
     8     -5.084456  1 Li py                65      5.035072  5 Li s          
 
 Vector   58  Occ=0.000000D+00  E= 2.236479D-01
              MO Center=  6.4D-02,  1.0D-02, -6.5D-03, r^2= 1.8D+01
   Bfn.  Coefficient  Atom+Function         Bfn.  Coefficient  Atom+Function  
  ----- ------------  ---------------      ----- ------------  ---------------
    73     40.829612  5 Li s                102    -36.065140  6 Li s          
   131    -10.916833  7 Li s                 69     10.096067  5 Li s          
    65     -8.984718  5 Li s                 98     -8.917948  6 Li s          
    94      7.936210  6 Li s                 14      6.152340  1 Li s          
    68     -5.390744  5 Li pz                97     -5.068415  6 Li pz         
 
 Vector   59  Occ=0.000000D+00  E= 2.236518D-01
              MO Center= -2.6D-02,  3.2D-02,  6.3D-02, r^2= 1.8D+01
   Bfn.  Coefficient  Atom+Function         Bfn.  Coefficient  Atom+Function  
  ----- ------------  ---------------      ----- ------------  ---------------
   131     46.049093  7 Li s                102    -28.783043  6 Li s          
    73    -12.374910  5 Li s                127     11.381318  7 Li s          
   123    -10.130585  7 Li s                 98     -7.113942  6 Li s          
    94      6.332066  6 Li s                124     -5.416557  7 Li px         
   125      4.997842  7 Li py                14     -4.891116  1 Li s          
 
 Vector   60  Occ=0.000000D+00  E= 2.846700D-01
              MO Center= -6.5D-06, -1.6D-05, -2.4D-05, r^2= 1.0D+01
   Bfn.  Coefficient  Atom+Function         Bfn.  Coefficient  Atom+Function  
  ----- ------------  ---------------      ----- ------------  ---------------
    33      9.082643  2 H  s                 43      9.082652  3 H  s          
    53      9.082664  4 H  s                150      9.082613  8 H  s          
    10     -6.359019  1 Li s                 69     -6.358966  5 Li s          
    98     -6.358941  6 Li s                127     -6.358909  7 Li s          
    32     -1.416874  2 H  s                 42     -1.416972  3 H  s          
 
 Vector   61  Occ=0.000000D+00  E= 3.329535D-01
              MO Center=  2.5D-06,  6.7D-06,  1.0D-05, r^2= 1.1D+01
   Bfn.  Coefficient  Atom+Function         Bfn.  Coefficient  Atom+Function  
  ----- ------------  ---------------      ----- ------------  ---------------
    33      3.713069  2 H  s                 43      3.713097  3 H  s          
    53      3.713130  4 H  s                150      3.712990  8 H  s          
    32     -3.156686  2 H  s                 42     -3.156640  3 H  s          
    52     -3.156584  4 H  s                149     -3.156814  8 H  s          
    10     -2.432784  1 Li s                 69     -2.433166  5 Li s          
 
 Vector   62  Occ=0.000000D+00  E= 3.491235D-01
              MO Center=  2.5D-06,  4.3D-06,  3.2D-06, r^2= 1.0D+01
   Bfn.  Coefficient  Atom+Function         Bfn.  Coefficient  Atom+Function  
  ----- ------------  ---------------      ----- ------------  ---------------
    28     -0.815245  1 Li dyz               87      0.815265  5 Li dyz        
   116      0.815257  6 Li dyz              145     -0.815270  7 Li dyz        
    26      0.767721  1 Li dxz               85     -0.767744  5 Li dxz        
   114      0.767761  6 Li dxz              143     -0.767754  7 Li dxz        
     7     -0.546210  1 Li px                66      0.546186  5 Li px         
 
 Vector   63  Occ=0.000000D+00  E= 3.491235D-01
              MO Center=  5.4D-07,  3.0D-06,  7.2D-06, r^2= 1.0D+01
   Bfn.  Coefficient  Atom+Function         Bfn.  Coefficient  Atom+Function  
  ----- ------------  ---------------      ----- ------------  ---------------
    25      0.913934  1 Li dxy               84      0.913948  5 Li dxy        
   113     -0.913946  6 Li dxy              142     -0.913965  7 Li dxy        
     9      0.612333  1 Li pz                68      0.612312  5 Li pz         
    97     -0.612256  6 Li pz               126     -0.612265  7 Li pz         
    26     -0.498107  1 Li dxz               85      0.498120  5 Li dxz        
 
 Vector   64  Occ=0.000000D+00  E= 3.607468D-01
              MO Center= -2.9D-01, -3.3D-01, -4.5D-01, r^2= 1.5D+01
   Bfn.  Coefficient  Atom+Function         Bfn.  Coefficient  Atom+Function  
  ----- ------------  ---------------      ----- ------------  ---------------
    14     48.735221  1 Li s                 73    -23.507714  5 Li s          
   102    -14.861309  6 Li s                  6    -14.497504  1 Li s          
   131    -10.366172  7 Li s                 65      6.992800  5 Li s          
     7     -6.843042  1 Li px                 8     -6.730607  1 Li py         
     9     -6.514005  1 Li pz                15      4.571078  1 Li px         
 
 Vector   65  Occ=0.000000D+00  E= 3.607544D-01
              MO Center=  5.0D-01,  7.9D-02, -5.0D-02, r^2= 1.5D+01
   Bfn.  Coefficient  Atom+Function         Bfn.  Coefficient  Atom+Function  
  ----- ------------  ---------------      ----- ------------  ---------------
    73     41.624188  5 Li s                102    -36.849593  6 Li s          
    65    -12.378553  5 Li s                131    -11.227205  7 Li s          
    94     10.958519  6 Li s                 14      6.452621  1 Li s          
    68     -6.227394  5 Li pz                67      5.783355  5 Li py         
    97     -5.650652  6 Li pz                96      5.207951  6 Li py         
 
 Vector   66  Occ=0.000000D+00  E= 3.607589D-01
              MO Center= -2.1D-01,  2.5D-01,  5.0D-01, r^2= 1.5D+01
   Bfn.  Coefficient  Atom+Function         Bfn.  Coefficient  Atom+Function  
  ----- ------------  ---------------      ----- ------------  ---------------
   131     47.019735  7 Li s                102    -29.411527  6 Li s          
   123    -13.980676  7 Li s                 73    -12.575059  5 Li s          
    94      8.744993  6 Li s                124     -6.724475  7 Li px         
   125      6.534880  7 Li py               126      6.112523  7 Li pz         
    14     -5.033162  1 Li s                 95     -4.600159  6 Li px         
 
 Vector   67  Occ=0.000000D+00  E= 3.772129D-01
              MO Center=  4.2D-01,  5.2D-01,  4.3D-01, r^2= 9.3D+00
   Bfn.  Coefficient  Atom+Function         Bfn.  Coefficient  Atom+Function  
  ----- ------------  ---------------      ----- ------------  ---------------
    85      1.043840  5 Li dxz              143     -1.043814  7 Li dxz        
   113     -0.955231  6 Li dxy              142      0.955218  7 Li dxy        
    87     -0.944267  5 Li dyz              116      0.944259  6 Li dyz        
    86     -0.715026  5 Li dyy              144      0.715046  7 Li dyy        
   117      0.654333  6 Li dzz              146     -0.654342  7 Li dzz        
 
 Vector   68  Occ=0.000000D+00  E= 3.772130D-01
              MO Center= -5.2D-01, -4.3D-01,  2.6D-01, r^2= 9.4D+00
   Bfn.  Coefficient  Atom+Function         Bfn.  Coefficient  Atom+Function  
  ----- ------------  ---------------      ----- ------------  ---------------
    28     -1.076858  1 Li dyz              145      1.076796  7 Li dyz        
    26      1.007743  1 Li dxz              114     -1.007714  6 Li dxz        
    24     -0.737620  1 Li dxx              113     -0.736143  6 Li dxy        
   141      0.737670  7 Li dxx              142      0.736137  7 Li dxy        
    27      0.690298  1 Li dyy              115     -0.690324  6 Li dyy        
 
 Vector   69  Occ=0.000000D+00  E= 3.772130D-01
              MO Center=  9.7D-02, -9.1D-02, -6.9D-01, r^2= 9.4D+00
   Bfn.  Coefficient  Atom+Function         Bfn.  Coefficient  Atom+Function  
  ----- ------------  ---------------      ----- ------------  ---------------
    25      1.200485  1 Li dxy               84     -1.200442  5 Li dxy        
    29      0.822325  1 Li dzz               88     -0.822359  5 Li dzz        
    87     -0.700293  5 Li dyz              116      0.700254  6 Li dyz        
     9     -0.678533  1 Li pz                68      0.678410  5 Li pz         
    26     -0.663462  1 Li dxz              114      0.663426  6 Li dxz        
 
 Vector   70  Occ=0.000000D+00  E= 4.275772D-01
              MO Center=  1.6D-01,  1.9D-01,  2.3D-01, r^2= 1.4D+01
   Bfn.  Coefficient  Atom+Function         Bfn.  Coefficient  Atom+Function  
  ----- ------------  ---------------      ----- ------------  ---------------
    97     -5.396781  6 Li pz               126      5.408114  7 Li pz         
    67      4.966368  5 Li py               125     -4.990971  7 Li py         
    66     -4.453028  5 Li px                95      4.467206  6 Li px         
   113      2.772323  6 Li dxy              142     -2.764690  7 Li dxy        
    85     -2.540944  5 Li dxz              143      2.524357  7 Li dxz        
 
 Vector   71  Occ=0.000000D+00  E= 4.275775D-01
              MO Center= -3.0D-01, -1.4D-02,  2.9D-03, r^2= 1.4D+01
   Bfn.  Coefficient  Atom+Function         Bfn.  Coefficient  Atom+Function  
  ----- ------------  ---------------      ----- ------------  ---------------
   124     -6.127967  7 Li px                 7      6.072969  1 Li px         
     8     -3.498596  1 Li py                96      3.504757  6 Li py         
    67      3.299409  5 Li py               125     -3.293120  7 Li py         
    28     -3.115876  1 Li dyz              145      3.078742  7 Li dyz        
    11     -2.764458  1 Li px                97      2.751063  6 Li pz         
 
 Vector   72  Occ=0.000000D+00  E= 4.275777D-01
              MO Center=  1.4D-01, -1.9D-01, -2.5D-01, r^2= 1.4D+01
   Bfn.  Coefficient  Atom+Function         Bfn.  Coefficient  Atom+Function  
  ----- ------------  ---------------      ----- ------------  ---------------
    68     -5.562884  5 Li pz                 9      5.531496  1 Li pz         
    96      4.980721  6 Li py                 8     -4.948178  1 Li py         
    66     -4.136737  5 Li px                95      4.151684  6 Li px         
    25     -2.811037  1 Li dxy               84      2.789844  5 Li dxy        
    26      2.529800  1 Li dxz               13     -2.497009  1 Li pz         
 
 Vector   73  Occ=0.000000D+00  E= 4.283828D-01
              MO Center= -1.7D-01,  1.8D-01,  3.3D-01, r^2= 1.1D+01
   Bfn.  Coefficient  Atom+Function         Bfn.  Coefficient  Atom+Function  
  ----- ------------  ---------------      ----- ------------  ---------------
   127     12.758099  7 Li s                 98     -7.396456  6 Li s          
   123      6.354290  7 Li s                 53     -4.431486  4 H  s          
    94     -3.683760  6 Li s                125     -3.679930  7 Li py         
   124      3.620181  7 Li px               126     -3.576767  7 Li pz         
    52      2.809812  4 H  s                 69     -2.773341  5 Li s          
 
 Vector   74  Occ=0.000000D+00  E= 4.283830D-01
              MO Center=  3.3D-01,  3.4D-02, -1.5D-02, r^2= 1.1D+01
   Bfn.  Coefficient  Atom+Function         Bfn.  Coefficient  Atom+Function  
  ----- ------------  ---------------      ----- ------------  ---------------
    69     10.772685  5 Li s                 98    -10.064479  6 Li s          
    65      5.365546  5 Li s                 94     -5.012981  6 Li s          
    33     -3.742003  2 H  s                 43      3.495862  3 H  s          
    68      3.189305  5 Li pz                67     -3.118816  5 Li py         
    97      3.086390  6 Li pz               127     -3.023316  7 Li s          
 
 Vector   75  Occ=0.000000D+00  E= 4.283834D-01
              MO Center= -1.6D-01, -2.0D-01, -3.0D-01, r^2= 1.1D+01
   Bfn.  Coefficient  Atom+Function         Bfn.  Coefficient  Atom+Function  
  ----- ------------  ---------------      ----- ------------  ---------------
    10     12.720427  1 Li s                 69     -7.080311  5 Li s          
     6      6.336332  1 Li s                150     -4.418629  8 H  s          
    98     -4.229051  6 Li s                  7      3.748032  1 Li px         
     8      3.608920  1 Li py                65     -3.526992  5 Li s          
     9      3.488222  1 Li pz               149      2.797764  8 H  s          
 
 Vector   76  Occ=0.000000D+00  E= 4.400443D-01
              MO Center= -7.8D-06, -6.2D-06, -8.4D-06, r^2= 9.0D+00
   Bfn.  Coefficient  Atom+Function         Bfn.  Coefficient  Atom+Function  
  ----- ------------  ---------------      ----- ------------  ---------------
    29     -0.972352  1 Li dzz               88     -0.972459  5 Li dzz        
   117     -0.972406  6 Li dzz              146     -0.972418  7 Li dzz        
    27      0.953747  1 Li dyy               86      0.953799  5 Li dyy        
   115      0.953874  6 Li dyy              144      0.953832  7 Li dyy        
     9     -0.400149  1 Li pz                68     -0.400957  5 Li pz         
 
 Vector   77  Occ=0.000000D+00  E= 4.400443D-01
              MO Center= -2.4D-07, -1.5D-05, -2.4D-05, r^2= 9.0D+00
   Bfn.  Coefficient  Atom+Function         Bfn.  Coefficient  Atom+Function  
  ----- ------------  ---------------      ----- ------------  ---------------
    24      1.111973  1 Li dxx               83      1.112078  5 Li dxx        
   112      1.112134  6 Li dxx              141      1.112233  7 Li dxx        
    27     -0.572076  1 Li dyy               86     -0.572075  5 Li dyy        
   115     -0.572235  6 Li dyy              144     -0.572242  7 Li dyy        
    29     -0.539891  1 Li dzz               88     -0.539998  5 Li dzz        
 
 Vector   78  Occ=0.000000D+00  E= 4.638989D-01
              MO Center=  2.5D-01, -3.0D-01, -6.0D-01, r^2= 1.1D+01
   Bfn.  Coefficient  Atom+Function         Bfn.  Coefficient  Atom+Function  
  ----- ------------  ---------------      ----- ------------  ---------------
   131     21.461925  7 Li s                102    -13.584650  6 Li s          
    52     10.130450  4 H  s                 42     -6.412296  3 H  s          
    73     -5.768861  5 Li s                127      4.104159  7 Li s          
     7     -2.947020  1 Li px                32     -2.723056  2 H  s          
    67      2.682883  5 Li py                98     -2.597991  6 Li s          
 
 Vector   79  Occ=0.000000D+00  E= 4.638992D-01
              MO Center= -6.1D-01, -1.1D-01,  7.4D-02, r^2= 1.1D+01
   Bfn.  Coefficient  Atom+Function         Bfn.  Coefficient  Atom+Function  
  ----- ------------  ---------------      ----- ------------  ---------------
    73     19.293170  5 Li s                102    -16.675556  6 Li s          
    32      9.107476  2 H  s                 42     -7.871856  3 H  s          
   131     -5.123028  7 Li s                 69      3.691702  5 Li s          
    98     -3.190827  6 Li s                  9     -2.967210  1 Li pz         
   126     -2.778669  7 Li pz                14      2.505411  1 Li s          
 
 Vector   80  Occ=0.000000D+00  E= 4.638997D-01
              MO Center=  3.7D-01,  4.2D-01,  5.3D-01, r^2= 1.1D+01
   Bfn.  Coefficient  Atom+Function         Bfn.  Coefficient  Atom+Function  
  ----- ------------  ---------------      ----- ------------  ---------------
    14     22.390240  1 Li s                149     10.570963  8 H  s          
    73    -10.324570  5 Li s                102     -7.036287  6 Li s          
   131     -5.029392  7 Li s                 32     -4.874577  2 H  s          
    10      4.289040  1 Li s                 42     -3.321853  3 H  s          
   124     -2.870979  7 Li px                96     -2.725798  6 Li py         
 
 Vector   81  Occ=0.000000D+00  E= 5.316367D-01
              MO Center=  3.1D-06,  8.9D-06,  1.4D-05, r^2= 1.1D+01
   Bfn.  Coefficient  Atom+Function         Bfn.  Coefficient  Atom+Function  
  ----- ------------  ---------------      ----- ------------  ---------------
     6      3.311699  1 Li s                 65      3.311761  5 Li s          
    94      3.311786  6 Li s                123      3.311816  7 Li s          
    33      1.641869  2 H  s                 43      1.641874  3 H  s          
    53      1.641880  4 H  s                150      1.641858  8 H  s          
    24     -1.454865  1 Li dxx               27     -1.454869  1 Li dyy        
 

 center of mass
 --------------
 x =   0.00000001 y =   0.00000001 z =   0.00000001

 moments of inertia (a.u.)
 ------------------
         177.156912183117           0.000005814131           0.000003581878
           0.000005814131         177.156910468633           0.000001253392
           0.000003581878           0.000001253392         177.156909761350
 
     Multipole analysis of the density
     ---------------------------------
 
     L   x y z        total         alpha         beta         nuclear
     -   - - -        -----         -----         ----         -------
     0   0 0 0     -0.000000     -8.000000     -8.000000     16.000000
 
     1   1 0 0     -0.000000     -0.000000     -0.000000     -0.000000
     1   0 1 0     -0.000001     -0.000001     -0.000001     -0.000000
     1   0 0 1     -0.000001     -0.000001     -0.000001      0.000000
 
     2   2 0 0    -16.715643    -30.911640    -30.911640     45.107637
     2   1 1 0      0.000007      0.000005      0.000005     -0.000002
     2   1 0 1      0.000005      0.000003      0.000003     -0.000001
     2   0 2 0    -16.715643    -30.911640    -30.911640     45.107638
     2   0 1 1      0.000002      0.000001      0.000001     -0.000000
     2   0 0 2    -16.715643    -30.911641    -30.911641     45.107639
 
 
 
                            NWChem DFT Gradient Module
                            --------------------------
 
 

  charge          =   0.00
  wavefunction    = closed shell



                         DFT ENERGY GRADIENTS

    atom               coordinates                        gradient
                 x          y          z           x          y          z
   1 li     -1.643140  -1.643141  -1.643141    0.017771   0.017771   0.017771
   2 h      -1.782464  -1.782464   1.782463    0.012778   0.012778  -0.012778
   3 h      -1.782464   1.782463  -1.782464    0.012778  -0.012778   0.012778
   4 h       1.782463  -1.782464  -1.782464   -0.012778   0.012778   0.012778
   5 li      1.643141   1.643141  -1.643141   -0.017771  -0.017771   0.017771
   6 li      1.643141  -1.643141   1.643141   -0.017771   0.017771  -0.017771
   7 li     -1.643141   1.643141   1.643141    0.017771  -0.017771  -0.017771
   8 h       1.782463   1.782463   1.782463   -0.012778  -0.012778  -0.012778
 
                 ----------------------------------------
                 |  Time  |  1-e(secs)   |  2-e(secs)   |
                 ----------------------------------------
                 |  CPU   |       0.01   |       6.90   |
                 ----------------------------------------
                 |  WALL  |       0.01   |       6.90   |
                 ----------------------------------------

@ Step       Energy      Delta E   Gmax     Grms     Xrms     Xmax   Walltime
@ ---- ---------------- -------- -------- -------- -------- -------- --------
@    0     -29.77756288  0.0D+00  0.01777  0.01548  0.00000  0.00000     43.4
                                                                    

 
                                 NWChem DFT Module
                                 -----------------
 
 


 Summary of "ao basis" -> "ao basis" (cartesian)
 ------------------------------------------------------------------------------
       Tag                 Description            Shells   Functions and Types
 ---------------- ------------------------------  ------  ---------------------
 li                     6-311++G(2d,2p)             11       29   5s4p2d
 h                      6-311++G(2d,2p)              6       10   4s2p


  Caching 1-el integrals 
 
            General Information
            -------------------
          SCF calculation type: DFT
          Wavefunction type:  closed shell.
          No. of atoms     :     8
          No. of electrons :    16
           Alpha electrons :     8
            Beta electrons :     8
          Charge           :     0
          Spin multiplicity:     1
          Use of symmetry is: off; symmetry adaption is: off
          Maximum number of iterations: ***
          This is a Direct SCF calculation.
          AO basis - number of functions:   156
                     number of shells:    68
          Convergence on energy requested: 1.00D-06
          Convergence on density requested: 1.00D-05
          Convergence on gradient requested: 5.00D-04
 
              XC Information
              --------------
                           M06 Exchange Functional  1.000          
 
             Grid Information
             ----------------
          Grid used for XC integration:  medium    
          Radial quadrature: Mura-Knowles        
          Angular quadrature: Lebedev. 
          Tag              B.-S. Rad. Rad. Pts. Rad. Cut. Ang. Pts.
          ---              ---------- --------- --------- ---------
          li                  1.45       49          22.0       434
          h                   0.35       45          17.0       434
          Grid pruning is: on 
          Number of quadrature shells:   376
          Spatial weights used:  Erf1
 
          Convergence Information
          -----------------------
          Convergence aids based upon iterative change in 
          total energy or number of iterations. 
          Levelshifting, if invoked, occurs when the 
          HOMO/LUMO gap drops below (HL_TOL): 1.00D-02
          DIIS, if invoked, will attempt to extrapolate 
          using up to (NFOCK): 10 stored Fock matrices.

                    Damping( 0%)  Levelshifting(0.5)       DIIS
                  --------------- ------------------- ---------------
          dE  on:    start            ASAP                start   
          dE off:    2 iters        *** iters           *** iters 

 
      Screening Tolerance Information
      -------------------------------
          Density screening/tol_rho: 1.00D-10
          AO Gaussian exp screening on grid/accAOfunc:  14
          CD Gaussian exp screening on grid/accCDfunc:  20
          XC Gaussian exp screening on grid/accXCfunc:  20
          Schwarz screening/accCoul: 1.00D-08


 Loading old vectors from job with title :



   Time after variat. SCF:     42.4
   Time prior to 1st pass:     42.4

 Grid_pts file          = /home/d3y133/nwchem-dev/nwchem-trunk-nonwad/QA/scratchdir/metagga_dat.gridpts.0
 Record size in doubles =  12289        No. of grid_pts per rec  =   3070
 Max. records in memory =     16        Max. recs in file   = 253312716

 Grid integrated density:      16.000130075761
 Requested integration accuracy:   0.10E-05

           Memory utilization after 1st SCF pass: 
[...]


              11           12           13           14           15           16           17           18           19           20
   ----- ----- ----- ----- -----
   11    1.24438D+01
   12    1.82500D+00  1.24469D+01
   13    2.83505D-01 -8.97060D-02  2.23078D+00
   14   -1.82627D+00  1.69134D-01  4.67203D-01  2.23133D+00
   15   -2.84525D-01 -1.41032D+00 -4.65519D-01 -4.65885D-01  2.23372D+00
   16   -8.99118D-02  2.83344D-01  2.20860D-01 -5.97022D-02  6.07704D-02  2.23105D+00
   17   -1.41002D+00 -2.84695D-01  6.08421D-02 -2.95978D-01  6.30682D-01 -4.65608D-01  2.23386D+00
   18    1.68227D-01 -1.82834D+00 -6.03508D-02  6.32174D-01 -2.95675D-01  4.66252D-01 -4.65560D-01  2.23141D+00
   19   -2.30083D-01 -2.30222D-01 -2.95933D-01  6.09460D-02  6.30700D-01 -2.95859D-01  6.30683D-01  6.09169D-02  2.23398D+00
   20   -2.57756D-01  2.30133D-01 -5.97836D-02  2.21145D-01  6.05610D-02  6.32473D-01 -2.95883D-01 -5.96832D-02 -4.65413D-01  2.23156D+00
   21    2.31509D-01 -2.57204D-01  6.32071D-01 -5.99280D-02 -2.95837D-01 -6.06055D-02  6.11226D-02  2.20323D-01 -4.65230D-01  4.66170D-01
   22    7.53044D-01  7.51019D-01 -1.41527D+00  8.50573D-02  1.66960D-01 -1.41413D+00  1.65739D-01  8.58315D-02 -1.83621D+00 -2.89829D-01
   23   -8.98549D-01 -2.35091D+00  8.38680D-02 -1.41581D+00  1.67912D-01 -2.90245D-01 -1.83737D+00 -2.90510D-01  1.67503D-01 -1.41539D+00
   24   -2.35241D+00 -9.01546D-01 -2.90383D-01 -2.89703D-01 -1.83653D+00  8.61787D-02  1.65939D-01 -1.41422D+00  1.66949D-01  8.57323D-02


              21           22           23           24
   ----- ----- ----- ----- -----
   21    2.23160D+00
   22   -2.90148D-01  1.24787D+01
   23    8.43716D-02  1.83405D+00  1.24861D+01
   24   -1.41501D+00  1.83336D+00  1.83393D+00  1.24826D+01

 center of mass
 --------------
 x =   0.00000018 y =  -0.00000010 z =   0.00000013

 moments of inertia (a.u.)
 ------------------
         257.127743954436           0.000011909205          -0.000022618203
           0.000011909205         257.127764710606          -0.000007030942
          -0.000022618203          -0.000007030942         257.127763248236

 Rotational Constants
 --------------------
 A=   0.234126 cm-1  (  0.336847 K)
 B=   0.234126 cm-1  (  0.336847 K)
 C=   0.234126 cm-1  (  0.336847 K)


 Temperature                      =   298.15K
 frequency scaling parameter      =   1.0000

 Zero-Point correction to Energy  =   12.289 kcal/mol  (  0.019584 au)
 Thermal correction to Energy     =   17.170 kcal/mol  (  0.027363 au)
 Thermal correction to Enthalpy   =   17.763 kcal/mol  (  0.028306 au)

 Total Entropy                    =   76.660 cal/mol-K
   - Translational                =   36.314 cal/mol-K (mol. weight =  32.0953)
   - Rotational                   =   24.334 cal/mol-K (symmetry #  =        1)
   - Vibrational                  =   16.012 cal/mol-K

 Cv (constant volume heat capacity) =   29.246 cal/mol-K
   - Translational                  =    2.979 cal/mol-K
   - Rotational                     =    2.979 cal/mol-K
   - Vibrational                    =   23.287 cal/mol-K



          -------------------------------------------------
          NORMAL MODE EIGENVECTORS IN CARTESIAN COORDINATES
          -------------------------------------------------
             (Projected Frequencies expressed in cm-1)

                    1           2           3           4           5           6
 
 P.Frequency       -0.00       -0.00        0.00        0.00        0.00        0.00
 
           1    -0.05910    -0.04076    -0.04968     0.06817     0.22132    -0.01324
           2     0.13222    -0.09657    -0.00665    -0.17607    -0.00170    -0.05976
           3     0.05599     0.21386    -0.07186     0.03559    -0.04497    -0.06405
           4     0.08393    -0.00784    -0.17012     0.16356     0.07405     0.01454
           5    -0.01303     0.07005    -0.12217    -0.21848    -0.02697    -0.00532
           6     0.05587     0.22432    -0.08422     0.03837    -0.05401    -0.05974
           7     0.02661     0.01757     0.02642    -0.12358     0.20138     0.10465
           8     0.14498    -0.10198     0.00326    -0.18418    -0.00191    -0.05601
           9     0.21388     0.05229     0.04121     0.07267    -0.02895    -0.11043
          10    -0.07174    -0.04581    -0.04723     0.07350     0.23056    -0.02130
          11     0.04663    -0.16536    -0.07038     0.01290     0.02728    -0.18196
          12    -0.09980     0.18634     0.03867    -0.05169     0.10250    -0.09558
          13     0.02947     0.01631     0.01663    -0.10928     0.19504     0.10017
          14     0.04366    -0.15364    -0.07296     0.00138     0.02458    -0.17317
          15     0.05810     0.02477     0.15174    -0.01461     0.11853    -0.14196
          16     0.08107    -0.00657    -0.16033     0.14926     0.08039     0.01902
          17    -0.09862     0.00126    -0.18591    -0.02951     0.00201    -0.12753
          18    -0.08418     0.17967     0.03879    -0.04550     0.09596    -0.09632
          19     0.16964     0.05050    -0.09402    -0.02819     0.05411     0.13243
          20    -0.01006     0.05833    -0.11959    -0.20696    -0.02427    -0.01412
          21     0.19826     0.05896     0.04108     0.06648    -0.02240    -0.10969
          22     0.18228     0.05555    -0.09647    -0.03352     0.04486     0.14049
          23    -0.11138     0.00667    -0.19582    -0.02140     0.00222    -0.13127
          24     0.05821     0.01431     0.16410    -0.01739     0.12757    -0.14626

                    7           8           9          10          11          12
 
 P.Frequency      233.70      233.75      284.25      284.28      284.36      355.46
 
           1    -0.08592     0.12804     0.11152    -0.05226    -0.14115    -0.10815
           2     0.15383     0.01023    -0.00418     0.08449    -0.16719    -0.10827
           3    -0.06809    -0.13844    -0.06615    -0.08503    -0.15325    -0.10821
           4    -0.00257     0.00434     0.03816     0.04134     0.01541    -0.03200
           5     0.00483     0.00060     0.04421     0.03454     0.01672    -0.03145
           6     0.00182     0.00381    -0.03855    -0.03715    -0.02417     0.03209
           7    -0.00325     0.00403     0.00349    -0.05338     0.02312    -0.03206
           8    -0.00417    -0.00017    -0.00711     0.04944    -0.03091     0.03183
           9    -0.00248    -0.00431     0.01268    -0.05221     0.02392    -0.03226
          10     0.00246    -0.00355     0.05224    -0.02046    -0.01802     0.03115
          11     0.00517     0.00002    -0.05541     0.01585     0.00991    -0.03288
          12    -0.00193    -0.00463    -0.05212     0.02516     0.00917    -0.03185
          13     0.08563    -0.12821    -0.06684    -0.17475     0.01163     0.10835
          14    -0.15376    -0.01047    -0.18313    -0.03730    -0.01444     0.10853
          15    -0.06795    -0.13815     0.07202     0.08923     0.14844    -0.10825
          16     0.08606    -0.12789     0.06129     0.17640    -0.01703     0.10828
          17     0.15356     0.01025     0.00588    -0.09226     0.16324    -0.10846
          18     0.06832     0.13830    -0.11711     0.14332    -0.02924     0.10826
          19    -0.08565     0.12792    -0.11794     0.05409     0.13540    -0.10844
          20    -0.15380    -0.01002     0.18465     0.03058     0.01067     0.10820
          21     0.06778     0.13842     0.12256    -0.13975     0.02450     0.10829
          22     0.00259    -0.00391    -0.01053     0.00833     0.05708     0.03266
          23    -0.00466    -0.00032    -0.00414     0.00102     0.05808     0.03248
          24     0.00218     0.00430    -0.00083     0.01014     0.05756     0.03137

                   13          14          15          16          17          18
 
 P.Frequency      372.82      373.63      373.72      605.66      605.72      618.94
 
           1    -0.00443    -0.07298    -0.00609    -0.00258    -0.00063     0.05512
           2     0.00621     0.04115    -0.06015     0.00061     0.00285    -0.04826
           3    -0.00204     0.03132     0.06599     0.00217    -0.00188    -0.00569
           4     0.39052    -0.00379    -0.24257     0.39108     0.12588    -0.21795
           5    -0.37832    -0.19448    -0.17407    -0.08111    -0.40639     0.13684
           6     0.01205    -0.19684    -0.41344     0.29792    -0.26353     0.04702
           7    -0.39092     0.00295     0.24261     0.38937     0.13046    -0.39834
           8    -0.03925    -0.25880     0.37569     0.07999     0.39189     0.38152
           9     0.35082    -0.26377     0.13646    -0.30731     0.27464    -0.19040
          10     0.02717     0.45590     0.03750    -0.37950    -0.12669    -0.43268
          11     0.37872     0.19505     0.17351    -0.08609    -0.40362     0.39406
          12    -0.35084     0.26422    -0.13559    -0.31085     0.27240     0.24804
          13     0.06229    -0.00037    -0.03839     0.00119     0.00024     0.05276
          14    -0.06031    -0.03078    -0.02744     0.00012    -0.00101    -0.04988
          15     0.00190    -0.03157    -0.06626     0.00197    -0.00147    -0.00289
          16    -0.06211     0.00066     0.03864     0.00098     0.00077     0.03708
          17    -0.00648    -0.04147     0.05993     0.00063     0.00266    -0.02944
          18     0.05615    -0.04187     0.02165    -0.00045     0.00076    -0.02341
          19     0.00432     0.07286     0.00583    -0.00214    -0.00045     0.03516
          20     0.06051     0.03097     0.02781    -0.00039    -0.00074    -0.02749
          21    -0.05601     0.04201    -0.02158    -0.00079     0.00043     0.01478
          22    -0.02721    -0.45619    -0.03751    -0.38314    -0.12909    -0.20489
          23     0.03934     0.25905    -0.37620     0.08038     0.39203     0.16714
          24    -0.01197     0.19708     0.41397     0.30004    -0.26847     0.01519

                   19          20          21          22          23          24
 
 P.Frequency      619.25      620.04      656.13      656.45      656.61      765.73
 
           1    -0.02342     0.01959     0.02722    -0.01538     0.00737     0.01207
           2    -0.03387     0.02208     0.02651     0.01479     0.01084     0.01206
           3     0.06079     0.01542     0.02749     0.00275    -0.01663     0.01207
           4     0.32013    -0.25994    -0.13332     0.32874     0.33791    -0.28558
           5     0.35531    -0.26409    -0.11439    -0.40405     0.25371    -0.28444
           6    -0.47273    -0.03357    -0.48236    -0.00140    -0.09542     0.28746
           7    -0.07695    -0.23080    -0.11062    -0.02299    -0.47663    -0.28489
           8     0.27425    -0.08892    -0.48354     0.05630     0.04251     0.28663
           9    -0.36669    -0.21459    -0.11130    -0.46356     0.11474    -0.28441
          10     0.19117    -0.06490    -0.47951    -0.08926     0.02584     0.28755
          11     0.00185    -0.24710    -0.11500     0.12398    -0.45968    -0.28472
          12    -0.32311    -0.22691    -0.13444     0.41652     0.21603    -0.28550
          13    -0.00048     0.03367     0.01698    -0.01745     0.02092    -0.01227
          14    -0.01086     0.03619     0.01623     0.01318     0.02448    -0.01224
          15     0.04051     0.04764     0.00797     0.00386    -0.03105     0.01193
          16    -0.03522     0.03614     0.01758    -0.02687    -0.00092    -0.01221
          17    -0.01879     0.05185     0.00632     0.02561     0.01887     0.01193
          18     0.04849     0.03201     0.01786    -0.00850    -0.02527    -0.01225
          19    -0.01227     0.05034     0.00778    -0.02873     0.01261     0.01200
          20    -0.04176     0.03769     0.01615     0.02728     0.00531    -0.01223
          21     0.05231     0.03101     0.01721     0.01506    -0.02259    -0.01231
          22     0.06267    -0.41715     0.23920     0.39919    -0.16547     0.28571
          23     0.10150    -0.42895     0.25898    -0.33914    -0.25080     0.28586
          24    -0.24448    -0.40261     0.23708    -0.04326     0.42973     0.28640



 ----------------------------------------------------------------------------
 Normal Eigenvalue ||    Projected Derivative Dipole Moments (debye/angs)
  Mode   [cm**-1]  ||      [d/dqX]             [d/dqY]           [d/dqZ]
 ------ ---------- || ------------------ ------------------ -----------------
    1       -0.000 ||       0.018               0.005             0.018
    2       -0.000 ||       0.002              -0.015             0.039
    3        0.000 ||      -0.023              -0.031             0.013
    4        0.000 ||       0.006              -0.033             0.003
    5        0.000 ||       0.045               0.000             0.012
    6        0.000 ||      -0.019               0.030             0.033
    7      233.703 ||       0.003              -0.004             0.002
    8      233.751 ||      -0.003              -0.001             0.003
    9      284.253 ||      -0.473               0.127             0.448
   10      284.278 ||       0.137              -0.573             0.307
   11      284.363 ||      -0.443              -0.308            -0.380
   12      355.458 ||       0.001              -0.000             0.002
   13      372.822 ||       0.002              -0.002            -0.000
   14      373.633 ||       0.005              -0.003            -0.003
   15      373.719 ||      -0.000               0.004            -0.005
   16      605.660 ||      -0.056               0.021             0.063
   17      605.716 ||      -0.001               0.082            -0.046
   18      618.942 ||       3.973              -3.422            -0.380
   19      619.252 ||       1.573               2.320            -4.457
   20      620.038 ||      -3.079              -3.259            -2.779
   21      656.128 ||       1.157               1.085             1.178
   22      656.447 ||      -1.480               1.355             0.222
   23      656.613 ||       0.667               0.994            -1.595
   24      765.731 ||      -0.008              -0.009            -0.011
 ----------------------------------------------------------------------------



  
  
 ----------------------------------------------------------------------------
 Normal Eigenvalue ||           Projected Infra Red Intensities
  Mode   [cm**-1]  || [atomic units] [(debye/angs)**2] [(KM/mol)] [arbitrary]
 ------ ---------- || -------------- ----------------- ---------- -----------
    1       -0.000 ||    0.000030           0.001         0.029       0.002
    2       -0.000 ||    0.000075           0.002         0.073       0.004
    3        0.000 ||    0.000073           0.002         0.071       0.004
    4        0.000 ||    0.000050           0.001         0.049       0.003
    5        0.000 ||    0.000092           0.002         0.090       0.005
    6        0.000 ||    0.000104           0.002         0.102       0.006
    7      233.703 ||    0.000001           0.000         0.001       0.000
    8      233.751 ||    0.000001           0.000         0.001       0.000
    9      284.253 ||    0.019112           0.441        18.631       1.097
   10      284.278 ||    0.019125           0.441        18.644       1.097
   11      284.363 ||    0.018859           0.435        18.385       1.082
   12      355.458 ||    0.000000           0.000         0.000       0.000
   13      372.822 ||    0.000000           0.000         0.000       0.000
   14      373.633 ||    0.000002           0.000         0.002       0.000
   15      373.719 ||    0.000002           0.000         0.002       0.000
   16      605.660 ||    0.000327           0.008         0.319       0.019
   17      605.716 ||    0.000382           0.009         0.372       0.022
   18      618.942 ||    1.197964          27.638      1167.835      68.742
   19      619.252 ||    1.201883          27.728      1171.655      68.966
   20      620.038 ||    1.205969          27.823      1175.638      69.201
   21      656.128 ||    0.169253           3.905       164.996       9.712
   22      656.447 ||    0.176724           4.077       172.279      10.141
   23      656.613 ||    0.172453           3.979       168.116       9.896
   24      765.731 ||    0.000012           0.000         0.012       0.001
 ----------------------------------------------------------------------------



 vib:animation  F

 Task  times  cpu:      941.1s     wall:      945.0s
 
 
                                NWChem Input Module
                                -------------------
 
 
 Summary of allocated global arrays
-----------------------------------
  No active global arrays



                         GA Statistics for process    0
                         ------------------------------

       create   destroy   get      put      acc     scatter   gather  read&inc
calls: 6750     6750     2.14e+06 7.28e+04 7.32e+05    0        0     6.88e+04 
number of processes/call 1.08e+00 1.56e+00 1.01e+00 0.00e+00 0.00e+00
bytes total:             1.15e+10 3.92e+08 3.28e+09 0.00e+00 0.00e+00 5.50e+05
bytes remote:            7.74e+09 1.22e+08 2.20e+09 0.00e+00 0.00e+00 0.00e+00
Max memory consumed for GA by this process: 2387456 bytes
 
MA_summarize_allocated_blocks: starting scan ...
MA_summarize_allocated_blocks: scan completed: 0 heap blocks, 0 stack blocks
MA usage statistics:

	allocation statistics:
					      heap	     stack
					      ----	     -----
	current number of blocks	         0	         0
	maximum number of blocks	        24	        54
	current total bytes		         0	         0
	maximum total bytes		   1803768	  33547048
	maximum total K-bytes		      1804	     33548
	maximum total M-bytes		         2	        34
 
 
                                     CITATION
                                     --------
                Please cite the following reference when publishing
                           results obtained with NWChem:
 
                 M. Valiev, E.J. Bylaska, N. Govind, K. Kowalski,
              T.P. Straatsma, H.J.J. van Dam, D. Wang, J. Nieplocha,
                        E. Apra, T.L. Windus, W.A. de Jong
                 "NWChem: a comprehensive and scalable open-source
                  solution for large scale molecular simulations"
                      Comput. Phys. Commun. 181, 1477 (2010)
                           doi:10.1016/j.cpc.2010.04.018
 
                                      AUTHORS
                                      -------
          E. Apra, E. J. Bylaska, W. A. de Jong, N. Govind, K. Kowalski,
       T. P. Straatsma, M. Valiev, H. J. J. van Dam, D. Wang, T. L. Windus,
        J. Hammond, J. Autschbach, K. Bhaskaran-Nair, J. Brabec, K. Lopata,
        S. Krishnamoorthy, W. Ma, M. Klemm, O. Villa, Y. Chen, V. Anisimov,
    F. Aquino, S. Hirata, M. T. Hackler, T. Risthaus, M. Malagoli, A. Marenich,
   A. Otero-de-la-Roza, J. Mullin, P. Nichols, R. Peverati, J. Pittner, Y. Zhao,
         P.-D. Fan, A. Fonari, R. J. Harrison, M. Dupuis, D. Silverstein,
    D. M. A. Smith, J. Nieplocha, V. Tipparaju, M. Krishnan, B. E. Van Kuiken,
        A. Vazquez-Mayagoitia, L. Jensen, M. Swart, Q. Wu, T. Van Voorhis,
     A. A. Auer, M. Nooijen, L. D. Crosby, E. Brown, G. Cisneros, G. I. Fann,
   H. Fruchtl, J. Garza, K. Hirao, R. A. Kendall, J. A. Nichols, K. Tsemekhman,
    K. Wolinski, J. Anchell, D. E. Bernholdt, P. Borowski, T. Clark, D. Clerc,
   H. Dachsel, M. J. O. Deegan, K. Dyall, D. Elwood, E. Glendening, M. Gutowski,
   A. C. Hess, J. Jaffe, B. G. Johnson, J. Ju, R. Kobayashi, R. Kutteh, Z. Lin,
   R. Littlefield, X. Long, B. Meng, T. Nakajima, S. Niu, L. Pollack, M. Rosing,
   K. Glaesemann, G. Sandrone, M. Stave, H. Taylor, G. Thomas, J. H. van Lenthe,
                               A. T. Wong, Z. Zhang.

 Total times  cpu:     1405.3s     wall:     1412.3s
