 argument  1 = /data/edo/nwchem/nwchem_libstdcpp-error/QA/tests/dft_waterdimer_wb97d3/dft_waterdimer_wb97d3.nw
  NWChem w/ OpenMP: maximum threads =    1
 


============================== echo of input deck ==============================
echo
start w_dim_s22
#S22 geometry http://www.begdb.org/index.php?action=oneMolecule&state=show&id=82
#DOI:10.1021/ct300715s Supp. inform. Table S7
#627.5*(152.887640305943-76.439682992521-76.4399284507)=5.04

geometry dimer
 O   -1.551007  -0.114520   0.000000
 H   -1.934259   0.762503   0.000000
 H   -0.599677   0.040712   0.000000
 O    1.350625   0.111469   0.000000
 H    1.680398  -0.373741  -0.758561
 H    1.680398  -0.373741   0.758561
end
geometry w1@dimg_b
  O  -1.551007  -0.114520   0.000000
  H  -1.934259   0.762503   0.000000
  H  -0.599677   0.040712   0.000000
bqO   1.350625   0.111469   0.000000
bqH   1.680398  -0.373741  -0.758561
bqH   1.680398  -0.373741   0.758561
end
geometry w2@dimg_b
bqO  -1.551007  -0.114520   0.000000
bqH  -1.934259   0.762503   0.000000
bqH  -0.599677   0.040712   0.000000
  O   1.350625   0.111469   0.000000
  H   1.680398  -0.373741  -0.758561
  H   1.680398  -0.373741   0.758561
end

basis spherical
  * library   6-311++g(3df,3pd)
bqH library H 6-311++g(3df,3pd)
bqO library O 6-311++g(3df,3pd)
end

dft
 xc wb97x-d3
 noprint "final vectors analysis" multipole
end

set geometry dimer

dft;vectors input atomic;end

task dft

set geometry w1@dimg_b

dft;vectors input atomic;end

task dft

set geometry w2@dimg_b

dft;vectors input atomic;end

task dft
================================================================================


                                         
                                         
 
 
             Northwest Computational Chemistry Package (NWChem) 7.3.1
             --------------------------------------------------------
 
 
                    Environmental Molecular Sciences Laboratory
                       Pacific Northwest National Laboratory
                                Richland, WA 99352
 
                              Copyright (c) 1994-2025
                       Pacific Northwest National Laboratory
                            Battelle Memorial Institute
 
             NWChem is an open-source computational chemistry package
                        distributed under the terms of the
                      Educational Community License (ECL) 2.0
             A copy of the license is included with this distribution
                              in the LICENSE.TXT file
 
                                  ACKNOWLEDGMENT
                                  --------------

            This software and its documentation were developed at the
            EMSL at Pacific Northwest National Laboratory, a multiprogram
            national laboratory, operated for the U.S. Department of Energy
            by Battelle under Contract Number DE-AC05-76RL01830. Support
            for this work was provided by the Department of Energy Office
            of Biological and Environmental Research, Office of Basic
            Energy Sciences, and the Office of Advanced Scientific Computing.


           Job information
           ---------------

    hostname        = mica
    program         = /data/edo/nwchem/nwchem_libstdcpp-error/bin/LINUX64/nwchem
    date            = Tue Jan 27 00:47:49 2026

    compiled        = Mon_Jan_26_20:52:02_2026
    source          = /data/edo/nwchem/nwchem_libstdcpp-error
    nwchem branch   = 7.3.1
    nwchem revision = v7.2.0-beta1-1748-g62ee6c31a1
    ga revision     = 5.9.2
    use scalapack   = T
    input           = /data/edo/nwchem/nwchem_libstdcpp-error/QA/tests/dft_waterdimer_wb97d3/dft_waterdimer_wb97d3.nw
    prefix          = w_dim_s22.
    data base       = ./w_dim_s22.db
    status          = startup
    nproc           =        4
    time left       =     -1s



           Memory information
           ------------------

    heap     =     26214400 doubles =      200.0 Mbytes
    stack    =     26214397 doubles =      200.0 Mbytes
    global   =     52428800 doubles =      400.0 Mbytes (distinct from heap & stack)
    total    =    104857597 doubles =      800.0 Mbytes
    verify   = yes
    hardfail = no 


           Directory information
           ---------------------
 
  0 permanent = .
  0 scratch   = .
 
 
 
 
                                NWChem Input Module
                                -------------------
 
 

 Scaling coordinates for geometry "dimer" by  1.889725989
 (inverse scale =  0.529177249)

 CS  symmetry detected

          ------
          auto-z
          ------
  autoz: The atoms group into disjoint clusters
 cluster   1:    1    2    3 
 cluster   2:    4    5    6 
 Connecting clusters   1   2 via atoms    3    4 r = 1.95
  autoz: regenerating connections with new bonds
  no constraints, skipping   0.000000000000000E+000
  no constraints, skipping   0.000000000000000E+000
 
 
                              Geometry "dimer" -> ""
                              ----------------------
 
 Output coordinates in angstroms (scale by  1.889725989 to convert to a.u.)
 
  No.       Tag          Charge          X              Y              Z
 ---- ---------------- ---------- -------------- -------------- --------------
    1 O                    8.0000    -0.06693304     1.51516876     0.00000000
    2 H                    1.0000     0.82206959     1.86974704     0.00000000
    3 H                    1.0000     0.05733313     0.55930074     0.00000000
    4 O                    8.0000     0.06473816    -1.39227032     0.00000000
    5 H                    1.0000    -0.43092185    -1.70611763    -0.75856100
    6 H                    1.0000    -0.43092185    -1.70611763     0.75856100
 
      Atomic Mass 
      ----------- 
 
      O                 15.994910
      H                  1.007825
 

 Effective nuclear repulsion energy (a.u.)      36.6628506524

            Nuclear Dipole moment (a.u.) 
            ----------------------------
        X                 Y               Z
 ---------------- ---------------- ----------------
    -0.0000000000    -0.0000000000     0.0000000000
 
      Symmetry information
      --------------------
 
 Group name             Cs        
 Group number              2
 Group order               2
 No. of unique centers     5
 
      Symmetry unique atoms
 
     1    2    3    4    5
 


                                Z-matrix (autoz)
                                -------- 

 Units are Angstrom for bonds and degrees for angles
 
      Type          Name      I     J     K     L     M      Value
      ----------- --------  ----- ----- ----- ----- ----- ----------
    1 Stretch                  1     2                       0.95711
    2 Stretch                  1     3                       0.96391
    3 Stretch                  3     4                       1.95159
    4 Stretch                  4     5                       0.95895
    5 Stretch                  4     6                       0.95895
    6 Bend                     1     3     4               172.81029
    7 Bend                     2     1     3               104.33745
    8 Bend                     3     4     5               108.98479
    9 Bend                     3     4     6               108.98479
   10 Bend                     5     4     6               104.56359
   11 Torsion                  1     3     4     5          56.77574
   12 Torsion                  1     3     4     6         -56.77574
   13 Torsion                  2     1     3     4         180.00000
 
 
            XYZ format geometry
            -------------------
     6
 dimer
 O                    -0.06693304     1.51516876     0.00000000
 H                     0.82206959     1.86974704     0.00000000
 H                     0.05733313     0.55930074     0.00000000
 O                     0.06473816    -1.39227032     0.00000000
 H                    -0.43092185    -1.70611763    -0.75856100
 H                    -0.43092185    -1.70611763     0.75856100
 
 ==============================================================================
                                internuclear distances
 ------------------------------------------------------------------------------
       center one      |      center two      | atomic units |  angstroms
 ------------------------------------------------------------------------------
    2 H                |   1 O                |     1.80867  |     0.95711
    3 H                |   1 O                |     1.82153  |     0.96391
    5 H                |   4 O                |     1.81216  |     0.95895
    6 H                |   4 O                |     1.81216  |     0.95895
 ------------------------------------------------------------------------------
                         number of included internuclear distances:          4
 ==============================================================================



 ==============================================================================
                                 internuclear angles
 ------------------------------------------------------------------------------
        center 1       |       center 2       |       center 3       |  degrees
 ------------------------------------------------------------------------------
    2 H                |   1 O                |   3 H                |   104.34
    5 H                |   4 O                |   6 H                |   104.56
 ------------------------------------------------------------------------------
                            number of included internuclear angles:          2
 ==============================================================================




 Scaling coordinates for geometry "w1@dimg_b" by  1.889725989
 (inverse scale =  0.529177249)

 CS  symmetry detected

          ------
          auto-z
          ------
  autoz: The atoms group into disjoint clusters
 cluster   1:    1    2    3 
 cluster   2:    4    5    6 
 Connecting clusters   1   2 via atoms    3    4 r = 1.95
  autoz: regenerating connections with new bonds
  no constraints, skipping   0.000000000000000E+000
  no constraints, skipping   0.000000000000000E+000
 
 
                          Geometry "w1@dimg_b" -> "     "
                          -------------------------------
 
 Output coordinates in angstroms (scale by  1.889725989 to convert to a.u.)
 
  No.       Tag          Charge          X              Y              Z
 ---- ---------------- ---------- -------------- -------------- --------------
    1 O                    8.0000    -0.10727929    -0.04872150     0.00000000
    2 H                    1.0000     0.73775821    -0.49812451     0.00000000
    3 H                    1.0000     0.12047610     0.88789648     0.00000000
    4 bqO                  0.0000     0.34064112     2.82702303     0.00000000
    5 bqH                  0.0000    -0.11784063     3.19304689    -0.75856100
    6 bqH                  0.0000    -0.11784063     3.19304689     0.75856100
 
      Atomic Mass 
      ----------- 
 
      O                 15.994910
      H                  1.007825
 

 Effective nuclear repulsion energy (a.u.)       9.1638308457

            Nuclear Dipole moment (a.u.) 
            ----------------------------
        X                 Y               Z
 ---------------- ---------------- ----------------
    -0.0000000000     0.0000000000     0.0000000000
 
      Symmetry information
      --------------------
 
 Group name             Cs        
 Group number              2
 Group order               2
 No. of unique centers     5
 
      Symmetry unique atoms
 
     1    2    3    4    5
 


                                Z-matrix (autoz)
                                -------- 

 Units are Angstrom for bonds and degrees for angles
 
      Type          Name      I     J     K     L     M      Value
      ----------- --------  ----- ----- ----- ----- ----- ----------
    1 Stretch                  1     2                       0.95711
    2 Stretch                  1     3                       0.96391
    3 Stretch                  3     4                       1.95159
    4 Stretch                  4     5                       0.95895
    5 Stretch                  4     6                       0.95895
    6 Bend                     1     3     4               172.81029
    7 Bend                     2     1     3               104.33745
    8 Bend                     3     4     5               108.98479
    9 Bend                     3     4     6               108.98479
   10 Bend                     5     4     6               104.56359
   11 Torsion                  1     3     4     5         -56.77574
   12 Torsion                  1     3     4     6          56.77574
   13 Torsion                  2     1     3     4         180.00000
 
 
            XYZ format geometry
            -------------------
     6
 w1@dimg_b
 O                    -0.10727929    -0.04872150     0.00000000
 H                     0.73775821    -0.49812451     0.00000000
 H                     0.12047610     0.88789648     0.00000000
 bqO                   0.34064112     2.82702303     0.00000000
 bqH                  -0.11784063     3.19304689    -0.75856100
 bqH                  -0.11784063     3.19304689     0.75856100
 
 ==============================================================================
                                internuclear distances
 ------------------------------------------------------------------------------
       center one      |      center two      | atomic units |  angstroms
 ------------------------------------------------------------------------------
    2 H                |   1 O                |     1.80867  |     0.95711
    3 H                |   1 O                |     1.82153  |     0.96391
    4 bqO              |   1 O                |     5.49989  |     2.91042
    4 bqO              |   3 H                |     3.68796  |     1.95159
    5 bqH              |   3 H                |     4.60796  |     2.43843
    5 bqH              |   4 bqO              |     1.81216  |     0.95895
    6 bqH              |   3 H                |     4.60796  |     2.43843
    6 bqH              |   4 bqO              |     1.81216  |     0.95895
    6 bqH              |   5 bqH              |     2.86694  |     1.51712
 ------------------------------------------------------------------------------
                         number of included internuclear distances:          9
 ==============================================================================



 ==============================================================================
                                 internuclear angles
 ------------------------------------------------------------------------------
        center 1       |       center 2       |       center 3       |  degrees
 ------------------------------------------------------------------------------
    2 H                |   1 O                |   3 H                |   104.34
    2 H                |   1 O                |   4 bqO              |   109.15
    1 O                |   3 H                |   4 bqO              |   172.81
    1 O                |   3 H                |   4 bqO              |   172.81
    1 O                |   3 H                |   5 bqH              |   153.57
    1 O                |   3 H                |   6 bqH              |   153.57
    3 H                |   4 bqO              |   5 bqH              |   108.98
    3 H                |   4 bqO              |   6 bqH              |   108.98
    5 bqH              |   3 H                |   6 bqH              |    36.25
    4 bqO              |   3 H                |   1 O                |   172.81
    1 O                |   4 bqO              |   5 bqH              |   107.67
    1 O                |   4 bqO              |   6 bqH              |   107.67
    3 H                |   4 bqO              |   5 bqH              |   108.98
    3 H                |   4 bqO              |   6 bqH              |   108.98
    5 bqH              |   4 bqO              |   6 bqH              |   104.56
    5 bqH              |   4 bqO              |   3 H                |   108.98
    5 bqH              |   3 H                |   6 bqH              |    36.25
    5 bqH              |   4 bqO              |   6 bqH              |   104.56
    6 bqH              |   4 bqO              |   3 H                |   108.98
    6 bqH              |   3 H                |   5 bqH              |    36.25
    6 bqH              |   4 bqO              |   5 bqH              |   104.56
 ------------------------------------------------------------------------------
                            number of included internuclear angles:         21
 ==============================================================================




 Scaling coordinates for geometry "w2@dimg_b" by  1.889725989
 (inverse scale =  0.529177249)

 CS  symmetry detected

          ------
          auto-z
          ------
  autoz: The atoms group into disjoint clusters
 cluster   1:    1    2    3 
 cluster   2:    4    5    6 
 Connecting clusters   1   2 via atoms    3    4 r = 1.95
  autoz: regenerating connections with new bonds
  no constraints, skipping   0.000000000000000E+000
  no constraints, skipping   0.000000000000000E+000
 
 
                        Geometry "w2@dimg_b" -> "         "
                        -----------------------------------
 
 Output coordinates in angstroms (scale by  1.889725989 to convert to a.u.)
 
  No.       Tag          Charge          X              Y              Z
 ---- ---------------- ---------- -------------- -------------- --------------
    1 bqO                  0.0000    -0.47083928    -2.93283275     0.00000000
    2 bqH                  0.0000     0.35604878    -3.41481570     0.00000000
    3 bqH                  0.0000    -0.20676787    -2.00579875     0.00000000
    4 O                    8.0000     0.08877481    -0.07672152     0.00000000
    5 H                    1.0000    -0.35509926     0.30688607    -0.75856100
    6 H                    1.0000    -0.35509926     0.30688607     0.75856100
 
      Atomic Mass 
      ----------- 
 
      O                 15.994910
      H                  1.007825
 

 Effective nuclear repulsion energy (a.u.)       9.1780396058

            Nuclear Dipole moment (a.u.) 
            ----------------------------
        X                 Y               Z
 ---------------- ---------------- ----------------
     0.0000000000     0.0000000000     0.0000000000
 
      Symmetry information
      --------------------
 
 Group name             Cs        
 Group number              2
 Group order               2
 No. of unique centers     5
 
      Symmetry unique atoms
 
     1    2    3    4    5
 


                                Z-matrix (autoz)
                                -------- 

 Units are Angstrom for bonds and degrees for angles
 
      Type          Name      I     J     K     L     M      Value
      ----------- --------  ----- ----- ----- ----- ----- ----------
    1 Stretch                  1     2                       0.95711
    2 Stretch                  1     3                       0.96391
    3 Stretch                  3     4                       1.95159
    4 Stretch                  4     5                       0.95895
    5 Stretch                  4     6                       0.95895
    6 Bend                     1     3     4               172.81029
    7 Bend                     2     1     3               104.33745
    8 Bend                     3     4     5               108.98479
    9 Bend                     3     4     6               108.98479
   10 Bend                     5     4     6               104.56359
   11 Torsion                  1     3     4     5         -56.77574
   12 Torsion                  1     3     4     6          56.77574
   13 Torsion                  2     1     3     4         180.00000
 
 
            XYZ format geometry
            -------------------
     6
 w2@dimg_b
 bqO                  -0.47083928    -2.93283275     0.00000000
 bqH                   0.35604878    -3.41481570     0.00000000
 bqH                  -0.20676787    -2.00579875     0.00000000
 O                     0.08877481    -0.07672152     0.00000000
 H                    -0.35509926     0.30688607    -0.75856100
 H                    -0.35509926     0.30688607     0.75856100
 
 ==============================================================================
                                internuclear distances
 ------------------------------------------------------------------------------
       center one      |      center two      | atomic units |  angstroms
 ------------------------------------------------------------------------------
    2 bqH              |   1 bqO              |     1.80867  |     0.95711
    3 bqH              |   1 bqO              |     1.82153  |     0.96391
    3 bqH              |   2 bqH              |     2.86721  |     1.51726
    4 O                |   1 bqO              |     5.49989  |     2.91042
    4 O                |   3 bqH              |     3.68796  |     1.95159
    5 H                |   3 bqH              |     4.60796  |     2.43843
    5 H                |   4 O                |     1.81216  |     0.95895
    6 H                |   3 bqH              |     4.60796  |     2.43843
    6 H                |   4 O                |     1.81216  |     0.95895
 ------------------------------------------------------------------------------
                         number of included internuclear distances:          9
 ==============================================================================



 ==============================================================================
                                 internuclear angles
 ------------------------------------------------------------------------------
        center 1       |       center 2       |       center 3       |  degrees
 ------------------------------------------------------------------------------
    2 bqH              |   1 bqO              |   3 bqH              |   104.34
    2 bqH              |   1 bqO              |   4 O                |   109.15
    1 bqO              |   3 bqH              |   4 O                |   172.81
    2 bqH              |   1 bqO              |   3 bqH              |   104.34
    3 bqH              |   1 bqO              |   2 bqH              |   104.34
    1 bqO              |   3 bqH              |   4 O                |   172.81
    1 bqO              |   3 bqH              |   5 H                |   153.57
    1 bqO              |   3 bqH              |   6 H                |   153.57
    2 bqH              |   3 bqH              |   4 O                |   149.52
    2 bqH              |   3 bqH              |   5 H                |   154.60
    2 bqH              |   3 bqH              |   6 H                |   154.60
    3 bqH              |   4 O                |   5 H                |   108.98
    3 bqH              |   4 O                |   6 H                |   108.98
    5 H                |   3 bqH              |   6 H                |    36.25
    4 O                |   3 bqH              |   1 bqO              |   172.81
    1 bqO              |   4 O                |   5 H                |   107.67
    1 bqO              |   4 O                |   6 H                |   107.67
    3 bqH              |   4 O                |   5 H                |   108.98
    3 bqH              |   4 O                |   6 H                |   108.98
    5 H                |   4 O                |   6 H                |   104.56
    5 H                |   4 O                |   3 bqH              |   108.98
    6 H                |   4 O                |   3 bqH              |   108.98
 ------------------------------------------------------------------------------
                            number of included internuclear angles:         22
 ==============================================================================





 Summary of "ao basis" -> "" (spherical)
 ------------------------------------------------------------------------------
       Tag                 Description            Shells   Functions and Types
 ---------------- ------------------------------  ------  ---------------------
 bqH                   6-311++g(3df,3pd)             8       18   4s3p1d
 bqO                   6-311++g(3df,3pd)            13       39   5s4p3d1f
 *                     6-311++g(3df,3pd)              on all atoms 


 
                                 NWChem DFT Module
                                 -----------------
 
 
                      Basis "ao basis" -> "ao basis" (spherical)
                      -----
  bqH
  ---
            Exponent  Coefficients 
       -------------- ---------------------------------------------------------
  1 S  3.38650000E+01  0.025494
  1 S  5.09479000E+00  0.190373
  1 S  1.15879000E+00  0.852161
 
  2 S  3.25840000E-01  1.000000
 
  3 S  1.02741000E-01  1.000000
 
  4 S  3.60000000E-02  1.000000
 
  5 P  3.00000000E+00  1.000000
 
  6 P  7.50000000E-01  1.000000
 
  7 P  1.87500000E-01  1.000000
 
  8 D  1.00000000E+00  1.000000
 
  bqO
  ---
            Exponent  Coefficients 
       -------------- ---------------------------------------------------------
  1 S  8.58850000E+03  0.001895
  1 S  1.29723000E+03  0.014386
  1 S  2.99296000E+02  0.070732
  1 S  8.73771000E+01  0.240001
  1 S  2.56789000E+01  0.594797
  1 S  3.74004000E+00  0.280802
 
  2 S  4.21175000E+01  0.113889
  2 S  9.62837000E+00  0.920811
  2 S  2.85332000E+00 -0.003274
 
  3 P  4.21175000E+01  0.036511
  3 P  9.62837000E+00  0.237153
  3 P  2.85332000E+00  0.819702
 
  4 S  9.05661000E-01  1.000000
 
  5 P  9.05661000E-01  1.000000
 
  6 S  2.55611000E-01  1.000000
 
  7 P  2.55611000E-01  1.000000
 
  8 S  8.45000000E-02  1.000000
 
  9 P  8.45000000E-02  1.000000
 
 10 D  5.16000000E+00  1.000000
 
 11 D  1.29200000E+00  1.000000
 
 12 D  3.22500000E-01  1.000000
 
 13 F  1.40000000E+00  1.000000
 
  O (Oxygen)
  ----------
            Exponent  Coefficients 
       -------------- ---------------------------------------------------------
  1 S  8.58850000E+03  0.001895
  1 S  1.29723000E+03  0.014386
  1 S  2.99296000E+02  0.070732
  1 S  8.73771000E+01  0.240001
  1 S  2.56789000E+01  0.594797
  1 S  3.74004000E+00  0.280802
 
  2 S  4.21175000E+01  0.113889
  2 S  9.62837000E+00  0.920811
  2 S  2.85332000E+00 -0.003274
 
  3 P  4.21175000E+01  0.036511
  3 P  9.62837000E+00  0.237153
  3 P  2.85332000E+00  0.819702
 
  4 S  9.05661000E-01  1.000000
 
  5 P  9.05661000E-01  1.000000
 
  6 S  2.55611000E-01  1.000000
 
  7 P  2.55611000E-01  1.000000
 
  8 S  8.45000000E-02  1.000000
 
  9 P  8.45000000E-02  1.000000
 
 10 D  5.16000000E+00  1.000000
 
 11 D  1.29200000E+00  1.000000
 
 12 D  3.22500000E-01  1.000000
 
 13 F  1.40000000E+00  1.000000
 
  H (Hydrogen)
  ------------
            Exponent  Coefficients 
       -------------- ---------------------------------------------------------
  1 S  3.38650000E+01  0.025494
  1 S  5.09479000E+00  0.190373
  1 S  1.15879000E+00  0.852161
 
  2 S  3.25840000E-01  1.000000
 
  3 S  1.02741000E-01  1.000000
 
  4 S  3.60000000E-02  1.000000
 
  5 P  3.00000000E+00  1.000000
 
  6 P  7.50000000E-01  1.000000
 
  7 P  1.87500000E-01  1.000000
 
  8 D  1.00000000E+00  1.000000
 


 Summary of "ao basis" -> "ao basis" (spherical)
 ------------------------------------------------------------------------------
       Tag                 Description            Shells   Functions and Types
 ---------------- ------------------------------  ------  ---------------------
 bqH                   6-311++g(3df,3pd)             8       18   4s3p1d
 bqO                   6-311++g(3df,3pd)            13       39   5s4p3d1f
 O                     6-311++g(3df,3pd)            13       39   5s4p3d1f
 H                     6-311++g(3df,3pd)             8       18   4s3p1d




 Summary of "ao basis" -> "ao basis" (spherical)
 ------------------------------------------------------------------------------
       Tag                 Description            Shells   Functions and Types
 ---------------- ------------------------------  ------  ---------------------
 bqH                   6-311++g(3df,3pd)             8       18   4s3p1d
 bqO                   6-311++g(3df,3pd)            13       39   5s4p3d1f
 O                     6-311++g(3df,3pd)            13       39   5s4p3d1f
 H                     6-311++g(3df,3pd)             8       18   4s3p1d


      Symmetry analysis of basis
      --------------------------
 
        a'         96
        a"         54
 
  int_init: cando_txs set to always be  F
  Caching 1-el integrals 
 
            General Information
            -------------------
          SCF calculation type: DFT
          Wavefunction type:  closed shell.
          No. of atoms     :     6
          No. of electrons :    20
           Alpha electrons :    10
            Beta electrons :    10
          Charge           :     0
          Spin multiplicity:     1
          Use of symmetry is: on ; symmetry adaption is: on 
          Maximum number of iterations:  50
          This is a Direct SCF calculation.
          AO basis - number of functions:   150
                     number of shells:    58
          Convergence on energy requested:  1.00D-06
          Convergence on density requested:  1.00D-05
          Convergence on gradient requested:  5.00D-04
 
              XC Information
              --------------
                    wb97x-d3  Method XC Functional
                     Hartree-Fock (Exact) Exchange  1.000          
                      wb97x-d3 Exchange Functional  1.000          
                   wb97x-d3 Correlation Functional  1.000          
 
           Range-Separation Parameters        
           ---------------------------
           Alpha           :  0.20
           Beta            :  0.80
           Gamma           :  0.25
           Short-Range HF  :     F
 
             Grid Information
             ----------------
          Grid used for XC integration:  medium    
          Radial quadrature: Mura-Knowles        
          Angular quadrature: Lebedev. 
          Tag              B.-S. Rad. Rad. Pts. Rad. Cut. Ang. Pts.
          ---              ---------- --------- --------- ---------
          O                   0.60       49          12.0       434
          H                   0.35       45          14.0       434
          Grid pruning is: on 
          Number of quadrature shells:   233
          Spatial weights used:  Erf1
 
          Convergence Information
          -----------------------
          Convergence aids based upon iterative change in 
          total energy or number of iterations. 
          Levelshifting, if invoked, occurs when the 
          HOMO/LUMO gap drops below (HL_TOL):  1.00D-02
          DIIS, if invoked, will attempt to extrapolate 
          using up to (NFOCK): 10 stored Fock matrices.

                    Damping( 0%)  Levelshifting(0.5)       DIIS
                  --------------- ------------------- ---------------
          dE  on:    start            ASAP                start   
          dE off:    2 iters         50 iters            50 iters 

 
      Screening Tolerance Information
      -------------------------------
          Density screening/tol_rho:  1.00D-10
          AO Gaussian exp screening on grid/accAOfunc:  14
          CD Gaussian exp screening on grid/accCDfunc:  20
          XC Gaussian exp screening on grid/accXCfunc:  20
          Schwarz screening/accCoul:  1.00D-08

      Dispersion Parameters
      ---------------------

             DFT-D3 Model   
          s6 scale factor  :        1.000000000000
          s8 scale factor  :        1.000000000000
          sr6 scale factor :        1.281000000000
          sr8 scale factor :        1.094000000000
              vdW contrib  :       -0.000530605768

 
      Superposition of Atomic Density Guess
      -------------------------------------
 
 Sum of atomic energies:        -151.55484409
 
      Non-variational initial energy
      ------------------------------

 Total energy =    -151.915633
 1-e energy   =    -279.974244
 2-e energy   =      91.395761
 HOMO         =      -0.481725
 LUMO         =       0.006239
 
 
      Symmetry analysis of molecular orbitals - initial
      -------------------------------------------------
 
  Numbering of irreducible representations: 
 
     1 a'          2 a"      
 
  Orbital symmetries:
 
     1 a'          2 a'          3 a'          4 a'          5 a'      
     6 a"          7 a'          8 a'          9 a'         10 a"      
    11 a'         12 a'         13 a"         14 a'         15 a'      
    16 a'         17 a'         18 a"         19 a'         20 a"      
 
   Time after variat. SCF:      0.4
   Time prior to 1st pass:      0.4
 Local filesystem for scratch_dir

 Grid_pts file          = ./w_dim_s22.gridpts.0
 Record size in doubles =  12289        No. of grid_pts per rec  =   3070
 Max. records in memory =     11        Max. recs in file   =   3148626


           Memory utilization after 1st SCF pass: 
           Heap Space remaining (MW):       26.08            26077824
          Stack Space remaining (MW):       26.21            26213452

   convergence    iter        energy       DeltaE   RMS-Dens  Diis-err    time
 ---------------- ----- ----------------- --------- --------- ---------  ------
 d= 0,ls=0.0,diis     1   -152.8175805445 -1.89D+02  4.05D-03  7.89D-01     2.7
 d= 0,ls=0.0,diis     2   -152.8447484792 -2.72D-02  1.77D-03  5.49D-01     5.1
 d= 0,ls=0.0,diis     3   -152.8863695696 -4.16D-02  3.70D-04  1.63D-02     7.7
 d= 0,ls=0.0,diis     4   -152.8876132400 -1.24D-03  7.22D-05  1.72D-04    10.2
 d= 0,ls=0.0,diis     5   -152.8876308920 -1.77D-05  2.81D-05  1.98D-05    12.7
  Resetting Diis
 d= 0,ls=0.0,diis     6   -152.8876328350 -1.94D-06  1.31D-05  6.62D-06    15.3
 d= 0,ls=0.0,diis     7   -152.8876335291 -6.94D-07  2.93D-06  6.27D-08    17.8


         Total DFT energy =     -152.887633529072
      One electron energy =     -282.680052421629
           Coulomb energy =      111.771723272131
    Exchange-Corr. energy =      -18.641624426257
 Nuclear repulsion energy =       36.662850652450

    Dispersion correction =       -0.000530605768

 Numeric. integr. density =       19.999996948124

     Total iterative time =     17.4s


 
                  Occupations of the irreducible representations
                  ----------------------------------------------
 
                     irrep           alpha         beta
                     --------     --------     --------
                     a'                8.0          8.0
                     a"                2.0          2.0
 

 center of mass
 --------------
 x =  -0.00091338 y =   0.05114317 z =   0.00000000

 moments of inertia (a.u.)
 ------------------
         280.557638273506           0.000000000000           0.000000000000
           0.000000000000           8.417755587399           0.000000000000
           0.000000000000           0.000000000000         280.691704373237

 Task  times  cpu:       17.6s     wall:       17.6s
 
 
                                NWChem Input Module
                                -------------------
 
 
 
                                 NWChem DFT Module
                                 -----------------
 
 


 Summary of "ao basis" -> "ao basis" (spherical)
 ------------------------------------------------------------------------------
       Tag                 Description            Shells   Functions and Types
 ---------------- ------------------------------  ------  ---------------------
 bqH                   6-311++g(3df,3pd)             8       18   4s3p1d
 bqO                   6-311++g(3df,3pd)            13       39   5s4p3d1f
 O                     6-311++g(3df,3pd)            13       39   5s4p3d1f
 H                     6-311++g(3df,3pd)             8       18   4s3p1d


      Symmetry analysis of basis
      --------------------------
 
        a'         96
        a"         54
 
  int_init: cando_txs set to always be  F
  Caching 1-el integrals 
 
            General Information
            -------------------
          SCF calculation type: DFT
          Wavefunction type:  closed shell.
          No. of atoms     :     6
          No. of electrons :    10
           Alpha electrons :     5
            Beta electrons :     5
          Charge           :     0
          Spin multiplicity:     1
          Use of symmetry is: on ; symmetry adaption is: on 
          Maximum number of iterations:  50
          This is a Direct SCF calculation.
          AO basis - number of functions:   150
                     number of shells:    58
          Convergence on energy requested:  1.00D-06
          Convergence on density requested:  1.00D-05
          Convergence on gradient requested:  5.00D-04
 
              XC Information
              --------------
                    wb97x-d3  Method XC Functional
                     Hartree-Fock (Exact) Exchange  1.000          
                      wb97x-d3 Exchange Functional  1.000          
                   wb97x-d3 Correlation Functional  1.000          
 
           Range-Separation Parameters        
           ---------------------------
           Alpha           :  0.20
           Beta            :  0.80
           Gamma           :  0.25
           Short-Range HF  :     F
 
             Grid Information
             ----------------
          Grid used for XC integration:  medium    
          Radial quadrature: Mura-Knowles        
          Angular quadrature: Lebedev. 
          Tag              B.-S. Rad. Rad. Pts. Rad. Cut. Ang. Pts.
          ---              ---------- --------- --------- ---------
          O                   0.60       49          12.0       434
          H                   0.35       45          14.0       434
          bqO                 0.60       49          12.0       434
          bqH                 0.35       45          14.0       434
          Grid pruning is: on 
          Number of quadrature shells:   233
          Spatial weights used:  Erf1
 
          Convergence Information
          -----------------------
          Convergence aids based upon iterative change in 
          total energy or number of iterations. 
          Levelshifting, if invoked, occurs when the 
          HOMO/LUMO gap drops below (HL_TOL):  1.00D-02
          DIIS, if invoked, will attempt to extrapolate 
          using up to (NFOCK): 10 stored Fock matrices.

                    Damping( 0%)  Levelshifting(0.5)       DIIS
                  --------------- ------------------- ---------------
          dE  on:    start            ASAP                start   
          dE off:    2 iters         50 iters            50 iters 

 
      Screening Tolerance Information
      -------------------------------
          Density screening/tol_rho:  1.00D-10
          AO Gaussian exp screening on grid/accAOfunc:  14
          CD Gaussian exp screening on grid/accCDfunc:  20
          XC Gaussian exp screening on grid/accXCfunc:  20
          Schwarz screening/accCoul:  1.00D-08

      Dispersion Parameters
      ---------------------

             DFT-D3 Model   
          s6 scale factor  :        1.000000000000
          s8 scale factor  :        1.000000000000
          sr6 scale factor :        1.281000000000
          sr8 scale factor :        1.094000000000
              vdW contrib  :       -0.000001279146

 
      Superposition of Atomic Density Guess
      -------------------------------------
 
 Sum of atomic energies:         -75.77742205
 
      Non-variational initial energy
      ------------------------------

 Total energy =     -75.933862
 1-e energy   =    -121.658684
 2-e energy   =      36.560991
 HOMO         =      -0.481697
 LUMO         =       0.013650
 
 
      Symmetry analysis of molecular orbitals - initial
      -------------------------------------------------
 
  Numbering of irreducible representations: 
 
     1 a'          2 a"      
 
  Orbital symmetries:
 
     1 a'          2 a'          3 a'          4 a'          5 a"      
     6 a'          7 a'          8 a"          9 a'         10 a'      
    11 a'         12 a'         13 a"         14 a'         15 a'      
 
   Time after variat. SCF:     18.0
   Time prior to 1st pass:     18.0
 Local filesystem for scratch_dir

 Grid_pts file          = ./w_dim_s22.gridpts.0
 Record size in doubles =  12289        No. of grid_pts per rec  =   3070
 Max. records in memory =     11        Max. recs in file   =   3148616


           Memory utilization after 1st SCF pass: 
           Heap Space remaining (MW):       26.08            26077576
          Stack Space remaining (MW):       26.21            26213452

   convergence    iter        energy       DeltaE   RMS-Dens  Diis-err    time
 ---------------- ----- ----------------- --------- --------- ---------  ------
 d= 0,ls=0.0,diis     1    -76.4006210237 -8.56D+01  3.24D-03  4.28D-01    20.0
 d= 0,ls=0.0,diis     2    -76.4135673071 -1.29D-02  1.43D-03  3.29D-01    22.1
 d= 0,ls=0.0,diis     3    -76.4390425655 -2.55D-02  2.96D-04  8.26D-03    24.4
 d= 0,ls=0.0,diis     4    -76.4396702288 -6.28D-04  5.65D-05  9.19D-05    26.7
 d= 0,ls=0.0,diis     5    -76.4396800146 -9.79D-06  2.56D-05  2.13D-06    29.1
 d= 0,ls=0.0,diis     6    -76.4396806975 -6.83D-07  5.04D-06  8.08D-08    31.4


         Total DFT energy =      -76.439680697464
      One electron energy =     -123.003438043882
           Coulomb energy =       46.713712003687
    Exchange-Corr. energy =       -9.313784223869
 Nuclear repulsion energy =        9.163830845746

    Dispersion correction =       -0.000001279146

 Numeric. integr. density =        9.999998930556

     Total iterative time =     13.5s


 
                  Occupations of the irreducible representations
                  ----------------------------------------------
 
                     irrep           alpha         beta
                     --------     --------     --------
                     a'                4.0          4.0
                     a"                1.0          1.0
 

 center of mass
 --------------
 x =  -0.08928678 y =  -0.04055010 z =   0.00000000

 moments of inertia (a.u.)
 ------------------
           3.836301999123           0.704291596138           0.000000000000
           0.704291596138           2.524921140344           0.000000000000
           0.000000000000           0.000000000000           6.361223139467

 Task  times  cpu:       13.6s     wall:       13.6s
 
 
                                NWChem Input Module
                                -------------------
 
 
 
                                 NWChem DFT Module
                                 -----------------
 
 


 Summary of "ao basis" -> "ao basis" (spherical)
 ------------------------------------------------------------------------------
       Tag                 Description            Shells   Functions and Types
 ---------------- ------------------------------  ------  ---------------------
 bqH                   6-311++g(3df,3pd)             8       18   4s3p1d
 bqO                   6-311++g(3df,3pd)            13       39   5s4p3d1f
 O                     6-311++g(3df,3pd)            13       39   5s4p3d1f
 H                     6-311++g(3df,3pd)             8       18   4s3p1d


      Symmetry analysis of basis
      --------------------------
 
        a'         96
        a"         54
 
  int_init: cando_txs set to always be  F
  Caching 1-el integrals 
 
            General Information
            -------------------
          SCF calculation type: DFT
          Wavefunction type:  closed shell.
          No. of atoms     :     6
          No. of electrons :    10
           Alpha electrons :     5
            Beta electrons :     5
          Charge           :     0
          Spin multiplicity:     1
          Use of symmetry is: on ; symmetry adaption is: on 
          Maximum number of iterations:  50
          This is a Direct SCF calculation.
          AO basis - number of functions:   150
                     number of shells:    58
          Convergence on energy requested:  1.00D-06
          Convergence on density requested:  1.00D-05
          Convergence on gradient requested:  5.00D-04
 
              XC Information
              --------------
                    wb97x-d3  Method XC Functional
                     Hartree-Fock (Exact) Exchange  1.000          
                      wb97x-d3 Exchange Functional  1.000          
                   wb97x-d3 Correlation Functional  1.000          
 
           Range-Separation Parameters        
           ---------------------------
           Alpha           :  0.20
           Beta            :  0.80
           Gamma           :  0.25
           Short-Range HF  :     F
 
             Grid Information
             ----------------
          Grid used for XC integration:  medium    
          Radial quadrature: Mura-Knowles        
          Angular quadrature: Lebedev. 
          Tag              B.-S. Rad. Rad. Pts. Rad. Cut. Ang. Pts.
          ---              ---------- --------- --------- ---------
          bqO                 0.60       49          12.0       434
          bqH                 0.35       45          14.0       434
          O                   0.60       49          12.0       434
          H                   0.35       45          14.0       434
          Grid pruning is: on 
          Number of quadrature shells:   233
          Spatial weights used:  Erf1
 
          Convergence Information
          -----------------------
          Convergence aids based upon iterative change in 
          total energy or number of iterations. 
          Levelshifting, if invoked, occurs when the 
          HOMO/LUMO gap drops below (HL_TOL):  1.00D-02
          DIIS, if invoked, will attempt to extrapolate 
          using up to (NFOCK): 10 stored Fock matrices.

                    Damping( 0%)  Levelshifting(0.5)       DIIS
                  --------------- ------------------- ---------------
          dE  on:    start            ASAP                start   
          dE off:    2 iters         50 iters            50 iters 

 
      Screening Tolerance Information
      -------------------------------
          Density screening/tol_rho:  1.00D-10
          AO Gaussian exp screening on grid/accAOfunc:  14
          CD Gaussian exp screening on grid/accCDfunc:  20
          XC Gaussian exp screening on grid/accXCfunc:  20
          Schwarz screening/accCoul:  1.00D-08

      Dispersion Parameters
      ---------------------

             DFT-D3 Model   
          s6 scale factor  :        1.000000000000
          s8 scale factor  :        1.000000000000
          sr6 scale factor :        1.281000000000
          sr8 scale factor :        1.094000000000
              vdW contrib  :       -0.000001276465

 
      Superposition of Atomic Density Guess
      -------------------------------------
 
 Sum of atomic energies:         -75.77742205
 
      Non-variational initial energy
      ------------------------------

 Total energy =     -75.936629
 1-e energy   =    -121.681313
 2-e energy   =      36.566644
 HOMO         =      -0.482277
 LUMO         =       0.014940
 
 
      Symmetry analysis of molecular orbitals - initial
      -------------------------------------------------
 
  Numbering of irreducible representations: 
 
     1 a'          2 a"      
 
  Orbital symmetries:
 
     1 a'          2 a'          3 a"          4 a'          5 a'      
     6 a'          7 a'          8 a"          9 a'         10 a'      
    11 a'         12 a"         13 a'         14 a'         15 a"      
 
   Time after variat. SCF:     31.6
   Time prior to 1st pass:     31.6
 Local filesystem for scratch_dir

 Grid_pts file          = ./w_dim_s22.gridpts.0
 Record size in doubles =  12289        No. of grid_pts per rec  =   3070
 Max. records in memory =     11        Max. recs in file   =   3148616


           Memory utilization after 1st SCF pass: 
           Heap Space remaining (MW):       26.08            26077576
          Stack Space remaining (MW):       26.21            26213452

   convergence    iter        energy       DeltaE   RMS-Dens  Diis-err    time
 ---------------- ----- ----------------- --------- --------- ---------  ------
 d= 0,ls=0.0,diis     1    -76.4009279668 -8.56D+01  3.04D-03  4.28D-01    33.6
 d= 0,ls=0.0,diis     2    -76.4138915450 -1.30D-02  1.28D-03  3.28D-01    35.8
 d= 0,ls=0.0,diis     3    -76.4392925945 -2.54D-02  2.35D-04  8.20D-03    38.2
 d= 0,ls=0.0,diis     4    -76.4399160754 -6.23D-04  4.63D-05  9.14D-05    40.5
 d= 0,ls=0.0,diis     5    -76.4399258485 -9.77D-06  1.95D-05  2.15D-06    42.9
 d= 0,ls=0.0,diis     6    -76.4399265341 -6.86D-07  4.12D-06  8.30D-08    45.3


         Total DFT energy =      -76.439926534090
      One electron energy =     -123.030124801810
           Coulomb energy =       46.727658755223
    Exchange-Corr. energy =       -9.315498816808
 Nuclear repulsion energy =        9.178039605769

    Dispersion correction =       -0.000001276465

 Numeric. integr. density =        9.999999670045

     Total iterative time =     13.7s


 
                  Occupations of the irreducible representations
                  ----------------------------------------------
 
                     irrep           alpha         beta
                     --------     --------     --------
                     a'                4.0          4.0
                     a"                1.0          1.0
 

 center of mass
 --------------
 x =   0.07388582 y =  -0.06385406 z =   0.00000000

 moments of inertia (a.u.)
 ------------------
           5.082524435859           1.088464700340           0.000000000000
           1.088464700340           5.401312141642           0.000000000000
           0.000000000000           0.000000000000           2.200147089833

 Task  times  cpu:       13.9s     wall:       13.9s
 
 
                                NWChem Input Module
                                -------------------
 
 
 Summary of allocated global arrays
-----------------------------------
  No active global arrays


MA_summarize_allocated_blocks: starting scan ...
MA_summarize_allocated_blocks: scan completed: 0 heap blocks, 0 stack blocks
MA usage statistics:

	allocation statistics:
					      heap	     stack
					      ----	     -----
	current number of blocks	         0	         0
	maximum number of blocks	        18	        62
	current total bytes		         0	         0
	maximum total bytes		   1093840	  22516424
	maximum total K-bytes		      1094	     22517
	maximum total M-bytes		         2	        23
 
 
                                     CITATION
                                     --------
                Please cite the following reference when publishing
                           results obtained with NWChem:
 
          E. Apra, E. J. Bylaska, W. A. de Jong, N. Govind, K. Kowalski,
       T. P. Straatsma, M. Valiev, H. J. J. van Dam, Y. Alexeev, J. Anchell,
       V. Anisimov, F. W. Aquino, R. Atta-Fynn, J. Autschbach, N. P. Bauman,
     J. C. Becca, D. E. Bernholdt, K. Bhaskaran-Nair, S. Bogatko, P. Borowski,
         J. Boschen, J. Brabec, A. Bruner, E. Cauet, Y. Chen, G. N. Chuev,
      C. J. Cramer, J. Daily, M. J. O. Deegan, T. H. Dunning Jr., M. Dupuis,
   K. G. Dyall, G. I. Fann, S. A. Fischer, A. Fonari, H. Fruchtl, L. Gagliardi,
      J. Garza, N. Gawande, S. Ghosh, K. Glaesemann, A. W. Gotz, J. Hammond,
       V. Helms, E. D. Hermes, K. Hirao, S. Hirata, M. Jacquelin, L. Jensen,
   B. G. Johnson, H. Jonsson, R. A. Kendall, M. Klemm, R. Kobayashi, V. Konkov,
      S. Krishnamoorthy, M. Krishnan, Z. Lin, R. D. Lins, R. J. Littlefield,
      A. J. Logsdail, K. Lopata, W. Ma, A. V. Marenich, J. Martin del Campo,
   D. Mejia-Rodriguez, J. E. Moore, J. M. Mullin, T. Nakajima, D. R. Nascimento,
    J. A. Nichols, P. J. Nichols, J. Nieplocha, A. Otero-de-la-Roza, B. Palmer,
    A. Panyala, T. Pirojsirikul, B. Peng, R. Peverati, J. Pittner, L. Pollack,
   R. M. Richard, P. Sadayappan, G. C. Schatz, W. A. Shelton, D. W. Silverstein,
   D. M. A. Smith, T. A. Soares, D. Song, M. Swart, H. L. Taylor, G. S. Thomas,
            V. Tipparaju, D. G. Truhlar, K. Tsemekhman, T. Van Voorhis,
      A. Vazquez-Mayagoitia, P. Verma, O. Villa, A. Vishnu, K. D. Vogiatzis,
        D. Wang, J. H. Weare, M. J. Williamson, T. L. Windus, K. Wolinski,
        A. T. Wong, Q. Wu, C. Yang, Q. Yu, M. Zacharias, Z. Zhang, Y. Zhao,
                                and R. J. Harrison
                        "NWChem: Past, present, and future
                         J. Chem. Phys. 152, 184102 (2020)
                               doi:10.1063/5.0004997
 
                                      AUTHORS
                                      -------
        E. Apra, E. J. Bylaska, N. Govind, K. Kowalski, D. Mejia-Rodriguez,
        N. P. Bauman, A. Panyala, R. J. Harrison, M. Valiev, W. A. de Jong,
       T. P. Straatsma, H. J. J. van Dam, D. Wang, T. L. Windus, J. Hammond,
     J. Autschbach, R. de P. Soares, A. Kunitsa, K. Bhaskaran-Nair, J. Brabec,
      K. Lopata, S. A. Fischer, S. Krishnamoorthy, M. Jacquelin, R. Goswami,
       A. Woods, W. Ma, M. Klemm, O. Villa, Y. Chen, V. Anisimov, F. Aquino,
     S. Hirata, M. T. Hackler, E. Hermes, L. Jensen, J. E. Moore, J. C. Becca,
      V. Konjkov, T. Risthaus, M. Malagoli, A. Marenich, A. Otero-de-la-Roza,
        J. Mullin, P. Nichols, R. Peverati, J. Pittner, Y. Zhao, P.-D. Fan,
        A. Fonari, M. J. Williamson, J. R. Rehr, M. Dupuis, D. Silverstein,
    D. M. A. Smith, J. Nieplocha, V. Tipparaju, M. Krishnan, B. E. Van Kuiken,
        A. Vazquez-Mayagoitia, M. Swart, Q. Wu, T. Van Voorhis, A. A. Auer,
     M. Nooijen, L. D. Crosby, E. Brown, G. Cisneros, G. I. Fann, H. Fruchtl,
   J. Garza, K. Hirao, R. A. Kendall, J. A. Nichols, K. Tsemekhman, K. Wolinski,
     J. Anchell, D. E. Bernholdt, P. Borowski, T. Clark, D. Clerc, H. Dachsel,
   M. J. O. Deegan, K. Dyall, D. Elwood, E. Glendening, M. Gutowski, A. C. Hess,
         J. Jaffe, B. G. Johnson, J. Ju, R. Kobayashi, R. Kutteh, Z. Lin,
   R. Littlefield, X. Long, B. Meng, T. Nakajima, S. Niu, L. Pollack, M. Rosing,
   K. Glaesemann, G. Sandrone, M. Stave, H. Taylor, G. Thomas, J. H. van Lenthe,
                               A. T. Wong, Z. Zhang.

 Total times  cpu:       45.3s     wall:       45.3s
