All connections between all procs tested: SUCCESS
 argument  1 = h2o2-prop-notrans.nw



============================== echo of input deck ==============================
echo

start h2o2-prop-notrans
title h2o2-prop-notrans

geometry units angstrom nocenter
symmetry c1
  O     -1.917190     -0.120353     -0.010972
  O     -0.426534     -0.047349      0.013490
  H     -0.255812     -0.659080      0.763619
  H     -2.118984      0.784440      0.315334
end

basis
  * library 6-31G**
end

dft
direct
xc xcamb88 1.00 lyp 0.81 vwn_5 0.19 hfexch 1.00
cam 0.33 cam_alpha 0.19 cam_beta 0.46
iterations 100
tolerances tight
end

cosmo
 dielec 78
end

property
 aoresponse  1  0.077318
 convergence 1e-7
 orbeta
 giao
end

set prop:newaoresp 1

set cphf:thresh 1e-6
set cphf:acc 1.0d-10

task dft property
================================================================================


                                         
                                         


              Northwest Computational Chemistry Package (NWChem) 6.3
              ------------------------------------------------------


                    Environmental Molecular Sciences Laboratory
                       Pacific Northwest National Laboratory
                                Richland, WA 99352

                              Copyright (c) 1994-2013
                       Pacific Northwest National Laboratory
                            Battelle Memorial Institute

             NWChem is an open-source computational chemistry package
                        distributed under the terms of the
                      Educational Community License (ECL) 2.0
             A copy of the license is included with this distribution
                              in the LICENSE.TXT file

                                  ACKNOWLEDGMENT
                                  --------------

            This software and its documentation were developed at the
            EMSL at Pacific Northwest National Laboratory, a multiprogram
            national laboratory, operated for the U.S. Department of Energy
            by Battelle under Contract Number DE-AC05-76RL01830. Support
            for this work was provided by the Department of Energy Office
            of Biological and Environmental Research, Office of Basic
            Energy Sciences, and the Office of Advanced Scientific Computing.


           Job information
           ---------------

    hostname        = arcen
    program         = /home/d3y133/nwchem-dev/nwchem-dev-2014-02-17/QA/../bin/LINUX64/nwchem
    date            = Thu Feb 20 01:03:45 2014

    compiled        = Wed_Feb_19_15:48:41_2014
    source          = /home/d3y133/nwchem-dev/nwchem-dev-2014-02-17
    nwchem branch   = Development
    nwchem revision = 25266
    ga revision     = 10475
    input           = h2o2-prop-notrans.nw
    prefix          = h2o2-prop-notrans.
    data base       = /home/d3y133/nwchem-dev/nwchem-dev-2014-02-17/QA/scratchdir/h2o2-prop-notrans.db
    status          = startup
    nproc           =        1
    time left       =     -1s



           Memory information
           ------------------

    heap     =   13107201 doubles =    100.0 Mbytes
    stack    =   13107201 doubles =    100.0 Mbytes
    global   =   26214400 doubles =    200.0 Mbytes (distinct from heap & stack)
    total    =   52428802 doubles =    400.0 Mbytes
    verify   = yes
    hardfail = no 


           Directory information
           ---------------------

  0 permanent = /home/d3y133/nwchem-dev/nwchem-dev-2014-02-17/QA/scratchdir
  0 scratch   = /home/d3y133/nwchem-dev/nwchem-dev-2014-02-17/QA/scratchdir




                                NWChem Input Module
                                -------------------


                                 h2o2-prop-notrans
                                 -----------------

 Scaling coordinates for geometry "geometry" by  1.889725989
 (inverse scale =  0.529177249)

 Turning off AUTOSYM since
 SYMMETRY directive was detected!


          ------
          auto-z
          ------


                             Geometry "geometry" -> ""
                             -------------------------

 Output coordinates in angstroms (scale by  1.889725989 to convert to a.u.)

  No.       Tag          Charge          X              Y              Z
 ---- ---------------- ---------- -------------- -------------- --------------
    1 O                    8.0000    -1.91719000    -0.12035300    -0.01097200
    2 O                    8.0000    -0.42653400    -0.04734900     0.01349000
    3 H                    1.0000    -0.25581200    -0.65908000     0.76361900
    4 H                    1.0000    -2.11898400     0.78444000     0.31533400

      Atomic Mass 
      ----------- 

      O                 15.994910
      H                  1.007825


 Effective nuclear repulsion energy (a.u.)      35.9572715284

            Nuclear Dipole moment (a.u.) 
            ----------------------------
        X                 Y               Z
 ---------------- ---------------- ----------------
   -39.9196829416    -2.2983905720     2.0769921649



                                Z-matrix (autoz)
                                -------- 

 Units are Angstrom for bonds and degrees for angles

      Type          Name      I     J     K     L     M      Value
      ----------- --------  ----- ----- ----- ----- ----- ----------
    1 Stretch                  1     2                       1.49264
    2 Stretch                  1     4                       0.98277
    3 Stretch                  2     3                       0.98288
    4 Bend                     1     2     3                98.94762
    5 Bend                     2     1     4                98.89289
    6 Torsion                  3     2     1     4         109.83925


            XYZ format geometry
            -------------------
     4
 geometry
 O                    -1.91719000    -0.12035300    -0.01097200
 O                    -0.42653400    -0.04734900     0.01349000
 H                    -0.25581200    -0.65908000     0.76361900
 H                    -2.11898400     0.78444000     0.31533400

 ==============================================================================
                                internuclear distances
 ------------------------------------------------------------------------------
       center one      |      center two      | atomic units |  angstroms
 ------------------------------------------------------------------------------
    3 H                |   2 O                |     1.85738  |     0.98288
    4 H                |   1 O                |     1.85718  |     0.98278
 ------------------------------------------------------------------------------
                         number of included internuclear distances:          2
 ==============================================================================



  library name resolved from: environment
  library file name is: </home/d3y133/nwchem-dev/nwchem-dev-2014-02-17/QA/../src/basis/libraries/>
  


 Summary of "ao basis" -> "" (cartesian)
 ------------------------------------------------------------------------------
       Tag                 Description            Shells   Functions and Types
 ---------------- ------------------------------  ------  ---------------------
 *                          6-31G**                   on all atoms 


                              NWChem Property Module
                              ----------------------


                                 h2o2-prop-notrans


                                 NWChem DFT Module
                                 -----------------


                                 h2o2-prop-notrans


                      Basis "ao basis" -> "ao basis" (cartesian)
                      -----
  O (Oxygen)
  ----------
            Exponent  Coefficients 
       -------------- ---------------------------------------------------------
  1 S  5.48467170E+03  0.001831
  1 S  8.25234950E+02  0.013950
  1 S  1.88046960E+02  0.068445
  1 S  5.29645000E+01  0.232714
  1 S  1.68975700E+01  0.470193
  1 S  5.79963530E+00  0.358521

  2 S  1.55396160E+01 -0.110778
  2 S  3.59993360E+00 -0.148026
  2 S  1.01376180E+00  1.130767

  3 P  1.55396160E+01  0.070874
  3 P  3.59993360E+00  0.339753
  3 P  1.01376180E+00  0.727159

  4 S  2.70005800E-01  1.000000

  5 P  2.70005800E-01  1.000000

  6 D  8.00000000E-01  1.000000

  H (Hydrogen)
  ------------
            Exponent  Coefficients 
       -------------- ---------------------------------------------------------
  1 S  1.87311370E+01  0.033495
  1 S  2.82539370E+00  0.234727
  1 S  6.40121700E-01  0.813757

  2 S  1.61277800E-01  1.000000

  3 P  1.10000000E+00  1.000000



 Summary of "ao basis" -> "ao basis" (cartesian)
 ------------------------------------------------------------------------------
       Tag                 Description            Shells   Functions and Types
 ---------------- ------------------------------  ------  ---------------------
 O                          6-31G**                  6       15   3s2p1d
 H                          6-31G**                  3        5   2s1p




 Summary of "ao basis" -> "ao basis" (cartesian)
 ------------------------------------------------------------------------------
       Tag                 Description            Shells   Functions and Types
 ---------------- ------------------------------  ------  ---------------------
 O                          6-31G**                  6       15   3s2p1d
 H                          6-31G**                  3        5   2s1p



          ---------------
          -cosmo- solvent
          ---------------
 dielectric constant -eps-     =  78.00
 charge screening approach     =   2
 screen = (eps-1)/(eps    )    =   0.98718
 -lineq- algorithm             =   1
 -bem- low  level              =   2
 -bem- high level              =   2
 -bem- from -octahedral-
 solvent radius (ang.)         =   0.000
 gaussian surface charge width =   0.98000
 degree of switching           =   1.00000
 switching function tolerance  =   0.00010
 atomic radii = 
 --------------
    1  8.000  1.720
    2  8.000  1.720
    3  1.000  1.300
    4  1.000  1.300

 solvent accessible surface
 --------------------------

 ---------- ATOMIC COORDINATES (A.U.) ------------ VDWR(ANG.) --
     1   -3.62296377   -0.22743419   -0.02073407     1.720
     2   -0.80603238   -0.08947664    0.02549240     1.720
     3   -0.48341458   -1.24548060    1.44303067     1.300
     4   -4.00429913    1.48237665    0.59589485     1.300
 number of segments per atom =         32
 number of   points per atom =         32
 atom (   nspa,  nppa )
 ----------------------
    1 (     21,     0 )       0
    2 (     21,     0 )       0
    3 (     16,     0 )       0
    4 (     17,     0 )       0
 number of -cosmo- surface points =       75
 molecular surface =     61.404 angstrom**2
 molecular volume  =     32.789 angstrom**3
 G(cav/disp)       =      1.167 kcal/mol
 ...... end of -cosmo- initialization ......


  int_init: cando_txs set to always be  F
  Caching 1-el integrals 

            General Information
            -------------------
          SCF calculation type: DFT
          Wavefunction type:  closed shell.
          No. of atoms     :     4
          No. of electrons :    18
           Alpha electrons :     9
            Beta electrons :     9
          Charge           :     0
          Spin multiplicity:     1
          Use of symmetry is: off; symmetry adaption is: off
          Maximum number of iterations: 100
          This is a Direct SCF calculation.
          AO basis - number of functions:    40
                     number of shells:    18
          Convergence on energy requested: 1.00D-06
          Convergence on density requested: 1.00D-05
          Convergence on gradient requested: 5.00D-04

              XC Information
              --------------
                     Hartree-Fock (Exact) Exchange  1.000          
                   CAM-Becke88 Exchange Functional  1.000          
                      VWN V Correlation Functional  0.190 local    
              Lee-Yang-Parr Correlation Functional  0.810          

           Range-Separation Parameters        
           ---------------------------
           Alpha           :  0.19
           Beta            :  0.46
           Gamma           :  0.33
           Short-Range HF  :     F

             Grid Information
             ----------------
          Grid used for XC integration:  medium    
          Radial quadrature: Mura-Knowles        
          Angular quadrature: Lebedev. 
          Tag              B.-S. Rad. Rad. Pts. Rad. Cut. Ang. Pts.
          ---              ---------- --------- --------- ---------
          O                   0.60       49           7.0       434
          H                   0.35       45           7.0       434
          Grid pruning is: on 
          Number of quadrature shells:   188
          Spatial weights used:  Erf1

          Convergence Information
          -----------------------
          Convergence aids based upon iterative change in 
          total energy or number of iterations. 
          Levelshifting, if invoked, occurs when the 
          HOMO/LUMO gap drops below (HL_TOL): 1.00D-02
          DIIS, if invoked, will attempt to extrapolate 
          using up to (NFOCK): 10 stored Fock matrices.

                    Damping( 0%)  Levelshifting(0.5)       DIIS
                  --------------- ------------------- ---------------
          dE  on:    start            ASAP                start   
          dE off:    2 iters        100 iters           100 iters 


      Screening Tolerance Information
      -------------------------------
          Density screening/tol_rho: 1.00D-10
          AO Gaussian exp screening on grid/accAOfunc:  14
          CD Gaussian exp screening on grid/accCDfunc:  20
          XC Gaussian exp screening on grid/accXCfunc:  20
          Schwarz screening/accCoul: 1.00D-08


      Superposition of Atomic Density Guess
      -------------------------------------

 Sum of atomic energies:        -150.50516954

      Non-variational initial energy
      ------------------------------

 Total energy =    -150.594795
 1-e energy   =    -278.464274
 2-e energy   =      91.912208
 HOMO         =      -0.358501
 LUMO         =      -0.027548

   Time after variat. SCF:      0.1
   Time prior to 1st pass:      0.1

 Grid_pts file          = /home/d3y133/nwchem-dev/nwchem-dev-2014-02-17/QA/scratchdir/h2o2-prop-notrans.gridpts.0
 Record size in doubles =  12289        No. of grid_pts per rec  =   3070
 Max. records in memory =     31        Max. recs in file   =     63267


           Memory utilization after 1st SCF pass: 
           Heap Space remaining (MW):       12.73            12725337
          Stack Space remaining (MW):       13.11            13106867

   convergence    iter        energy       DeltaE   RMS-Dens  Diis-err    time
 ---------------- ----- ----------------- --------- --------- ---------  ------
     COSMO gas phase
 d= 0,ls=0.0,diis     1   -151.4629849796 -1.87D+02  1.14D-02  3.09D-01     1.2
 d= 0,ls=0.0,diis     2   -151.4887296848 -2.57D-02  1.52D-03  1.46D-02     2.3
 d= 0,ls=0.0,diis     3   -151.4900014620 -1.27D-03  3.82D-04  3.93D-04     3.4
 d= 0,ls=0.0,diis     4   -151.4900384967 -3.70D-05  9.94D-05  6.18D-05     4.4
 d= 0,ls=0.0,diis     5   -151.4900438381 -5.34D-06  3.14D-05  2.53D-06     5.5
 d= 0,ls=0.0,diis     6   -151.4900441618 -3.24D-07  7.76D-06  9.37D-08     6.5

           Memory utilization after 1st SCF pass: 
           Heap Space remaining (MW):       12.73            12725022
          Stack Space remaining (MW):       13.11            13106867

   convergence    iter        energy       DeltaE   RMS-Dens  Diis-err    time
 ---------------- ----- ----------------- --------- --------- ---------  ------
     COSMO solvation phase
 d= 0,ls=0.0,diis     1   -151.5015422343 -1.15D-02  2.67D-03  5.99D-03     9.7
 d= 0,ls=0.0,diis     2   -151.5028466541 -1.30D-03  6.03D-04  1.15D-03    11.8
 d= 0,ls=0.0,diis     3   -151.5029510198 -1.04D-04  2.96D-04  2.17D-04    13.9
 d= 0,ls=0.0,diis     4   -151.5029773816 -2.64D-05  8.46D-05  1.02D-05    15.9
 d= 0,ls=0.0,diis     5   -151.5029788449 -1.46D-06  1.83D-05  7.17D-08    17.8
 d= 0,ls=0.0,diis     6   -151.5029788794 -3.45D-08  3.50D-06  4.03D-09    19.5


         Total DFT energy =     -151.502978879440
      One electron energy =     -280.053810466284
           Coulomb energy =      110.254410137845
    Exchange-Corr. energy =      -17.776189126880
 Nuclear repulsion energy =       35.957271528420

 Numeric. integr. density =       18.000000057668

     Total iterative time =     19.4s


                  COSMO solvation results
                  -----------------------
  
                 gas phase energy =      -151.4900441618
                 sol phase energy =      -151.5029788794
 (electrostatic) solvation energy =         0.0129347177 (    8.12 kcal/mol)

                       DFT Final Molecular Orbital Analysis
                       ------------------------------------

 Vector    1  Occ=2.000000D+00  E=-1.927951D+01
              MO Center= -1.9D+00, -1.2D-01, -9.9D-03, r^2= 1.1D-01
   Bfn.  Coefficient  Atom+Function         Bfn.  Coefficient  Atom+Function  
  ----- ------------  ---------------      ----- ------------  ---------------
     1      0.970868  1 O  s                 16      0.208401  2 O  s          

 Vector    2  Occ=2.000000D+00  E=-1.927936D+01
              MO Center= -4.9D-01, -5.1D-02,  1.2D-02, r^2= 1.1D-01
   Bfn.  Coefficient  Atom+Function         Bfn.  Coefficient  Atom+Function  
  ----- ------------  ---------------      ----- ------------  ---------------
    16      0.970870  2 O  s                  1     -0.208413  1 O  s          

 Vector    3  Occ=2.000000D+00  E=-1.175817D+00
              MO Center= -1.2D+00, -6.2D-02,  8.1D-02, r^2= 8.3D-01
   Bfn.  Coefficient  Atom+Function         Bfn.  Coefficient  Atom+Function  
  ----- ------------  ---------------      ----- ------------  ---------------
     2      0.334755  1 O  s                 17      0.334545  2 O  s          
     6      0.287866  1 O  s                 21      0.287374  2 O  s          
     1     -0.150157  1 O  s                 16     -0.150032  2 O  s          

 Vector    4  Occ=2.000000D+00  E=-9.705029D-01
              MO Center= -1.2D+00, -5.0D-02,  1.3D-01, r^2= 1.3D+00
   Bfn.  Coefficient  Atom+Function         Bfn.  Coefficient  Atom+Function  
  ----- ------------  ---------------      ----- ------------  ---------------
     6      0.374231  1 O  s                 21     -0.374384  2 O  s          
     2      0.349225  1 O  s                 17     -0.349473  2 O  s          
     1     -0.154245  1 O  s                 16      0.154347  2 O  s          

 Vector    5  Occ=2.000000D+00  E=-5.804556D-01
              MO Center= -1.2D+00, -5.7D-02,  9.9D-02, r^2= 1.2D+00
   Bfn.  Coefficient  Atom+Function         Bfn.  Coefficient  Atom+Function  
  ----- ------------  ---------------      ----- ------------  ---------------
     3      0.301635  1 O  px                18     -0.287771  2 O  px         
    20     -0.282766  2 O  pz                 4     -0.215643  1 O  py         
     5     -0.182190  1 O  pz                31     -0.175274  3 H  s          
    36     -0.175014  4 H  s                  7      0.161977  1 O  px         
    24     -0.156919  2 O  pz                22     -0.154070  2 O  px         

 Vector    6  Occ=2.000000D+00  E=-5.519175D-01
              MO Center= -1.2D+00, -7.2D-02,  4.7D-02, r^2= 1.3D+00
   Bfn.  Coefficient  Atom+Function         Bfn.  Coefficient  Atom+Function  
  ----- ------------  ---------------      ----- ------------  ---------------
     4      0.381496  1 O  py                19      0.329844  2 O  py         
     6     -0.246381  1 O  s                 21      0.246040  2 O  s          
     8      0.224283  1 O  py                23      0.200175  2 O  py         
    20     -0.189299  2 O  pz                31     -0.150255  3 H  s          
    36      0.150768  4 H  s          

 Vector    7  Occ=2.000000D+00  E=-4.826236D-01
              MO Center= -1.2D+00, -1.1D-01, -8.4D-02, r^2= 1.3D+00
   Bfn.  Coefficient  Atom+Function         Bfn.  Coefficient  Atom+Function  
  ----- ------------  ---------------      ----- ------------  ---------------
    18     -0.332432  2 O  px                 3      0.315923  1 O  px         
    20      0.282302  2 O  pz                 5      0.277158  1 O  pz         
    22     -0.208390  2 O  px                 6     -0.199052  1 O  s          
    21     -0.198673  2 O  s                  7      0.196787  1 O  px         
     9      0.193411  1 O  pz                24      0.194270  2 O  pz         

 Vector    8  Occ=2.000000D+00  E=-3.834741D-01
              MO Center= -1.2D+00, -6.5D-02,  7.2D-02, r^2= 1.2D+00
   Bfn.  Coefficient  Atom+Function         Bfn.  Coefficient  Atom+Function  
  ----- ------------  ---------------      ----- ------------  ---------------
    19      0.447992  2 O  py                 4     -0.345945  1 O  py         
    23      0.315737  2 O  py                 5      0.296209  1 O  pz         
     8     -0.236012  1 O  py                 9      0.223133  1 O  pz         

 Vector    9  Occ=2.000000D+00  E=-3.528385D-01
              MO Center= -1.2D+00, -9.2D-02, -3.0D-02, r^2= 1.2D+00
   Bfn.  Coefficient  Atom+Function         Bfn.  Coefficient  Atom+Function  
  ----- ------------  ---------------      ----- ------------  ---------------
     5      0.480816  1 O  pz                20     -0.403499  2 O  pz         
     9      0.351614  1 O  pz                24     -0.286504  2 O  pz         
    19     -0.266815  2 O  py                23     -0.208965  2 O  py         

 Vector   10  Occ=0.000000D+00  E= 6.634517D-02
              MO Center= -1.2D+00, -6.4D-02,  7.5D-02, r^2= 1.5D+00
   Bfn.  Coefficient  Atom+Function         Bfn.  Coefficient  Atom+Function  
  ----- ------------  ---------------      ----- ------------  ---------------
    22      0.532349  2 O  px                 6      0.527265  1 O  s          
     7      0.529364  1 O  px                21     -0.528242  2 O  s          
     3      0.484833  1 O  px                18      0.486334  2 O  px         
    32      0.301152  3 H  s                 37     -0.299609  4 H  s          
     2      0.162539  1 O  s                 17     -0.162728  2 O  s          

 Vector   11  Occ=0.000000D+00  E= 1.399757D-01
              MO Center= -1.2D+00,  9.1D-02,  6.5D-01, r^2= 3.3D+00
   Bfn.  Coefficient  Atom+Function         Bfn.  Coefficient  Atom+Function  
  ----- ------------  ---------------      ----- ------------  ---------------
    32      1.027446  3 H  s                 37      1.025379  4 H  s          
     6     -0.668224  1 O  s                 21     -0.669196  2 O  s          
     8     -0.359848  1 O  py                24     -0.304848  2 O  pz         
    23      0.240378  2 O  py                 4     -0.191298  1 O  py         
    20     -0.167072  2 O  pz         

 Vector   12  Occ=0.000000D+00  E= 1.875584D-01
              MO Center= -1.2D+00,  7.6D-02,  5.8D-01, r^2= 3.2D+00
   Bfn.  Coefficient  Atom+Function         Bfn.  Coefficient  Atom+Function  
  ----- ------------  ---------------      ----- ------------  ---------------
    32      1.069550  3 H  s                 37     -1.072139  4 H  s          
     6      0.499472  1 O  s                 21     -0.497586  2 O  s          
     8      0.372868  1 O  py                24     -0.315053  2 O  pz         
     7     -0.270554  1 O  px                22     -0.257492  2 O  px         
    23      0.251003  2 O  py                 4      0.221755  1 O  py         

 Vector   13  Occ=0.000000D+00  E= 8.110816D-01
              MO Center= -1.2D+00, -1.1D-02,  2.8D-01, r^2= 2.3D+00
   Bfn.  Coefficient  Atom+Function         Bfn.  Coefficient  Atom+Function  
  ----- ------------  ---------------      ----- ------------  ---------------
    31      0.550580  3 H  s                 32     -0.552765  3 H  s          
    36      0.546437  4 H  s                 37     -0.548427  4 H  s          
     4     -0.442270  1 O  py                 8      0.352306  1 O  py         
    19      0.331451  2 O  py                20     -0.307088  2 O  pz         
    23     -0.271674  2 O  py                29     -0.233575  2 O  dyz        

 Vector   14  Occ=0.000000D+00  E= 8.286804D-01
              MO Center= -1.2D+00, -2.0D-02,  2.3D-01, r^2= 2.6D+00
   Bfn.  Coefficient  Atom+Function         Bfn.  Coefficient  Atom+Function  
  ----- ------------  ---------------      ----- ------------  ---------------
    22      0.703739  2 O  px                 7      0.694765  1 O  px         
    32      0.568996  3 H  s                 37     -0.571019  4 H  s          
    31     -0.552203  3 H  s                 36      0.554144  4 H  s          
    21     -0.468965  2 O  s                  6      0.466259  1 O  s          
    18     -0.346128  2 O  px                 3     -0.332913  1 O  px         

 Vector   15  Occ=0.000000D+00  E= 8.746347D-01
              MO Center= -1.2D+00, -4.8D-02,  1.2D-01, r^2= 2.2D+00
   Bfn.  Coefficient  Atom+Function         Bfn.  Coefficient  Atom+Function  
  ----- ------------  ---------------      ----- ------------  ---------------
    21     -0.592593  2 O  s                  6      0.568308  1 O  s          
     7     -0.503475  1 O  px                22     -0.498543  2 O  px         
    17      0.450550  2 O  s                  2     -0.436060  1 O  s          
    23     -0.402448  2 O  py                32      0.395778  3 H  s          
    19      0.391473  2 O  py                37     -0.389231  4 H  s          

 Vector   16  Occ=0.000000D+00  E= 8.845479D-01
              MO Center= -1.2D+00, -1.7D-01, -2.9D-01, r^2= 1.7D+00
   Bfn.  Coefficient  Atom+Function         Bfn.  Coefficient  Atom+Function  
  ----- ------------  ---------------      ----- ------------  ---------------
     6      0.835442  1 O  s                 21      0.811422  2 O  s          
     5      0.527236  1 O  pz                24     -0.497923  2 O  pz         
     9     -0.493778  1 O  pz                 2     -0.486414  1 O  s          
    20      0.476535  2 O  pz                17     -0.469728  2 O  s          
    37     -0.319965  4 H  s                 36      0.316159  4 H  s          

 Vector   17  Occ=0.000000D+00  E= 9.744782D-01
              MO Center= -1.2D+00, -5.1D-02,  1.2D-01, r^2= 2.0D+00
   Bfn.  Coefficient  Atom+Function         Bfn.  Coefficient  Atom+Function  
  ----- ------------  ---------------      ----- ------------  ---------------
    23      0.660357  2 O  py                21      0.605319  2 O  s          
     6      0.598735  1 O  s                  8     -0.568953  1 O  py         
    19     -0.398562  2 O  py                17     -0.372808  2 O  s          
     2     -0.369230  1 O  s                  9      0.347526  1 O  pz         
    22     -0.346792  2 O  px                 7      0.338863  1 O  px         

 Vector   18  Occ=0.000000D+00  E= 1.009235D+00
              MO Center= -1.2D+00, -9.1D-02, -2.0D-02, r^2= 2.4D+00
   Bfn.  Coefficient  Atom+Function         Bfn.  Coefficient  Atom+Function  
  ----- ------------  ---------------      ----- ------------  ---------------
     9      0.693911  1 O  pz                32     -0.595586  3 H  s          
    37      0.590843  4 H  s                 23     -0.538655  2 O  py         
    21      0.519458  2 O  s                  6     -0.510277  1 O  s          
     5     -0.502332  1 O  pz                19      0.462392  2 O  py         
    24     -0.462113  2 O  pz                22      0.433291  2 O  px         

 Vector   19  Occ=0.000000D+00  E= 1.038889D+00
              MO Center= -1.2D+00, -3.2D-02,  1.9D-01, r^2= 2.6D+00
   Bfn.  Coefficient  Atom+Function         Bfn.  Coefficient  Atom+Function  
  ----- ------------  ---------------      ----- ------------  ---------------
     6      1.176456  1 O  s                 21      1.172219  2 O  s          
    37     -0.623522  4 H  s                  7     -0.620177  1 O  px         
    32     -0.616847  3 H  s                 22      0.598043  2 O  px         
     3      0.523770  1 O  px                18     -0.508950  2 O  px         
     2     -0.499877  1 O  s                 17     -0.497469  2 O  s          


 center of mass
 --------------
 x =  -2.21623830 y =  -0.14204216 z =   0.06266607

 moments of inertia (a.u.)
 ------------------
           6.387547374161           1.747281041067          -2.487786111268
           1.747281041067          72.049305789041           0.579445044105
          -2.487786111268           0.579445044105          73.756390994034

     Multipole analysis of the density
     ---------------------------------

     L   x y z        total         alpha         beta         nuclear
     -   - - -        -----         -----         ----         -------
     0   0 0 0      0.000000     -9.000000     -9.000000     18.000000

     1   1 0 0     -0.025260     19.947211     19.947211    -39.919683
     1   0 1 0      0.242975      1.270683      1.270683     -2.298391
     1   0 0 1      0.891708     -0.592642     -0.592642      2.076992

     2   2 0 0     -7.863557    -67.168048    -67.168048    126.472539
     2   1 1 0     -2.879149     -2.357104     -2.357104      1.835059
     2   1 0 1     -1.330774      0.658190      0.658190     -2.647155
     2   0 2 0     -7.265530     -5.746026     -5.746026      4.226522
     2   0 1 1     -0.467604      0.213423      0.213423     -0.894449
     2   0 0 2     -8.025307     -5.235687     -5.235687      2.446066

 Entering AOResponse driver routine


--------------------------------------------------------------------------------

          ****************
          *** RESPONSE ***
          ****************

 Response module for NWChem and dynamic CPKS solver
 developed by J. Autschbach and coworkers, SUNY Buffalo
 The methodology used in this program is described in 
 J. Chem. Phys. 123 (2005), 114103
 J. Chem. Phys. 122 (2005), 224115
 J. Chem. Phys. 122 (2005), 074105
 Comp. Lett. 3 (2007), 131-150 (contact JA for a copy)
 Please cite this work in publications based on results
 obtained with this code. Thank you!
 For updated response module please acknowledge:
 F. Aquino, Northwestern University, Schatz Rsrch Group
 (version June 9th,2012)
 ++++++++++++++++++++++++++++++++++++++++++++++++++++++
 *** NOTE: enabled ORBETA because of GIAO keyword ***
 Computing some B-field data ...

          ------------------------------------------------------
          Calculating magnetic field perturbed MO vectors (GIAO)
          ------------------------------------------------------

  int_init: cando_txs set to always be  F
giao_b1_mov: nocc =(  9,  0) nopen=(  0,  1) nclos=(  9,***) nvirt=( 31, 40) scftyp=RHF ntot=279

 dft_CPHF_read:Read aoresponse g_rhs data from /home/d3y133/nwchem-dev/nwchem-dev-2014-02-17/QA/scratchdir/h2o2-prop-notrans.aoresp_giao_b1

 dft_CPHF_read: failed to open/home/d3y133/nwchem-dev/nwchem-dev-2014-02-17/QA/scratchdir/h2o2-prop-notrans.aoresp_giao_b1
                                NWChem CPHF Module
                                ------------------



          ---------------
          -cosmo- solvent
          ---------------
 dielectric constant -eps-     =  78.00
 charge screening approach     =   2
 screen = (eps-1)/(eps    )    =   0.98718
 -lineq- algorithm             =   1
 -bem- low  level              =   2
 -bem- high level              =   2
 -bem- from -octahedral-
 solvent radius (ang.)         =   0.000
 gaussian surface charge width =   0.98000
 degree of switching           =   1.00000
 switching function tolerance  =   0.00010
 atomic radii = 
 --------------
    1  8.000  1.720
    2  8.000  1.720
    3  1.000  1.300
    4  1.000  1.300

 solvent accessible surface
 --------------------------

 ---------- ATOMIC COORDINATES (A.U.) ------------ VDWR(ANG.) --
     1   -3.62296377   -0.22743419   -0.02073407     1.720
     2   -0.80603238   -0.08947664    0.02549240     1.720
     3   -0.48341458   -1.24548060    1.44303067     1.300
     4   -4.00429913    1.48237665    0.59589485     1.300
 number of segments per atom =         32
 number of   points per atom =         32
 atom (   nspa,  nppa )
 ----------------------
    1 (     21,     0 )       0
    2 (     21,     0 )       0
    3 (     16,     0 )       0
    4 (     17,     0 )       0
 number of -cosmo- surface points =       75
 molecular surface =     61.404 angstrom**2
 molecular volume  =     32.789 angstrom**3
 G(cav/disp)       =      1.167 kcal/mol
 ...... end of -cosmo- initialization ......


  int_init: cando_txs set to always be  F
  scftype          =     RHF 
  nclosed          =        9
  nopen            =        0
  variables        =      279
  # of vectors     =        3
  tolerance        = 0.10D-05
  level shift      = 0.00D+00
  max iterations   =       50
  max subspace     =       30

 SCF residual:   8.571771023245400E-005


Iterative solution of linear equations
  No. of variables      279
  No. of equations        3
  Maximum subspace       30
        Iterations       50
       Convergence  1.0D-06
        Start time     27.9


   iter   nsub   residual    time
   ----  ------  --------  ---------
     1      3    6.94D-01      29.9
     2      6    1.47D-01      32.0
     3      9    3.99D-02      34.0
     4     12    4.40D-03      36.1
     5     15    4.73D-04      38.1
     6     18    4.28D-05      40.2
     7     21    3.35D-06      42.2
     8     24    2.56D-07      44.3

 dft_CPHF_write: Wrote aoresponse g_rhs data to /home/d3y133/nwchem-dev/nwchem-dev-2014-02-17/QA/scratchdir/h2o2-prop-notrans.aoresp_giao_b1


          -----------------------------------------------
          Solving response equations for perturbing field
          -----------------------------------------------

 number of frequencies:     1
 frequency in a.u.:  0.7731800E-01
 Perturbing field: electric
 Using GIAO formalism
 *** WARNING, GIAO FUNCTIONALITY NOT WELL TESTED ***
 Using Dipole Length Gauge

 Setting up CPKS with frequency omega =      0.07731800 a.u.

  int_init: cando_txs set to always be  F

                            NWChem Dynamic CPHF Module
                            --------------------------



          ---------------
          -cosmo- solvent
          ---------------
 dielectric constant -eps-     =  78.00
 charge screening approach     =   2
 screen = (eps-1)/(eps    )    =   0.98718
 -lineq- algorithm             =   1
 -bem- low  level              =   2
 -bem- high level              =   2
 -bem- from -octahedral-
 solvent radius (ang.)         =   0.000
 gaussian surface charge width =   0.98000
 degree of switching           =   1.00000
 switching function tolerance  =   0.00010
 atomic radii = 
 --------------
    1  8.000  1.720
    2  8.000  1.720
    3  1.000  1.300
    4  1.000  1.300

 solvent accessible surface
 --------------------------

 ---------- ATOMIC COORDINATES (A.U.) ------------ VDWR(ANG.) --
     1   -3.62296377   -0.22743419   -0.02073407     1.720
     2   -0.80603238   -0.08947664    0.02549240     1.720
     3   -0.48341458   -1.24548060    1.44303067     1.300
     4   -4.00429913    1.48237665    0.59589485     1.300
 number of segments per atom =         32
 number of   points per atom =         32
 atom (   nspa,  nppa )
 ----------------------
    1 (     21,     0 )       0
    2 (     21,     0 )       0
    3 (     16,     0 )       0
    4 (     17,     0 )       0
 number of -cosmo- surface points =       75
 molecular surface =     61.404 angstrom**2
 molecular volume  =     32.789 angstrom**3
 G(cav/disp)       =      1.167 kcal/mol
 ...... end of -cosmo- initialization ......


  int_init: cando_txs set to always be  F
    scftype = RHF 
    nclosed =    9
      nopen =    0
  variables =      558
  num. vecs =        3
  tolerance =   1.0D-06
  max. iter =   50

 SCF residual:   8.571771023245400E-005


Iterative solution of linear equations
  No. of variables      558
  No. of equations        3
  Maximum subspace       30
       Convergence  1.0D-06
        Start time     47.4


   iter   nsub   residual    time 
   ----  ------  --------  --------- 
     1      3    2.69D+00      51.5

 global array: lkain_2cpl: Y[1:558,1:30],  handle: -981 

            1           2           3           4           5           6  
       ----------- ----------- ----------- ----------- ----------- -----------
   1      -0.00261    -0.00036    -0.00008     0.00000     0.00000     0.00000
   2      -0.00022     0.00074     0.00051     0.00000     0.00000     0.00000
   3       0.00115    -0.00112    -0.00014     0.00000     0.00000     0.00000
   4       0.00012     0.00128     0.00057     0.00000     0.00000     0.00000
   5       0.00131     0.00100     0.00047     0.00000     0.00000     0.00000
   6      -0.00118    -0.00126     0.00078     0.00000     0.00000     0.00000
   7      -0.00004    -0.00028    -0.00204     0.00000     0.00000     0.00000
   8       0.00070    -0.00056     0.00115     0.00000     0.00000     0.00000
   9       0.00066    -0.00111     0.00136     0.00000     0.00000     0.00000
  10      -0.00127     0.00005     0.00086     0.00000     0.00000     0.00000
  11       0.00116    -0.00152    -0.00051     0.00000     0.00000     0.00000
  12       0.00038     0.00083     0.00039     0.00000     0.00000     0.00000
  13       0.00073     0.00013     0.00007     0.00000     0.00000     0.00000
  14       0.00009     0.00009    -0.00009     0.00000     0.00000     0.00000
  15      -0.00013    -0.00001    -0.00009     0.00000     0.00000     0.00000
  16      -0.00011    -0.00008    -0.00005     0.00000     0.00000     0.00000
  17       0.00000     0.00007     0.00001     0.00000     0.00000     0.00000
  18       0.00076     0.00001    -0.00003     0.00000     0.00000     0.00000
  19      -0.00013     0.00011    -0.00016     0.00000     0.00000     0.00000
  20       0.00007    -0.00008     0.00018     0.00000     0.00000     0.00000
  21       0.00011     0.00043     0.00013     0.00000     0.00000     0.00000
  22       0.00021    -0.00043    -0.00019     0.00000     0.00000     0.00000
  23      -0.00001     0.00007     0.00001     0.00000     0.00000     0.00000
  24       0.00002    -0.00019    -0.00003     0.00000     0.00000     0.00000
  25      -0.00002     0.00021     0.00001     0.00000     0.00000     0.00000
  26       0.00010     0.00004     0.00008     0.00000     0.00000     0.00000
  27      -0.00021    -0.00024    -0.00006     0.00000     0.00000     0.00000
  28       0.00012    -0.00055    -0.00029     0.00000     0.00000     0.00000
  29       0.00046    -0.00072    -0.00014     0.00000     0.00000     0.00000
  30      -0.00002     0.00063     0.00043     0.00000     0.00000     0.00000
  31       0.00012     0.00074     0.00012     0.00000     0.00000     0.00000
  32      -0.00169    -0.00018     0.00016     0.00000     0.00000     0.00000
  33       0.00031    -0.00075     0.00068     0.00000     0.00000     0.00000
  34       0.00071    -0.00046     0.00088     0.00000     0.00000     0.00000
  35      -0.00025    -0.00147     0.00099     0.00000     0.00000     0.00000
  36       0.00089     0.00026    -0.00112     0.00000     0.00000     0.00000
  37      -0.00074    -0.00105    -0.00038     0.00000     0.00000     0.00000
  38       0.00014    -0.00078    -0.00117     0.00000     0.00000     0.00000
  39      -0.00113     0.00140     0.00021     0.00000     0.00000     0.00000
  40       0.00050    -0.00130    -0.00124     0.00000     0.00000     0.00000
  41       0.00191     0.00045     0.00053     0.00000     0.00000     0.00000
  42       0.00070    -0.00045     0.00162     0.00000     0.00000     0.00000
  43      -0.00062    -0.00094     0.00063     0.00000     0.00000     0.00000
  44       0.00047     0.00004    -0.00013     0.00000     0.00000     0.00000
  45       0.00005     0.00010     0.00008     0.00000     0.00000     0.00000
  46       0.00021    -0.00003    -0.00004     0.00000     0.00000     0.00000
  47       0.00017     0.00008    -0.00006     0.00000     0.00000     0.00000
  48       0.00000     0.00003    -0.00005     0.00000     0.00000     0.00000
  49      -0.00118    -0.00005    -0.00005     0.00000     0.00000     0.00000
  50       0.00021    -0.00024    -0.00001     0.00000     0.00000     0.00000
  51       0.00005    -0.00014    -0.00021     0.00000     0.00000     0.00000
  52       0.00008     0.00015    -0.00041     0.00000     0.00000     0.00000
  53      -0.00031     0.00049    -0.00034     0.00000     0.00000     0.00000
  54       0.00001    -0.00009     0.00004     0.00000     0.00000     0.00000
  55       0.00001    -0.00007     0.00015     0.00000     0.00000     0.00000
  56      -0.00001     0.00010    -0.00014     0.00000     0.00000     0.00000
  57      -0.00017    -0.00001     0.00005     0.00000     0.00000     0.00000
  58      -0.00014    -0.00009     0.00021     0.00000     0.00000     0.00000
  59      -0.00016     0.00061    -0.00046     0.00000     0.00000     0.00000
  60       0.00028    -0.00027     0.00063     0.00000     0.00000     0.00000
  61      -0.00000    -0.00064     0.00056     0.00000     0.00000     0.00000
  62       0.00010     0.00030    -0.00057     0.00000     0.00000     0.00000
  63      -0.04449     0.01727    -0.00607     0.00000     0.00000     0.00000
  64       0.00120    -0.01149    -0.04224     0.00000     0.00000     0.00000
  65      -0.01928     0.05675    -0.01596     0.00000     0.00000     0.00000
  66       0.00093    -0.00878    -0.03189     0.00000     0.00000     0.00000
  67      -0.03545    -0.03054     0.00707     0.00000     0.00000     0.00000
  68       0.04470     0.05920    -0.01642     0.00000     0.00000     0.00000
  69      -0.00173     0.02338     0.08259     0.00000     0.00000     0.00000
  70       0.00105    -0.01080    -0.03990     0.00000     0.00000     0.00000
  71      -0.01442     0.05763    -0.01605     0.00000     0.00000     0.00000
  72       0.00111    -0.00977    -0.03447     0.00000     0.00000     0.00000
  73      -0.03374     0.05254    -0.01528     0.00000     0.00000     0.00000
  74       0.00096    -0.00876    -0.03212     0.00000     0.00000     0.00000
  75      -0.02545    -0.01900     0.00441     0.00000     0.00000     0.00000
  76       0.01976     0.01606    -0.00376     0.00000     0.00000     0.00000
  77       0.00016    -0.00064    -0.00257     0.00000     0.00000     0.00000
  78       0.00080    -0.00728    -0.02696     0.00000     0.00000     0.00000
  79       0.00325     0.01531    -0.00405     0.00000     0.00000     0.00000
  80      -0.00006     0.00034     0.00123     0.00000     0.00000     0.00000
  81      -0.00011     0.00123     0.00451     0.00000     0.00000     0.00000
  82      -0.01055     0.00433    -0.00147     0.00000     0.00000     0.00000
  83      -0.00312    -0.00399     0.00102     0.00000     0.00000     0.00000
  84      -0.00007     0.00102     0.00358     0.00000     0.00000     0.00000
  85      -0.00012     0.00100     0.00364     0.00000     0.00000     0.00000
  86      -0.00239     0.00041    -0.00018     0.00000     0.00000     0.00000
  87       0.00368    -0.00490     0.00144     0.00000     0.00000     0.00000
  88       0.00007    -0.00064    -0.00232     0.00000     0.00000     0.00000
  89       0.00292     0.00167    -0.00037     0.00000     0.00000     0.00000
  90      -0.00009     0.00089     0.00332     0.00000     0.00000     0.00000
  91      -0.00422     0.00523    -0.00155     0.00000     0.00000     0.00000
  92       0.00016    -0.00148    -0.00539     0.00000     0.00000     0.00000
  93      -0.00249    -0.00572     0.00148     0.00000     0.00000     0.00000
  94      -0.00088     0.00917     0.03363     0.00000     0.00000     0.00000
  95      -0.00084    -0.14963     0.04086     0.00000     0.00000     0.00000
  96      -0.00285     0.02698     0.09859     0.00000     0.00000     0.00000
  97      -0.01452    -0.11191     0.03035     0.00000     0.00000     0.00000
  98       0.00204    -0.02014    -0.07317     0.00000     0.00000     0.00000
  99       0.00119    -0.01228    -0.04712     0.00000     0.00000     0.00000
 100       0.00056    -0.03952     0.00994     0.00000     0.00000     0.00000
 101      -0.10976     0.05642    -0.01863     0.00000     0.00000     0.00000
 102       0.00313    -0.02226    -0.08121     0.00000     0.00000     0.00000
 103       0.11632     0.01514    -0.00039     0.00000     0.00000     0.00000
 104      -0.00183     0.01823     0.06707     0.00000     0.00000     0.00000
 105      -0.03665    -0.04791     0.01193     0.00000     0.00000     0.00000
 106       0.00026    -0.00201    -0.00777     0.00000     0.00000     0.00000
 107      -0.00058     0.00693     0.02475     0.00000     0.00000     0.00000
 108      -0.01889    -0.02850     0.00736     0.00000     0.00000     0.00000
 109      -0.01187     0.02434    -0.00700     0.00000     0.00000     0.00000
 110       0.00107    -0.00975    -0.03572     0.00000     0.00000     0.00000
 111      -0.01551     0.00110    -0.00076     0.00000     0.00000     0.00000
 112      -0.01819    -0.00012    -0.00050     0.00000     0.00000     0.00000
 113      -0.00009     0.00060     0.00214     0.00000     0.00000     0.00000
 114       0.00020    -0.00201    -0.00769     0.00000     0.00000     0.00000
 115      -0.00025     0.01058    -0.00284     0.00000     0.00000     0.00000
 116       0.00074    -0.00442     0.00123     0.00000     0.00000     0.00000
 117      -0.00009     0.00092     0.00338     0.00000     0.00000     0.00000
 118      -0.00014     0.00121     0.00445     0.00000     0.00000     0.00000
 119      -0.00067     0.00364    -0.00102     0.00000     0.00000     0.00000
 120      -0.00009     0.00075     0.00272     0.00000     0.00000     0.00000
 121      -0.00180     0.00644    -0.00181     0.00000     0.00000     0.00000
 122      -0.00013     0.00118     0.00433     0.00000     0.00000     0.00000
 123      -0.00017    -0.00570     0.00154     0.00000     0.00000     0.00000
 124       0.00011    -0.00101    -0.00374     0.00000     0.00000     0.00000
 125       1.62475    -0.15114     0.09023     0.00000     0.00000     0.00000
 126      -0.02009     0.17492     0.64970     0.00000     0.00000     0.00000
 127      -0.07028    -0.76816     0.20666     0.00000     0.00000     0.00000
 128      -0.00232     0.02425     0.09262     0.00000     0.00000     0.00000
 129       0.02320     0.22321    -0.06021     0.00000     0.00000     0.00000
 130      -0.13076     0.14118    -0.04380     0.00000     0.00000     0.00000
 131      -0.00490     0.02867     0.09573     0.00000     0.00000     0.00000
 132      -0.00288     0.02643     0.09970     0.00000     0.00000     0.00000
 133      -0.05029    -0.07912     0.02025     0.00000     0.00000     0.00000
 134      -0.00081     0.00954     0.03436     0.00000     0.00000     0.00000
 135       0.06275     0.10785    -0.02767     0.00000     0.00000     0.00000
 136       0.00101    -0.01002    -0.03636     0.00000     0.00000     0.00000
 137       0.11765    -0.10597     0.03272     0.00000     0.00000     0.00000
 138      -0.12343     0.06862    -0.02056     0.00000     0.00000     0.00000
 139       0.00642    -0.06420    -0.23613     0.00000     0.00000     0.00000
 140      -0.00216     0.01951     0.07132     0.00000     0.00000     0.00000
 141      -0.01818    -0.04036     0.01029     0.00000     0.00000     0.00000
 142       0.00040    -0.00361    -0.01343     0.00000     0.00000     0.00000
 143      -0.00073     0.00449     0.01701     0.00000     0.00000     0.00000
 144       0.05108     0.01582    -0.00278     0.00000     0.00000     0.00000
 145      -0.00210     0.03956    -0.01095     0.00000     0.00000     0.00000
 146       0.00038    -0.00418    -0.01431     0.00000     0.00000     0.00000
 147      -0.00019     0.00169     0.00610     0.00000     0.00000     0.00000
 148      -0.00697     0.00138    -0.00058     0.00000     0.00000     0.00000
 149       0.01193     0.00122     0.00001     0.00000     0.00000     0.00000
 150      -0.00005     0.00052     0.00197     0.00000     0.00000     0.00000
 151      -0.02345     0.00154    -0.00113     0.00000     0.00000     0.00000
 152      -0.00010     0.00093     0.00351     0.00000     0.00000     0.00000
 153       0.00616     0.00919    -0.00233     0.00000     0.00000     0.00000
 154       0.00020    -0.00203    -0.00747     0.00000     0.00000     0.00000
 155       0.00238    -0.00927     0.00261     0.00000     0.00000     0.00000
 156      -0.00544     0.04229     0.15880     0.00000     0.00000     0.00000
 157       0.18889    -1.04475     0.29000     0.00000     0.00000     0.00000
 158      -0.01775     0.16494     0.59708     0.00000     0.00000     0.00000
 159       0.10653    -0.09205     0.02850     0.00000     0.00000     0.00000
 160       0.00505    -0.04393    -0.16000     0.00000     0.00000     0.00000
 161       0.00265    -0.02543    -0.10186     0.00000     0.00000     0.00000
 162       0.02589    -0.18009     0.04763     0.00000     0.00000     0.00000
 163      -0.10161    -0.20945     0.05426     0.00000     0.00000     0.00000
 164      -0.00247     0.02316     0.08445     0.00000     0.00000     0.00000
 165      -0.07072    -0.02041     0.00313     0.00000     0.00000     0.00000
 166       0.00364    -0.03386    -0.12381     0.00000     0.00000     0.00000
 167      -0.00080     0.05177    -0.01369     0.00000     0.00000     0.00000
 168      -0.00198     0.01788     0.06522     0.00000     0.00000     0.00000
 169      -0.00335     0.03906     0.14074     0.00000     0.00000     0.00000
 170      -0.08209    -0.15515     0.04099     0.00000     0.00000     0.00000
 171      -0.05281     0.13497    -0.03851     0.00000     0.00000     0.00000
 172       0.00323    -0.02874    -0.10537     0.00000     0.00000     0.00000
 173      -0.01047     0.02501    -0.00713     0.00000     0.00000     0.00000
 174      -0.09067    -0.00497    -0.00127     0.00000     0.00000     0.00000
 175      -0.00026     0.00014     0.00045     0.00000     0.00000     0.00000
 176       0.00071    -0.00704    -0.02619     0.00000     0.00000     0.00000
 177      -0.00040     0.01620    -0.00418     0.00000     0.00000     0.00000
 178      -0.00104     0.01079    -0.00297     0.00000     0.00000     0.00000
 179      -0.00003     0.00034     0.00119     0.00000     0.00000     0.00000
 180       0.00016    -0.00141    -0.00518     0.00000     0.00000     0.00000
 181      -0.01240    -0.00935     0.00218     0.00000     0.00000     0.00000
 182       0.00016    -0.00154    -0.00563     0.00000     0.00000     0.00000
 183       0.00359    -0.00660     0.00190     0.00000     0.00000     0.00000
 184       0.00024    -0.00228    -0.00833     0.00000     0.00000     0.00000
 185      -0.00679     0.01470    -0.00417     0.00000     0.00000     0.00000
 186      -0.00028     0.00260     0.00952     0.00000     0.00000     0.00000
 187       2.17721     0.14361     0.02532     0.00000     0.00000     0.00000
 188       0.01001    -0.10804    -0.39802     0.00000     0.00000     0.00000
 189      -0.37061     0.27119    -0.08404     0.00000     0.00000     0.00000
 190      -0.00353     0.02849     0.10468     0.00000     0.00000     0.00000
 191       0.17780    -0.08181     0.02798     0.00000     0.00000     0.00000
 192      -0.05295    -0.07107     0.01984     0.00000     0.00000     0.00000
 193       0.00262    -0.03335    -0.11783     0.00000     0.00000     0.00000
 194       0.00371    -0.03076    -0.11376     0.00000     0.00000     0.00000
 195       0.12905     0.03205    -0.00467     0.00000     0.00000     0.00000
 196      -0.00082     0.00296     0.01158     0.00000     0.00000     0.00000
 197       0.04643    -0.05558     0.01646     0.00000     0.00000     0.00000
 198       0.00554    -0.05036    -0.18712     0.00000     0.00000     0.00000
 199       0.04554    -0.02951     0.00946     0.00000     0.00000     0.00000
 200       0.05095     0.27176    -0.07213     0.00000     0.00000     0.00000
 201       0.00077    -0.00369    -0.02011     0.00000     0.00000     0.00000
 202       0.00675    -0.06229    -0.22874     0.00000     0.00000     0.00000
 203       0.00707     0.02684    -0.00694     0.00000     0.00000     0.00000
 204      -0.00158     0.01430     0.05244     0.00000     0.00000     0.00000
 205      -0.00032     0.00505     0.01866     0.00000     0.00000     0.00000
 206      -0.06750     0.02475    -0.00873     0.00000     0.00000     0.00000
 207       0.01445    -0.01594     0.00467     0.00000     0.00000     0.00000
 208       0.00048    -0.00461    -0.01736     0.00000     0.00000     0.00000
 209       0.00039    -0.00346    -0.01263     0.00000     0.00000     0.00000
 210       0.00380    -0.00440     0.00131     0.00000     0.00000     0.00000
 211      -0.00762    -0.00826     0.00200     0.00000     0.00000     0.00000
 212       0.00014    -0.00081    -0.00299     0.00000     0.00000     0.00000
 213      -0.03398    -0.00700     0.00091     0.00000     0.00000     0.00000
 214      -0.00008     0.00057     0.00209     0.00000     0.00000     0.00000
 215       0.01726    -0.00515     0.00192     0.00000     0.00000     0.00000
 216      -0.00010     0.00087     0.00311     0.00000     0.00000     0.00000
 217       0.00273     0.00710    -0.00185     0.00000     0.00000     0.00000
 218      -0.91305    -0.06978    -0.00782     0.00000     0.00000     0.00000
 219      -0.00141     0.03719     0.14805     0.00000     0.00000     0.00000
 220       0.38009    -0.55609     0.16533     0.00000     0.00000     0.00000
 221      -0.00682     0.07218     0.27089     0.00000     0.00000     0.00000
 222      -0.15638     0.00221    -0.00406     0.00000     0.00000     0.00000
 223      -0.10301     0.12692    -0.03780     0.00000     0.00000     0.00000
 224      -0.00148     0.00515     0.00975     0.00000     0.00000     0.00000
 225       0.00056    -0.00466    -0.01519     0.00000     0.00000     0.00000
 226       0.01241    -0.07753     0.02186     0.00000     0.00000     0.00000
 227      -0.00061     0.00900     0.03257     0.00000     0.00000     0.00000
 228      -0.16426    -0.00318    -0.00411     0.00000     0.00000     0.00000
 229       0.00523    -0.05714    -0.21394     0.00000     0.00000     0.00000
 230       0.15169     0.22943    -0.05936     0.00000     0.00000     0.00000
 231      -0.28071     0.06794    -0.02794     0.00000     0.00000     0.00000
 232      -0.00723     0.04187     0.15099     0.00000     0.00000     0.00000
 233      -0.00306     0.01857     0.07197     0.00000     0.00000     0.00000
 234      -0.04849    -0.24187     0.06315     0.00000     0.00000     0.00000
 235      -0.00268     0.02470     0.09214     0.00000     0.00000     0.00000
 236       0.00123    -0.00771    -0.02882     0.00000     0.00000     0.00000
 237      -0.05745    -0.00829     0.00032     0.00000     0.00000     0.00000
 238      -0.01422    -0.01009     0.00201     0.00000     0.00000     0.00000
 239       0.00168    -0.01415    -0.05299     0.00000     0.00000     0.00000
 240       0.00035    -0.00293    -0.01018     0.00000     0.00000     0.00000
 241       0.01927    -0.02875     0.00831     0.00000     0.00000     0.00000
 242      -0.02452    -0.00750     0.00122     0.00000     0.00000     0.00000
 243      -0.00006     0.00148     0.00547     0.00000     0.00000     0.00000
 244       0.00676    -0.01504     0.00443     0.00000     0.00000     0.00000
 245      -0.00039     0.00389     0.01456     0.00000     0.00000     0.00000
 246      -0.01121     0.00541    -0.00180     0.00000     0.00000     0.00000
 247       0.00031    -0.00284    -0.01065     0.00000     0.00000     0.00000
 248      -0.00124    -0.00406     0.00107     0.00000     0.00000     0.00000
 249       0.00543    -0.01304    -0.04737     0.00000     0.00000     0.00000
 250       0.21641    -0.20778     0.06329     0.00000     0.00000     0.00000
 251      -0.01368     0.11566     0.41516     0.00000     0.00000     0.00000
 252       0.09105    -0.24501     0.06799     0.00000     0.00000     0.00000
 253      -0.00272     0.02894     0.10827     0.00000     0.00000     0.00000
 254       0.00145    -0.02686    -0.09497     0.00000     0.00000     0.00000
 255       0.11323     0.00294     0.00081     0.00000     0.00000     0.00000
 256      -0.00172    -0.00647     0.00228     0.00000     0.00000     0.00000
 257      -0.00061     0.00723     0.02635     0.00000     0.00000     0.00000
 258       0.00889    -0.05050     0.01381     0.00000     0.00000     0.00000
 259       0.00028     0.00286     0.00990     0.00000     0.00000     0.00000
 260      -0.19995     0.18375    -0.05519     0.00000     0.00000     0.00000
 261       0.00777    -0.07375    -0.26676     0.00000     0.00000     0.00000
 262       0.00580    -0.02383    -0.08446     0.00000     0.00000     0.00000
 263      -0.28233     0.02444    -0.01660     0.00000     0.00000     0.00000
 264      -0.16673    -0.18952     0.04603     0.00000     0.00000     0.00000
 265       0.00740    -0.06334    -0.23770     0.00000     0.00000     0.00000
 266       0.01257    -0.08071     0.02173     0.00000     0.00000     0.00000
 267       0.05800     0.01866    -0.00328     0.00000     0.00000     0.00000
 268       0.00075    -0.00250    -0.01001     0.00000     0.00000     0.00000
 269      -0.00095     0.00919     0.03214     0.00000     0.00000     0.00000
 270      -0.01176     0.04256    -0.01185     0.00000     0.00000     0.00000
 271       0.00872    -0.03181     0.00897     0.00000     0.00000     0.00000
 272       0.00048    -0.00523    -0.01977     0.00000     0.00000     0.00000
 273       0.00062    -0.00451    -0.01672     0.00000     0.00000     0.00000
 274       0.02034    -0.00530     0.00201     0.00000     0.00000     0.00000
 275      -0.00082     0.00762     0.02770     0.00000     0.00000     0.00000
 276       0.00585    -0.01464     0.00407     0.00000     0.00000     0.00000
 277       0.00001     0.00030     0.00116     0.00000     0.00000     0.00000
 278      -0.00017     0.00904    -0.00242     0.00000     0.00000     0.00000
 279       0.00003    -0.00025    -0.00098     0.00000     0.00000     0.00000
 280      -0.00259    -0.00035    -0.00008     0.00000     0.00000     0.00000
 281      -0.00022     0.00073     0.00050     0.00000     0.00000     0.00000
 282       0.00114    -0.00111    -0.00013     0.00000     0.00000     0.00000
 283       0.00012     0.00127     0.00057     0.00000     0.00000     0.00000
 284       0.00130     0.00100     0.00046     0.00000     0.00000     0.00000
 285      -0.00117    -0.00125     0.00078     0.00000     0.00000     0.00000
 286      -0.00004    -0.00028    -0.00203     0.00000     0.00000     0.00000
 287       0.00069    -0.00056     0.00114     0.00000     0.00000     0.00000
 288       0.00066    -0.00111     0.00135     0.00000     0.00000     0.00000
 289      -0.00126     0.00005     0.00085     0.00000     0.00000     0.00000
 290       0.00116    -0.00151    -0.00050     0.00000     0.00000     0.00000
 291       0.00037     0.00082     0.00039     0.00000     0.00000     0.00000
 292       0.00072     0.00013     0.00007     0.00000     0.00000     0.00000
 293       0.00009     0.00009    -0.00009     0.00000     0.00000     0.00000
 294      -0.00013    -0.00001    -0.00009     0.00000     0.00000     0.00000
 295      -0.00011    -0.00008    -0.00005     0.00000     0.00000     0.00000
 296       0.00000     0.00007     0.00001     0.00000     0.00000     0.00000
 297       0.00076     0.00001    -0.00003     0.00000     0.00000     0.00000
 298      -0.00013     0.00011    -0.00016     0.00000     0.00000     0.00000
 299       0.00007    -0.00008     0.00018     0.00000     0.00000     0.00000
 300       0.00011     0.00043     0.00013     0.00000     0.00000     0.00000
 301       0.00021    -0.00043    -0.00019     0.00000     0.00000     0.00000
 302      -0.00001     0.00007     0.00001     0.00000     0.00000     0.00000
 303       0.00002    -0.00018    -0.00003     0.00000     0.00000     0.00000
 304      -0.00002     0.00021     0.00001     0.00000     0.00000     0.00000
 305       0.00010     0.00004     0.00008     0.00000     0.00000     0.00000
 306      -0.00021    -0.00024    -0.00006     0.00000     0.00000     0.00000
 307       0.00012    -0.00055    -0.00029     0.00000     0.00000     0.00000
 308       0.00046    -0.00072    -0.00014     0.00000     0.00000     0.00000
 309      -0.00002     0.00062     0.00042     0.00000     0.00000     0.00000
 310       0.00012     0.00073     0.00012     0.00000     0.00000     0.00000
 311      -0.00168    -0.00017     0.00015     0.00000     0.00000     0.00000
 312       0.00031    -0.00074     0.00067     0.00000     0.00000     0.00000
 313       0.00071    -0.00045     0.00087     0.00000     0.00000     0.00000
 314      -0.00025    -0.00146     0.00098     0.00000     0.00000     0.00000
 315       0.00088     0.00026    -0.00111     0.00000     0.00000     0.00000
 316      -0.00073    -0.00104    -0.00038     0.00000     0.00000     0.00000
 317       0.00014    -0.00078    -0.00116     0.00000     0.00000     0.00000
 318      -0.00112     0.00139     0.00021     0.00000     0.00000     0.00000
 319       0.00050    -0.00129    -0.00123     0.00000     0.00000     0.00000
 320       0.00189     0.00045     0.00052     0.00000     0.00000     0.00000
 321       0.00069    -0.00045     0.00161     0.00000     0.00000     0.00000
 322      -0.00061    -0.00094     0.00063     0.00000     0.00000     0.00000
 323       0.00047     0.00004    -0.00013     0.00000     0.00000     0.00000
 324       0.00005     0.00010     0.00008     0.00000     0.00000     0.00000
 325       0.00021    -0.00003    -0.00004     0.00000     0.00000     0.00000
 326       0.00017     0.00008    -0.00006     0.00000     0.00000     0.00000
 327       0.00000     0.00003    -0.00005     0.00000     0.00000     0.00000
 328      -0.00117    -0.00005    -0.00005     0.00000     0.00000     0.00000
 329       0.00021    -0.00024    -0.00001     0.00000     0.00000     0.00000
 330       0.00005    -0.00014    -0.00021     0.00000     0.00000     0.00000
 331       0.00008     0.00015    -0.00041     0.00000     0.00000     0.00000
 332      -0.00031     0.00049    -0.00034     0.00000     0.00000     0.00000
 333       0.00001    -0.00009     0.00004     0.00000     0.00000     0.00000
 334       0.00001    -0.00007     0.00015     0.00000     0.00000     0.00000
 335      -0.00001     0.00010    -0.00014     0.00000     0.00000     0.00000
 336      -0.00017    -0.00001     0.00005     0.00000     0.00000     0.00000
 337      -0.00014    -0.00009     0.00021     0.00000     0.00000     0.00000
 338      -0.00016     0.00061    -0.00046     0.00000     0.00000     0.00000
 339       0.00028    -0.00027     0.00062     0.00000     0.00000     0.00000
 340      -0.00000    -0.00063     0.00055     0.00000     0.00000     0.00000
 341       0.00010     0.00030    -0.00057     0.00000     0.00000     0.00000
 342      -0.03927     0.01525    -0.00536     0.00000     0.00000     0.00000
 343       0.00106    -0.01022    -0.03756     0.00000     0.00000     0.00000
 344      -0.01721     0.05066    -0.01425     0.00000     0.00000     0.00000
 345       0.00086    -0.00812    -0.02950     0.00000     0.00000     0.00000
 346      -0.03281    -0.02827     0.00654     0.00000     0.00000     0.00000
 347       0.04145     0.05489    -0.01523     0.00000     0.00000     0.00000
 348      -0.00160     0.02169     0.07661     0.00000     0.00000     0.00000
 349       0.00098    -0.01005    -0.03713     0.00000     0.00000     0.00000
 350      -0.01344     0.05369    -0.01495     0.00000     0.00000     0.00000
 351       0.00103    -0.00911    -0.03215     0.00000     0.00000     0.00000
 352      -0.03150     0.04905    -0.01427     0.00000     0.00000     0.00000
 353       0.00090    -0.00822    -0.03014     0.00000     0.00000     0.00000
 354      -0.02395    -0.01788     0.00415     0.00000     0.00000     0.00000
 355       0.01864     0.01515    -0.00355     0.00000     0.00000     0.00000
 356       0.00015    -0.00060    -0.00243     0.00000     0.00000     0.00000
 357       0.00076    -0.00689    -0.02551     0.00000     0.00000     0.00000
 358       0.00308     0.01450    -0.00384     0.00000     0.00000     0.00000
 359      -0.00006     0.00032     0.00117     0.00000     0.00000     0.00000
 360      -0.00011     0.00117     0.00430     0.00000     0.00000     0.00000
 361      -0.01008     0.00413    -0.00141     0.00000     0.00000     0.00000
 362      -0.00299    -0.00382     0.00098     0.00000     0.00000     0.00000
 363      -0.00007     0.00097     0.00343     0.00000     0.00000     0.00000
 364      -0.00011     0.00096     0.00350     0.00000     0.00000     0.00000
 365      -0.00230     0.00040    -0.00017     0.00000     0.00000     0.00000
 366       0.00353    -0.00471     0.00139     0.00000     0.00000     0.00000
 367       0.00007    -0.00062    -0.00224     0.00000     0.00000     0.00000
 368       0.00282     0.00161    -0.00036     0.00000     0.00000     0.00000
 369      -0.00009     0.00086     0.00321     0.00000     0.00000     0.00000
 370      -0.00408     0.00506    -0.00150     0.00000     0.00000     0.00000
 371       0.00016    -0.00143    -0.00522     0.00000     0.00000     0.00000
 372      -0.00241    -0.00554     0.00144     0.00000     0.00000     0.00000
 373      -0.00076     0.00790     0.02896     0.00000     0.00000     0.00000
 374      -0.00073    -0.13015     0.03554     0.00000     0.00000     0.00000
 375      -0.00250     0.02360     0.08625     0.00000     0.00000     0.00000
 376      -0.01331    -0.10260     0.02783     0.00000     0.00000     0.00000
 377       0.00187    -0.01848    -0.06714     0.00000     0.00000     0.00000
 378       0.00109    -0.01129    -0.04333     0.00000     0.00000     0.00000
 379       0.00052    -0.03636     0.00914     0.00000     0.00000     0.00000
 380      -0.10136     0.05211    -0.01720     0.00000     0.00000     0.00000
 381       0.00290    -0.02059    -0.07511     0.00000     0.00000     0.00000
 382       0.10770     0.01402    -0.00036     0.00000     0.00000     0.00000
 383      -0.00170     0.01691     0.06218     0.00000     0.00000     0.00000
 384      -0.03418    -0.04469     0.01112     0.00000     0.00000     0.00000
 385       0.00025    -0.00188    -0.00727     0.00000     0.00000     0.00000
 386      -0.00055     0.00651     0.02324     0.00000     0.00000     0.00000
 387      -0.01775    -0.02678     0.00691     0.00000     0.00000     0.00000
 388      -0.01119     0.02293    -0.00659     0.00000     0.00000     0.00000
 389       0.00101    -0.00920    -0.03371     0.00000     0.00000     0.00000
 390      -0.01472     0.00104    -0.00072     0.00000     0.00000     0.00000
 391      -0.01730    -0.00012    -0.00048     0.00000     0.00000     0.00000
 392      -0.00009     0.00057     0.00204     0.00000     0.00000     0.00000
 393       0.00019    -0.00192    -0.00734     0.00000     0.00000     0.00000
 394      -0.00024     0.01011    -0.00272     0.00000     0.00000     0.00000
 395       0.00071    -0.00423     0.00118     0.00000     0.00000     0.00000
 396      -0.00009     0.00089     0.00324     0.00000     0.00000     0.00000
 397      -0.00014     0.00116     0.00427     0.00000     0.00000     0.00000
 398      -0.00065     0.00349    -0.00098     0.00000     0.00000     0.00000
 399      -0.00009     0.00072     0.00261     0.00000     0.00000     0.00000
 400      -0.00174     0.00621    -0.00175     0.00000     0.00000     0.00000
 401      -0.00012     0.00114     0.00418     0.00000     0.00000     0.00000
 402      -0.00017    -0.00551     0.00149     0.00000     0.00000     0.00000
 403       0.00011    -0.00098    -0.00362     0.00000     0.00000     0.00000
 404       1.27779    -0.11887     0.07096     0.00000     0.00000     0.00000
 405      -0.01619     0.14101     0.52376     0.00000     0.00000     0.00000
 406      -0.05742    -0.62764     0.16886     0.00000     0.00000     0.00000
 407      -0.00207     0.02170     0.08287     0.00000     0.00000     0.00000
 408       0.02078     0.19999    -0.05394     0.00000     0.00000     0.00000
 409      -0.11756     0.12693    -0.03938     0.00000     0.00000     0.00000
 410      -0.00441     0.02580     0.08613     0.00000     0.00000     0.00000
 411      -0.00260     0.02392     0.09025     0.00000     0.00000     0.00000
 412      -0.04562    -0.07178     0.01837     0.00000     0.00000     0.00000
 413      -0.00074     0.00867     0.03123     0.00000     0.00000     0.00000
 414       0.05715     0.09822    -0.02520     0.00000     0.00000     0.00000
 415       0.00093    -0.00921    -0.03341     0.00000     0.00000     0.00000
 416       0.10870    -0.09792     0.03023     0.00000     0.00000     0.00000
 417      -0.11452     0.06366    -0.01908     0.00000     0.00000     0.00000
 418       0.00596    -0.05963    -0.21933     0.00000     0.00000     0.00000
 419      -0.00202     0.01819     0.06650     0.00000     0.00000     0.00000
 420      -0.01698    -0.03771     0.00962     0.00000     0.00000     0.00000
 421       0.00037    -0.00340    -0.01264     0.00000     0.00000     0.00000
 422      -0.00069     0.00424     0.01607     0.00000     0.00000     0.00000
 423       0.04834     0.01497    -0.00263     0.00000     0.00000     0.00000
 424      -0.00200     0.03756    -0.01040     0.00000     0.00000     0.00000
 425       0.00036    -0.00397    -0.01359     0.00000     0.00000     0.00000
 426      -0.00018     0.00161     0.00582     0.00000     0.00000     0.00000
 427      -0.00665     0.00131    -0.00055     0.00000     0.00000     0.00000
 428       0.01139     0.00117     0.00001     0.00000     0.00000     0.00000
 429      -0.00005     0.00049     0.00188     0.00000     0.00000     0.00000
 430      -0.02246     0.00148    -0.00108     0.00000     0.00000     0.00000
 431      -0.00009     0.00089     0.00338     0.00000     0.00000     0.00000
 432       0.00593     0.00885    -0.00224     0.00000     0.00000     0.00000
 433       0.00020    -0.00196    -0.00719     0.00000     0.00000     0.00000
 434       0.00229    -0.00895     0.00252     0.00000     0.00000     0.00000
 435      -0.00423     0.03289     0.12349     0.00000     0.00000     0.00000
 436       0.15092    -0.83472     0.23170     0.00000     0.00000     0.00000
 437      -0.01439     0.13371     0.48404     0.00000     0.00000     0.00000
 438       0.09509    -0.08217     0.02544     0.00000     0.00000     0.00000
 439       0.00451    -0.03927    -0.14303     0.00000     0.00000     0.00000
 440       0.00238    -0.02282    -0.09139     0.00000     0.00000     0.00000
 441       0.02325    -0.16169     0.04276     0.00000     0.00000     0.00000
 442      -0.09181    -0.18925     0.04903     0.00000     0.00000     0.00000
 443      -0.00224     0.02097     0.07648     0.00000     0.00000     0.00000
 444      -0.06417    -0.01851     0.00284     0.00000     0.00000     0.00000
 445       0.00331    -0.03079    -0.11257     0.00000     0.00000     0.00000
 446      -0.00074     0.04751    -0.01256     0.00000     0.00000     0.00000
 447      -0.00182     0.01650     0.06019     0.00000     0.00000     0.00000
 448      -0.00310     0.03620     0.13044     0.00000     0.00000     0.00000
 449      -0.07617    -0.14397     0.03803     0.00000     0.00000     0.00000
 450      -0.04919     0.12571    -0.03587     0.00000     0.00000     0.00000
 451       0.00301    -0.02683    -0.09837     0.00000     0.00000     0.00000
 452      -0.00985     0.02352    -0.00670     0.00000     0.00000     0.00000
 453      -0.08558    -0.00469    -0.00120     0.00000     0.00000     0.00000
 454      -0.00024     0.00013     0.00043     0.00000     0.00000     0.00000
 455       0.00068    -0.00669    -0.02485     0.00000     0.00000     0.00000
 456      -0.00038     0.01538    -0.00397     0.00000     0.00000     0.00000
 457      -0.00099     0.01029    -0.00283     0.00000     0.00000     0.00000
 458      -0.00003     0.00032     0.00113     0.00000     0.00000     0.00000
 459       0.00015    -0.00134    -0.00494     0.00000     0.00000     0.00000
 460      -0.01186    -0.00894     0.00208     0.00000     0.00000     0.00000
 461       0.00016    -0.00147    -0.00539     0.00000     0.00000     0.00000
 462       0.00346    -0.00635     0.00183     0.00000     0.00000     0.00000
 463       0.00023    -0.00220    -0.00801     0.00000     0.00000     0.00000
 464      -0.00655     0.01416    -0.00402     0.00000     0.00000     0.00000
 465      -0.00027     0.00251     0.00919     0.00000     0.00000     0.00000
 466       1.63964     0.10815     0.01907     0.00000     0.00000     0.00000
 467       0.00780    -0.08417    -0.31009     0.00000     0.00000     0.00000
 468      -0.29394     0.21509    -0.06665     0.00000     0.00000     0.00000
 469      -0.00313     0.02528     0.09287     0.00000     0.00000     0.00000
 470       0.15800    -0.07270     0.02486     0.00000     0.00000     0.00000
 471      -0.04724    -0.06341     0.01770     0.00000     0.00000     0.00000
 472       0.00234    -0.02978    -0.10522     0.00000     0.00000     0.00000
 473       0.00334    -0.02766    -0.10229     0.00000     0.00000     0.00000
 474       0.11634     0.02889    -0.00421     0.00000     0.00000     0.00000
 475      -0.00074     0.00268     0.01046     0.00000     0.00000     0.00000
 476       0.04203    -0.05032     0.01490     0.00000     0.00000     0.00000
 477       0.00507    -0.04605    -0.17111     0.00000     0.00000     0.00000
 478       0.04190    -0.02716     0.00870     0.00000     0.00000     0.00000
 479       0.04710     0.25119    -0.06667     0.00000     0.00000     0.00000
 480       0.00071    -0.00341    -0.01861     0.00000     0.00000     0.00000
 481       0.00628    -0.05788    -0.21256     0.00000     0.00000     0.00000
 482       0.00658     0.02500    -0.00646     0.00000     0.00000     0.00000
 483      -0.00149     0.01343     0.04924     0.00000     0.00000     0.00000
 484      -0.00030     0.00476     0.01759     0.00000     0.00000     0.00000
 485      -0.06374     0.02337    -0.00825     0.00000     0.00000     0.00000
 486       0.01370    -0.01510     0.00442     0.00000     0.00000     0.00000
 487       0.00045    -0.00437    -0.01646     0.00000     0.00000     0.00000
 488       0.00037    -0.00330    -0.01203     0.00000     0.00000     0.00000
 489       0.00362    -0.00419     0.00125     0.00000     0.00000     0.00000
 490      -0.00727    -0.00788     0.00191     0.00000     0.00000     0.00000
 491       0.00013    -0.00077    -0.00286     0.00000     0.00000     0.00000
 492      -0.03251    -0.00669     0.00087     0.00000     0.00000     0.00000
 493      -0.00007     0.00055     0.00201     0.00000     0.00000     0.00000
 494       0.01661    -0.00495     0.00185     0.00000     0.00000     0.00000
 495      -0.00009     0.00083     0.00299     0.00000     0.00000     0.00000
 496       0.00263     0.00685    -0.00179     0.00000     0.00000     0.00000
 497      -0.64520    -0.04931    -0.00553     0.00000     0.00000     0.00000
 498      -0.00105     0.02761     0.10994     0.00000     0.00000     0.00000
 499       0.28943    -0.42346     0.12590     0.00000     0.00000     0.00000
 500      -0.00599     0.06341     0.23796     0.00000     0.00000     0.00000
 501      -0.13763     0.00195    -0.00357     0.00000     0.00000     0.00000
 502      -0.09109     0.11223    -0.03342     0.00000     0.00000     0.00000
 503      -0.00131     0.00456     0.00863     0.00000     0.00000     0.00000
 504       0.00050    -0.00415    -0.01356     0.00000     0.00000     0.00000
 505       0.01110    -0.06938     0.01956     0.00000     0.00000     0.00000
 506      -0.00055     0.00807     0.02921     0.00000     0.00000     0.00000
 507      -0.14771    -0.00286    -0.00370     0.00000     0.00000     0.00000
 508       0.00476    -0.05197    -0.19458     0.00000     0.00000     0.00000
 509       0.13892     0.21011    -0.05436     0.00000     0.00000     0.00000
 510      -0.25838     0.06254    -0.02571     0.00000     0.00000     0.00000
 511      -0.00666     0.03859     0.13918     0.00000     0.00000     0.00000
 512      -0.00284     0.01720     0.06664     0.00000     0.00000     0.00000
 513      -0.04502    -0.22455     0.05863     0.00000     0.00000     0.00000
 514      -0.00251     0.02314     0.08629     0.00000     0.00000     0.00000
 515       0.00116    -0.00725    -0.02710     0.00000     0.00000     0.00000
 516      -0.05414    -0.00781     0.00030     0.00000     0.00000     0.00000
 517      -0.01345    -0.00954     0.00191     0.00000     0.00000     0.00000
 518       0.00159    -0.01339    -0.05015     0.00000     0.00000     0.00000
 519       0.00033    -0.00279    -0.00967     0.00000     0.00000     0.00000
 520       0.01833    -0.02736     0.00791     0.00000     0.00000     0.00000
 521      -0.02335    -0.00714     0.00117     0.00000     0.00000     0.00000
 522      -0.00006     0.00141     0.00522     0.00000     0.00000     0.00000
 523       0.00646    -0.01437     0.00423     0.00000     0.00000     0.00000
 524      -0.00038     0.00373     0.01398     0.00000     0.00000     0.00000
 525      -0.01078     0.00519    -0.00173     0.00000     0.00000     0.00000
 526       0.00030    -0.00273    -0.01025     0.00000     0.00000     0.00000
 527      -0.00120    -0.00391     0.00103     0.00000     0.00000     0.00000
 528       0.00374    -0.00898    -0.03262     0.00000     0.00000     0.00000
 529       0.15771    -0.15142     0.04612     0.00000     0.00000     0.00000
 530      -0.01026     0.08671     0.31123     0.00000     0.00000     0.00000
 531       0.07971    -0.21449     0.05952     0.00000     0.00000     0.00000
 532      -0.00239     0.02538     0.09497     0.00000     0.00000     0.00000
 533       0.00128    -0.02368    -0.08371     0.00000     0.00000     0.00000
 534       0.09991     0.00260     0.00072     0.00000     0.00000     0.00000
 535      -0.00153    -0.00576     0.00203     0.00000     0.00000     0.00000
 536      -0.00054     0.00646     0.02352     0.00000     0.00000     0.00000
 537       0.00795    -0.04518     0.01236     0.00000     0.00000     0.00000
 538       0.00025     0.00256     0.00888     0.00000     0.00000     0.00000
 539      -0.18152     0.16682    -0.05010     0.00000     0.00000     0.00000
 540       0.00711    -0.06743    -0.24392     0.00000     0.00000     0.00000
 541       0.00534    -0.02191    -0.07764     0.00000     0.00000     0.00000
 542      -0.25990     0.02250    -0.01528     0.00000     0.00000     0.00000
 543      -0.15420    -0.17527     0.04257     0.00000     0.00000     0.00000
 544       0.00687    -0.05874    -0.22044     0.00000     0.00000     0.00000
 545       0.01176    -0.07552     0.02033     0.00000     0.00000     0.00000
[...]
 229       0.00535    -0.05472    -0.20461
 230       0.11525     0.20724    -0.05426
 231      -0.18493     0.05989    -0.02268
 232      -0.00498     0.03024     0.10888
 233      -0.00265     0.01735     0.06625
 234      -0.05263    -0.17190     0.04424
 235      -0.00221     0.02002     0.07464
 236       0.00082    -0.00582    -0.02172
 237      -0.02343    -0.00617     0.00079
 238       0.00246    -0.00582     0.00146
 239       0.00099    -0.00861    -0.03215
 240       0.00032    -0.00297    -0.01049
 241       0.00746    -0.01252     0.00359
 242      -0.01979    -0.00738     0.00137
 243      -0.00003     0.00110     0.00411
 244      -0.00584    -0.00250     0.00056
 245      -0.00027     0.00273     0.01024
 246      -0.00378     0.00725    -0.00211
 247       0.00038    -0.00325    -0.01219
 248      -0.00619    -0.00053    -0.00006
 249      -0.00026     0.04354     0.15819
 250       0.41243    -0.18562     0.06374
 251      -0.01902     0.15267     0.54858
 252       0.08480    -0.19617     0.05465
 253      -0.00368     0.03963     0.14636
 254       0.00490    -0.02458    -0.08880
 255      -0.14730    -0.03910     0.00481
 256       0.10295     0.03217    -0.00516
 257      -0.00365     0.02616     0.09664
 258       0.04784    -0.00616     0.00263
 259       0.00059    -0.00236    -0.00941
 260      -0.12325     0.16128    -0.04680
 261       0.00731    -0.06897    -0.24962
 262       0.00475    -0.02478    -0.08890
 263      -0.17314     0.00485    -0.00781
 264      -0.12747    -0.13378     0.03209
 265       0.00590    -0.04971    -0.18608
 266       0.00478    -0.06378     0.01700
 267       0.02677     0.01297    -0.00266
 268       0.00053    -0.00280    -0.01088
 269      -0.00051     0.00525     0.01836
 270       0.00300     0.02332    -0.00618
 271      -0.00006    -0.02175     0.00596
 272       0.00029    -0.00299    -0.01125
 273       0.00041    -0.00279    -0.01038
 274       0.01666    -0.00265     0.00120
 275      -0.00032     0.00337     0.01229
 276       0.00426    -0.01031     0.00288
 277       0.00013    -0.00098    -0.00350
 278       0.00540     0.01027    -0.00258
 279       0.00017    -0.00131    -0.00481

 global array: cphf_solve3: work[1:279,1:3],  handle: -986 

            1           2           3  
       ----------- ----------- -----------
   1      -0.00137    -0.00025    -0.00010
   2      -0.00007     0.00046     0.00033
   3       0.00049    -0.00073    -0.00007
   4       0.00020     0.00094     0.00046
   5       0.00077     0.00078     0.00037
   6      -0.00092    -0.00097     0.00052
   7      -0.00010    -0.00025    -0.00151
   8       0.00017    -0.00036     0.00087
   9       0.00025    -0.00072     0.00100
  10      -0.00068    -0.00006     0.00051
  11       0.00034    -0.00104    -0.00036
  12       0.00025     0.00056     0.00029
  13       0.00025     0.00005     0.00005
  14      -0.00000     0.00004    -0.00007
  15      -0.00005    -0.00001    -0.00008
  16      -0.00005    -0.00005    -0.00004
  17      -0.00001     0.00004     0.00001
  18       0.00047     0.00001     0.00001
  19      -0.00003     0.00007    -0.00013
  20       0.00004    -0.00007     0.00014
  21       0.00004     0.00035     0.00010
  22       0.00010    -0.00036    -0.00016
  23      -0.00000     0.00005     0.00001
  24       0.00001    -0.00015    -0.00002
  25       0.00000     0.00016     0.00002
  26       0.00004     0.00003     0.00006
  27      -0.00007    -0.00021    -0.00006
  28       0.00004    -0.00038    -0.00020
  29       0.00018    -0.00049    -0.00009
  30       0.00013     0.00050     0.00035
  31       0.00027     0.00060     0.00011
  32      -0.00089    -0.00009     0.00020
  33       0.00008    -0.00046     0.00042
  34       0.00030    -0.00031     0.00053
  35      -0.00035    -0.00106     0.00074
  36       0.00053     0.00019    -0.00090
  37      -0.00058    -0.00076    -0.00019
  38       0.00021    -0.00053    -0.00088
  39      -0.00030     0.00099     0.00022
  40       0.00022    -0.00091    -0.00098
  41       0.00102     0.00039     0.00026
  42       0.00018    -0.00031     0.00110
  43      -0.00041    -0.00063     0.00044
  44       0.00017    -0.00000    -0.00009
  45      -0.00000     0.00006     0.00008
  46       0.00008    -0.00003    -0.00004
  47       0.00008     0.00005    -0.00005
  48      -0.00001     0.00001    -0.00003
  49      -0.00073    -0.00001    -0.00002
  50       0.00005    -0.00017    -0.00002
  51       0.00003    -0.00011    -0.00015
  52       0.00003     0.00012    -0.00034
  53      -0.00013     0.00041    -0.00028
  54      -0.00000    -0.00006     0.00004
  55      -0.00000    -0.00006     0.00012
  56       0.00001     0.00007    -0.00012
  57      -0.00007    -0.00001     0.00004
  58      -0.00005    -0.00007     0.00019
  59      -0.00004     0.00042    -0.00031
  60       0.00010    -0.00019     0.00042
  61      -0.00024    -0.00051     0.00044
  62       0.00019     0.00024    -0.00048
  63      -0.10246    -0.02341     0.00330
  64       0.00097    -0.00892    -0.03304
  65      -0.08269     0.07511    -0.02285
  66       0.00065    -0.00697    -0.02502
  67      -0.03073    -0.01194     0.00215
  68       0.07806     0.07390    -0.01968
  69      -0.00159     0.02825     0.09936
  70       0.00050    -0.00659    -0.02421
  71      -0.03358     0.04076    -0.01201
  72       0.00088    -0.00667    -0.02346
  73      -0.03427     0.04081    -0.01208
  74       0.00033    -0.00253    -0.00921
  75       0.01410     0.00367    -0.00061
  76       0.02914     0.00077     0.00060
  77      -0.00002     0.00172     0.00634
  78       0.00045    -0.00397    -0.01473
  79       0.00725     0.00945    -0.00235
  80      -0.00007     0.00059     0.00215
  81       0.00002    -0.00009    -0.00036
  82      -0.00536     0.00024    -0.00022
  83       0.00446     0.00218    -0.00045
  84      -0.00005     0.00025     0.00098
  85      -0.00014     0.00123     0.00451
  86      -0.00259    -0.00252     0.00061
  87       0.00419    -0.00193     0.00066
  88      -0.00002     0.00018     0.00066
  89      -0.00114    -0.00065     0.00014
  90       0.00013    -0.00128    -0.00471
  91      -0.00300    -0.00539     0.00137
  92       0.00012    -0.00117    -0.00431
  93      -0.01115    -0.00506     0.00105
  94       0.00028    -0.00011    -0.00053
  95       0.18186    -0.12748     0.04025
  96      -0.00255     0.02256     0.08244
  97      -0.03462    -0.08275     0.02169
  98       0.00134    -0.01447    -0.05241
  99      -0.00021    -0.00485    -0.01844
 100       0.03731    -0.01294     0.00437
 101      -0.07988     0.07283    -0.02232
 102       0.00394    -0.02812    -0.10332
 103       0.15843     0.04306    -0.00665
 104      -0.00149     0.01574     0.05769
 105       0.02243    -0.03458     0.01005
 106      -0.00001    -0.00011    -0.00069
 107      -0.00069     0.00720     0.02582
 108      -0.01376    -0.02436     0.00639
 109      -0.01040     0.01282    -0.00380
 110       0.00071    -0.00648    -0.02373
 111      -0.00239     0.00763    -0.00215
 112      -0.01362    -0.00159     0.00003
 113      -0.00011     0.00072     0.00263
 114      -0.00000     0.00014     0.00045
 115       0.00393     0.00233    -0.00053
 116       0.00074    -0.00352     0.00098
 117      -0.00007     0.00069     0.00254
 118      -0.00017     0.00157     0.00577
 119       0.00824     0.00573    -0.00132
 120      -0.00001     0.00011     0.00038
 121      -0.00671    -0.00831     0.00207
 122       0.00014    -0.00144    -0.00527
 123      -0.01213    -0.00381     0.00068
 124       0.00013    -0.00106    -0.00392
 125       0.97818    -0.23620     0.09398
 126      -0.01524     0.13820     0.51258
 127       0.22943    -0.55178     0.15667
 128      -0.00031     0.00496     0.01986
 129       0.05469     0.13110    -0.03425
 130      -0.09797     0.06912    -0.02310
 131      -0.00397     0.02347     0.08164
 132      -0.00274     0.02445     0.09149
 133      -0.04454    -0.04849     0.01186
 134      -0.00008     0.00039     0.00122
 135       0.14789     0.11283    -0.02650
 136       0.00045    -0.00470    -0.01697
 137       0.06122    -0.05439     0.01688
 138      -0.06687     0.04514    -0.01304
 139       0.00452    -0.04451    -0.16370
 140      -0.00176     0.01614     0.05910
 141      -0.00606    -0.03685     0.00972
 142       0.00023    -0.00213    -0.00792
 143      -0.00053     0.00353     0.01329
 144       0.02887     0.01278    -0.00260
 145       0.01063     0.01563    -0.00395
 146       0.00002    -0.00109    -0.00351
 147       0.00010    -0.00075    -0.00279
 148       0.00171     0.00433    -0.00112
 149      -0.00586     0.00405    -0.00128
 150      -0.00013     0.00127     0.00471
 151      -0.01044     0.00433    -0.00149
 152      -0.00024     0.00225     0.00836
 153       0.00246     0.01215    -0.00323
 154       0.00016    -0.00151    -0.00550
 155      -0.00283    -0.00758     0.00199
 156      -0.00465     0.03943     0.14698
 157       0.25414    -0.84675     0.23797
 158      -0.01307     0.11764     0.42517
 159       0.16973     0.01676     0.00068
 160       0.00286    -0.02094    -0.07697
 161       0.00350    -0.02438    -0.09662
 162      -0.04492    -0.13930     0.03466
 163      -0.16183    -0.16695     0.04082
 164      -0.00177     0.01483     0.05433
 165      -0.10239    -0.03194     0.00552
 166       0.00345    -0.03367    -0.12306
 167       0.02915     0.04459    -0.01095
 168      -0.00118     0.01059     0.03869
 169      -0.00264     0.02941     0.10626
 170      -0.05654    -0.10361     0.02741
 171      -0.02108     0.09463    -0.02655
 172       0.00249    -0.02249    -0.08244
 173      -0.00782     0.01257    -0.00366
 174      -0.04376    -0.00551     0.00024
 175      -0.00009    -0.00014    -0.00048
 176       0.00023    -0.00212    -0.00765
 177       0.00616    -0.00354     0.00123
 178       0.00070     0.00276    -0.00073
 179      -0.00012     0.00107     0.00390
 180       0.00004    -0.00024    -0.00083
 181      -0.00028    -0.00742     0.00201
 182       0.00022    -0.00198    -0.00721
 183       0.00423    -0.00787     0.00226
 184       0.00016    -0.00148    -0.00533
 185       0.00711     0.01021    -0.00254
 186      -0.00026     0.00241     0.00884
 187       1.23568     0.01425     0.03260
 188       0.00964    -0.09625    -0.35495
 189      -0.18366     0.22244    -0.06532
 190      -0.00416     0.03418     0.12584
 191       0.23688    -0.01475     0.01160
 192      -0.12028    -0.08521     0.02246
 193       0.00231    -0.04278    -0.15174
 194       0.00232    -0.01481    -0.05530
 195       0.20705     0.03721    -0.00406
 196      -0.00011    -0.00564    -0.02041
 197       0.01472    -0.05053     0.01408
 198       0.00423    -0.03807    -0.14143
 199       0.01871    -0.00778     0.00274
 200       0.04681     0.17843    -0.04693
 201       0.00067    -0.00319    -0.01605
 202       0.00482    -0.04453    -0.16357
 203      -0.00313     0.02623    -0.00711
 204      -0.00112     0.01011     0.03708
 205      -0.00037     0.00451     0.01668
 206      -0.03312     0.01816    -0.00592
 207       0.00187    -0.00361     0.00094
 208       0.00047    -0.00410    -0.01509
 209       0.00014    -0.00127    -0.00461
 210       0.00258    -0.00588     0.00168
 211      -0.00588    -0.00186     0.00032
 212       0.00001     0.00009     0.00031
 213      -0.00608    -0.00805     0.00202
 214      -0.00004     0.00033     0.00120
 215       0.00431     0.00047    -0.00000
 216      -0.00001     0.00016     0.00053
 217       0.00687     0.00637    -0.00153
 218      -0.45265    -0.11381     0.01825
 219       0.00113     0.01204     0.05245
 220       0.35444    -0.44972     0.13518
 221      -0.00466     0.04630     0.17379
 222      -0.12634    -0.04445     0.00945
 223       0.11923     0.15961    -0.03945
 224       0.00195    -0.00500    -0.02843
 225       0.00010     0.00169     0.00730
 226       0.09946    -0.02317     0.00977
 227      -0.00100     0.00848     0.03096
 228      -0.08885     0.00324    -0.00373
 229       0.00479    -0.04897    -0.18311
 230       0.10007     0.18602    -0.04881
 231      -0.16784     0.05396    -0.02047
 232      -0.00452     0.02748     0.09895
 233      -0.00243     0.01597     0.06098
 234      -0.04804    -0.15791     0.04065
 235      -0.00204     0.01854     0.06913
 236       0.00075    -0.00543    -0.02026
 237      -0.02113    -0.00589     0.00080
 238       0.00217    -0.00602     0.00152
 239       0.00093    -0.00807    -0.03014
 240       0.00031    -0.00280    -0.00989
 241       0.00718    -0.01169     0.00335
 242      -0.01879    -0.00688     0.00127
 243      -0.00003     0.00106     0.00394
 244      -0.00517    -0.00237     0.00054
 245      -0.00026     0.00259     0.00971
 246      -0.00358     0.00718    -0.00208
 247       0.00037    -0.00313    -0.01172
 248      -0.00555    -0.00022    -0.00012
 249      -0.00043     0.02222     0.08071
 250       0.25325    -0.11524     0.03945
 251      -0.01211     0.09777     0.35133
 252       0.06958    -0.16635     0.04625
 253      -0.00322     0.03484     0.12857
 254       0.00412    -0.02055    -0.07425
 255      -0.12674    -0.03306     0.00402
 256       0.08778     0.02843    -0.00467
 257      -0.00307     0.02194     0.08110
 258       0.04053    -0.00498     0.00217
 259       0.00063    -0.00295    -0.01139
 260      -0.11105     0.14441    -0.04193
 261       0.00658    -0.06188    -0.22394
 262       0.00429    -0.02240    -0.08036
 263      -0.15548     0.00398    -0.00693
 264      -0.11495    -0.12209     0.02933
 265       0.00539    -0.04546    -0.17020
 266       0.00420    -0.05911     0.01575
 267       0.02428     0.01213    -0.00251
 268       0.00048    -0.00261    -0.01013
 269      -0.00049     0.00505     0.01768
 270       0.00302     0.02173    -0.00575
 271      -0.00006    -0.02044     0.00560
 272       0.00027    -0.00280    -0.01054
 273       0.00038    -0.00262    -0.00975
 274       0.01591    -0.00262     0.00117
 275      -0.00030     0.00319     0.01166
 276       0.00411    -0.00980     0.00274
 277       0.00013    -0.00101    -0.00361
 278       0.00514     0.00988    -0.00248
 279       0.00017    -0.00134    -0.00490
 -------BEF:g_x1(                   10 )-------START
 -------BEF:g_x1(                   10 )-------END
 -------g_a--------START
 -------g_a--------END
 -------g_b--------START
 -------g_b--------END
 -------g_c(                   10 )--------START
 -------g_c(                   10 )--------END
---------g_xr1-1( 10)-----START
---------g_xr1-1( 10)-----END
---------g_x-1(  1, 10)-----START
---------g_x-1(  1, 10)-----END
---------g_x-1(  2, 10)-----START
---------g_x-1(  2, 10)-----END
---------g_xr1-2( 10)-----START
---------g_xr1-2( 10)-----END
---------g_x-2(  1, 10)-----START
---------g_x-2(  1, 10)-----END
---------g_x-2(  2, 10)-----START
---------g_x-2(  2, 10)-----END
    11     30    5.70D-07     108.6
  int_init: cando_txs set to always be  F
 Optical Rotation: will calculate Beta directly, not G'
 Electric Dipole Response Matrix (nonzero elements):

              1        2        3      
    1   15.1737  -1.7238   0.7226
    2   -1.7238   8.5863  -0.5641
    3    0.7226  -0.5641   6.8826

 DFT Linear Response polarizability / au 
 Frequency  =       0.0773180 / au
 Wavelength =     589.2981324 / nm
              X              Y              Z
 -----------------------------------------------
 X      15.1736511     -1.7237701      0.7226431
 Y      -1.7237701      8.5862659     -0.5640727
 Z       0.7226431     -0.5640727      6.8826311
 -----------------------------------------------
 Eigenvalues =      15.6771754      8.2581835      6.7071892
 Isotropic   =      10.2141827
 Anisotropic =       8.3038448
 -----------------------------------------------

 average:    10.2141827025567       + I    0.00000000000000     

 Magnetic Dipole Response Matrix (nonzero elements):
 Optical rotation tensor Beta

              1        2        3      
    1   -0.0404  -1.0512   3.6858
    2   -0.3247   1.5918 -10.8945
    3   -0.3784   6.3233  -1.3050
 average:   8.215683723559704E-002  + I    0.00000000000000     

 Principal components and PAS (Real part)
               12.0077
              -11.2496
               -0.5117
 ---------------------
 average:       0.0822

              1        2        3      
    1   -0.2619  -0.1900   0.9462
    2    0.7101   0.6261   0.3222
    3   -0.6536   0.7563  -0.0291
 Exiting AOResponse driver routine

 Task  times  cpu:       93.6s     wall:      108.5s
 Summary of allocated global arrays
-----------------------------------
  No active global arrays



                         GA Statistics for process    0
                         ------------------------------

       create   destroy   get      put      acc     scatter   gather  read&inc
calls: 1796     1796     8.40e+05 2.90e+04 3.66e+05  895        0     2338     
number of processes/call 1.00e+00 1.00e+00 1.00e+00 1.00e+00 0.00e+00
bytes total:             3.41e+08 2.35e+07 1.70e+08 8.27e+06 0.00e+00 1.87e+04
bytes remote:            0.00e+00 0.00e+00 0.00e+00 0.00e+00 0.00e+00 0.00e+00
Max memory consumed for GA by this process: 924192 bytes
MA_summarize_allocated_blocks: starting scan ...
MA_summarize_allocated_blocks: scan completed: 0 heap blocks, 0 stack blocks
MA usage statistics:

	allocation statistics:
					      heap	     stack
					      ----	     -----
	current number of blocks	         0	         0
	maximum number of blocks	        25	        53
	current total bytes		         0	         0
	maximum total bytes		   3057488	  22511288
	maximum total K-bytes		      3058	     22512
	maximum total M-bytes		         4	        23


                                NWChem Input Module
                                -------------------





                                     CITATION
                                     --------
                Please cite the following reference when publishing
                           results obtained with NWChem:

                 M. Valiev, E.J. Bylaska, N. Govind, K. Kowalski,
              T.P. Straatsma, H.J.J. van Dam, D. Wang, J. Nieplocha,
                        E. Apra, T.L. Windus, W.A. de Jong
                 "NWChem: a comprehensive and scalable open-source
                  solution for large scale molecular simulations"
                      Comput. Phys. Commun. 181, 1477 (2010)
                           doi:10.1016/j.cpc.2010.04.018

                              AUTHORS & CONTRIBUTORS
                              ----------------------
          E. Apra, E. J. Bylaska, W. A. de Jong, N. Govind, K. Kowalski,
       T. P. Straatsma, M. Valiev, H. J. J. van Dam, D. Wang, T. L. Windus,
        J. Hammond, J. Autschbach, K. Bhaskaran-Nair, J. Brabec, K. Lopata,
     F. Aquino, S. Hirata, M. T. Hackler, T. Risthaus, M. Malagoli, J. Mullin,
        P. Nichols, R. Peverati, J. Pittner, Y. Zhao, P.-D. Fan, A. Fonari,
     R. J. Harrison, M. Dupuis, D. Silverstein, D. M. A. Smith, J. Nieplocha,
       V. Tipparaju, M. Krishnan, B. E. Van Kuiken,  A. Vazquez-Mayagoitia,
        L. Jensen, M. Swart, Q. Wu, T. Van Voorhis, A. A. Auer, M. Nooijen,
      L. D. Crosby, E. Brown, G. Cisneros, G. I. Fann, H. Fruchtl, J. Garza,
   K. Hirao, R. Kendall, J. A. Nichols, K. Tsemekhman, K. Wolinski, J. Anchell,
       D. Bernholdt, P. Borowski, T. Clark, D. Clerc, H. Dachsel, M. Deegan,
        K. Dyall, D. Elwood, E. Glendening, M. Gutowski, A. Hess, J. Jaffe,
   B. Johnson, J. Ju, R. Kobayashi, R. Kutteh, Z. Lin, R. Littlefield, X. Long,
        B. Meng, T. Nakajima, S. Niu, L. Pollack, M. Rosing, K. Glaesemann,
      G. Sandrone, M. Stave, H. Taylor, G. Thomas, J. H. van Lenthe, A. Wong,
                                     Z. Zhang.

 Total times  cpu:       93.6s     wall:      108.6s
