 argument  1 = h2o2-prop-notrans.nw
 


============================== echo of input deck ==============================
echo
start h2o2-prop-notrans

title h2o2-prop-notrans

memory 128 mb

geometry units angstrom nocenter
symmetry c1
  O     -1.917190     -0.120353     -0.010972
  O     -0.426534     -0.047349      0.013490
  H     -0.255812     -0.659080      0.763619
  H     -2.118984      0.784440      0.315334
end

basis
  * library 6-31G**
# * library sto-3g
# * library 3-21g*
end

scf
 direct
end

charge 0

dft
#grid lebedev 100 8
direct
grid fine
#convergence energy 1d-9
 xc xcamb88 1.00 lyp 0.81 vwn_5 0.19 hfexch 1.00
 cam 0.33 cam_alpha 0.19 cam_beta 0.46
#XC slater vwn_5
# XC pbe0
# XC hfexch
iterations 100
tolerances tight
end

cosmo
 dielec 78
end

property
 aoresponse  1  0.077318
 convergence 1e-7
 orbeta
 giao
end

set prop:newaoresp 1

set cphf:thresh 1e-6
set cphf:acc 1.0d-10

task dft property
================================================================================


                                         
                                         
 
 
              Northwest Computational Chemistry Package (NWChem) 6.0
              ------------------------------------------------------
 
 
                    Environmental Molecular Sciences Laboratory
                       Pacific Northwest National Laboratory
                                Richland, WA 99352
 
                              Copyright (c) 1994-2010
                       Pacific Northwest National Laboratory
                            Battelle Memorial Institute
 
             NWChem is an open-source computational chemistry package
                        distributed under the terms of the
                      Educational Community License (ECL) 2.0
             A copy of the license is included with this distribution
                              in the LICENSE.TXT file
 
                                  ACKNOWLEDGMENT
                                  --------------

            This software and its documentation were developed at the
            EMSL at Pacific Northwest National Laboratory, a multiprogram
            national laboratory, operated for the U.S. Department of Energy
            by Battelle under Contract Number DE-AC05-76RL01830. Support
            for this work was provided by the Department of Energy Office
            of Biological and Environmental Research, Office of Basic
            Energy Sciences, and the Office of Advanced Scientific Computing.


           Job information
           ---------------

    hostname      = orion
    program       = ../../../bin/LINUX64/nwchem
    date          = Fri May 13 16:49:02 2011

    compiled      = Wed_May_11_12:18:47_2011
    source        = /home/niri/nwchem/nwchem-trunk
    nwchem branch = Development
    input         = h2o2-prop-notrans.nw
    prefix        = h2o2-prop-notrans.
    data base     = ./h2o2-prop-notrans.db
    status        = startup
    nproc         =        4
    time left     =     -1s



           Memory information
           ------------------

    heap     =    4194305 doubles =     32.0 Mbytes
    stack    =    4194305 doubles =     32.0 Mbytes
    global   =    8388608 doubles =     64.0 Mbytes (distinct from heap & stack)
    total    =   16777218 doubles =    128.0 Mbytes
    verify   = yes
    hardfail = no 


           Directory information
           ---------------------
 
  0 permanent = .
  0 scratch   = .
 
 
 
 
                                NWChem Input Module
                                -------------------
 
 
                                 h2o2-prop-notrans
                                 -----------------

 Scaling coordinates for geometry "geometry" by  1.889725989
 (inverse scale =  0.529177249)

 Turning off AUTOSYM since
 SYMMETRY directive was detected!
 

          ------
          auto-z
          ------
 
 
                             Geometry "geometry" -> ""
                             -------------------------
 
 Output coordinates in angstroms (scale by  1.889725989 to convert to a.u.)
 
  No.       Tag          Charge          X              Y              Z
 ---- ---------------- ---------- -------------- -------------- --------------
    1 O                    8.0000    -1.91719000    -0.12035300    -0.01097200
    2 O                    8.0000    -0.42653400    -0.04734900     0.01349000
    3 H                    1.0000    -0.25581200    -0.65908000     0.76361900
    4 H                    1.0000    -2.11898400     0.78444000     0.31533400
 
      Atomic Mass 
      ----------- 
 
      O                 15.994910
      H                  1.007825
 

 Effective nuclear repulsion energy (a.u.)      35.9572715284

            Nuclear Dipole moment (a.u.) 
            ----------------------------
        X                 Y               Z
 ---------------- ---------------- ----------------
   -39.9196829416    -2.2983905720     2.0769921649
 


                                Z-matrix (autoz)
                                -------- 

 Units are Angstrom for bonds and degrees for angles
 
      Type          Name      I     J     K     L     M      Value
      ----------- --------  ----- ----- ----- ----- ----- ----------
    1 Stretch                  1     2                       1.49264
    2 Stretch                  1     4                       0.98277
    3 Stretch                  2     3                       0.98288
    4 Bend                     1     2     3                98.94762
    5 Bend                     2     1     4                98.89289
    6 Torsion                  3     2     1     4         109.83925
 
 
            XYZ format geometry
            -------------------
     4
 geometry
 O                    -1.91719000    -0.12035300    -0.01097200
 O                    -0.42653400    -0.04734900     0.01349000
 H                    -0.25581200    -0.65908000     0.76361900
 H                    -2.11898400     0.78444000     0.31533400
 
 ==============================================================================
                                internuclear distances
 ------------------------------------------------------------------------------
       center one      |      center two      | atomic units |  angstroms
 ------------------------------------------------------------------------------
    3 H                |   2 O                |     1.85738  |     0.98288
    4 H                |   1 O                |     1.85718  |     0.98278
 ------------------------------------------------------------------------------
                         number of included internuclear distances:          2
 ==============================================================================



  library name resolved from: environment
  library file name is: </home/niri/nwchem/nwchem-trunk/src/basis/libraries/>
  


 Summary of "ao basis" -> "" (cartesian)
 ------------------------------------------------------------------------------
       Tag                 Description            Shells   Functions and Types
 ---------------- ------------------------------  ------  ---------------------
 *                          6-31G**                   on all atoms 


                              NWChem Property Module
                              ----------------------
 
 
                                 h2o2-prop-notrans
 
 
                                 NWChem DFT Module
                                 -----------------
 
 
                                 h2o2-prop-notrans
 
 
                      Basis "ao basis" -> "ao basis" (cartesian)
                      -----
  O (Oxygen)
  ----------
            Exponent  Coefficients 
       -------------- ---------------------------------------------------------
  1 S  5.48467170E+03  0.001831
  1 S  8.25234950E+02  0.013950
  1 S  1.88046960E+02  0.068445
  1 S  5.29645000E+01  0.232714
  1 S  1.68975700E+01  0.470193
  1 S  5.79963530E+00  0.358521
 
  2 S  1.55396160E+01 -0.110778
  2 S  3.59993360E+00 -0.148026
  2 S  1.01376180E+00  1.130767
 
  3 P  1.55396160E+01  0.070874
  3 P  3.59993360E+00  0.339753
  3 P  1.01376180E+00  0.727159
 
  4 S  2.70005800E-01  1.000000
 
  5 P  2.70005800E-01  1.000000
 
  6 D  8.00000000E-01  1.000000
 
  H (Hydrogen)
  ------------
            Exponent  Coefficients 
       -------------- ---------------------------------------------------------
  1 S  1.87311370E+01  0.033495
  1 S  2.82539370E+00  0.234727
  1 S  6.40121700E-01  0.813757
 
  2 S  1.61277800E-01  1.000000
 
  3 P  1.10000000E+00  1.000000
 


 Summary of "ao basis" -> "ao basis" (cartesian)
 ------------------------------------------------------------------------------
       Tag                 Description            Shells   Functions and Types
 ---------------- ------------------------------  ------  ---------------------
 O                          6-31G**                  6       15   3s2p1d
 H                          6-31G**                  3        5   2s1p



          ---------------
          -cosmo- solvent
          ---------------
 dielectric constant -eps-  =  78.00
 charge screening approach  =   2
 screen = (eps-1)/(eps    ) =   0.98718
 -lineq- algorithm          =   1
 -bem- low  level           =   2
 -bem- high level           =   3
 -bem- from -octahedral-
 solvent radius (ang.)      =   0.000
 atomic radii = 
 --------------
    1  8.000  1.720
    2  8.000  1.720
    3  1.000  1.300
    4  1.000  1.300

 solvent accessible surface
 --------------------------

 ---------- ATOMIC COORDINATES (A.U.) ------------ VDWR(ANG.) --
     1   -3.62296377   -0.22743419   -0.02073407     1.720
     2   -0.80603238   -0.08947664    0.02549240     1.720
     3   -0.48341458   -1.24548060    1.44303067     1.300
     4   -4.00429913    1.48237665    0.59589485     1.300
 number of segments per atom =         32
 number of   points per atom =        128
 atom (   nspa,  nppa )
 ----------------------
    1 (     25,    72 )      72
    2 (     22,    72 )      72
    3 (     16,    54 )      54
    4 (     17,    54 )      54
 number of -cosmo- surface points =       80
 molecular surface =     59.742 angstrom**2
 molecular volume  =     31.744 angstrom**3
 G(cav/disp)       =      1.159 kcal/mol
 ...... end of -cosmo- initialization ......


  int_init: cando_txs set to always be  F
  Caching 1-el integrals 
 
            General Information
            -------------------
          SCF calculation type: DFT
          Wavefunction type:  closed shell.
          No. of atoms     :     4
          No. of electrons :    18
           Alpha electrons :     9
            Beta electrons :     9
          Charge           :     0
          Spin multiplicity:     1
          Use of symmetry is: off; symmetry adaption is: off
          Maximum number of iterations: 100
          This is a Direct SCF calculation.
          AO basis - number of functions:    40
                     number of shells:    18
          Convergence on energy requested: 1.00D-06
          Convergence on density requested: 1.00D-05
          Convergence on gradient requested: 5.00D-04
 
              XC Information
              --------------
                     Hartree-Fock (Exact) Exchange  1.000          
                   CAM-Becke88 Exchange Functional  1.000          
                      VWN V Correlation Functional  0.190 local    
              Lee-Yang-Parr Correlation Functional  0.810          
 
             Grid Information
             ----------------
          Grid used for XC integration:  fine      
          Radial quadrature: Mura-Knowles        
          Angular quadrature: Lebedev. 
          Tag              B.-S. Rad. Rad. Pts. Rad. Cut. Ang. Pts.
          ---              ---------- --------- --------- ---------
          O                   0.60       70           7.0       590
          H                   0.35       60           8.0       590
          Grid pruning is: on 
          Number of quadrature shells:   260
          Spatial weights used:  Erf1
 
          Convergence Information
          -----------------------
          Convergence aids based upon iterative change in 
          total energy or number of iterations. 
          Levelshifting, if invoked, occurs when the 
          HOMO/LUMO gap drops below (HL_TOL): 1.00D-02
          DIIS, if invoked, will attempt to extrapolate 
          using up to (NFOCK): 10 stored Fock matrices.

                    Damping( 0%)  Levelshifting(0.5)       DIIS
                  --------------- ------------------- ---------------
          dE  on:    start            ASAP                start   
          dE off:    2 iters        100 iters           100 iters 

 
      Screening Tolerance Information
      -------------------------------
          Density screening/tol_rho: 1.00D-10
          AO Gaussian exp screening on grid/accAOfunc:  14
          CD Gaussian exp screening on grid/accCDfunc:  20
          XC Gaussian exp screening on grid/accXCfunc:  20
          Schwarz screening/accCoul: 1.00D-08

 
      Superposition of Atomic Density Guess
      -------------------------------------
 
 Sum of atomic energies:        -150.50516954
 
      Non-variational initial energy
      ------------------------------

 Total energy =    -150.594795
 1-e energy   =    -278.464274
 2-e energy   =      91.912208
 HOMO         =      -0.358501
 LUMO         =      -0.027548
 
   Time after variat. SCF:      0.1
   Time prior to 1st pass:      0.1

 Grid_pts file          = ./h2o2-prop-notrans.gridpts.0
 Record size in doubles =  12289        No. of grid_pts per rec  =   3070
 Max. records in memory =     15        Max. recs in file   =    235561


           Memory utilization after 1st SCF pass: 
           Heap Space remaining (MW):        4.01             4009389
          Stack Space remaining (MW):        4.19             4193971

   convergence    iter        energy       DeltaE   RMS-Dens  Diis-err    time
 ---------------- ----- ----------------- --------- --------- ---------  ------
     COSMO gas phase
 d= 0,ls=0.0,diis     1   -151.4629844969 -1.87D+02  1.14D-02  3.09D-01     0.3
 d= 0,ls=0.0,diis     2   -151.4887292620 -2.57D-02  1.52D-03  1.46D-02     0.5
 d= 0,ls=0.0,diis     3   -151.4900010405 -1.27D-03  3.82D-04  3.93D-04     0.7
 d= 0,ls=0.0,diis     4   -151.4900380760 -3.70D-05  9.94D-05  6.18D-05     0.9
 d= 0,ls=0.0,diis     5   -151.4900434181 -5.34D-06  3.14D-05  2.53D-06     1.1
 d= 0,ls=0.0,diis     6   -151.4900437417 -3.24D-07  7.76D-06  9.37D-08     1.3
 printing cosmo charges for bq module
 ./cosmo.xyz                                                                    
                                                                                
                                                                                
                   

           Memory utilization after 1st SCF pass: 
           Heap Space remaining (MW):        4.01             4009389
          Stack Space remaining (MW):        4.19             4193971

   convergence    iter        energy       DeltaE   RMS-Dens  Diis-err    time
 ---------------- ----- ----------------- --------- --------- ---------  ------
     COSMO solvation phase
 d= 0,ls=0.0,diis     1   -151.5034779737 -1.34D-02  2.78D-03  7.16D-03     1.6
 printing cosmo charges for bq module
 ./cosmo.xyz                                                                    
                                                                                
                                                                                
                   
 d= 0,ls=0.0,diis     2   -151.5050218246 -1.54D-03  6.51D-04  1.28D-03     1.8
 printing cosmo charges for bq module
 ./cosmo.xyz                                                                    
                                                                                
                                                                                
                   
 d= 0,ls=0.0,diis     3   -151.5051388869 -1.17D-04  3.14D-04  2.53D-04     2.1
 printing cosmo charges for bq module
 ./cosmo.xyz                                                                    
                                                                                
                                                                                
                   
 d= 0,ls=0.0,diis     4   -151.5051688920 -3.00D-05  9.26D-05  1.31D-05     2.3
 printing cosmo charges for bq module
 ./cosmo.xyz                                                                    
                                                                                
                                                                                
                   
 d= 0,ls=0.0,diis     5   -151.5051705557 -1.66D-06  2.13D-05  9.22D-07     2.6
 printing cosmo charges for bq module
 ./cosmo.xyz                                                                    
                                                                                
                                                                                
                   
 d= 0,ls=0.0,diis     6   -151.5051707005 -1.45D-07  1.02D-05  5.69D-07     2.9
 printing cosmo charges for bq module
 ./cosmo.xyz                                                                    
                                                                                
                                                                                
                   
 d= 0,ls=0.0,diis     7   -151.5051706576  4.29D-08  2.62D-06  1.56D-09     3.1


         Total DFT energy =     -151.505170657621
      One electron energy =     -279.998590868386
           Coulomb energy =      110.257400147472
    Exchange-Corr. energy =      -17.776110336376
 Nuclear repulsion energy =       35.957271528420

 Numeric. integr. density =       17.999999682735

     Total iterative time =      3.1s


                  COSMO solvation results
                  -----------------------
  
                 gas phase energy =      -151.4900437417
                 sol phase energy =      -151.5051706576
 (electrostatic) solvation energy =         0.0151269160 (    9.49 kcal/mol)
 
                       DFT Final Molecular Orbital Analysis
                       ------------------------------------
 
 Vector    1  Occ=2.000000D+00  E=-1.927613D+01
              MO Center= -1.9D+00, -1.2D-01, -1.1D-02, r^2= 4.0D-02
   Bfn.  Coefficient  Atom+Function         Bfn.  Coefficient  Atom+Function  
  ----- ------------  ---------------      ----- ------------  ---------------
     1     -0.987281  1 O  s          
 
 Vector    2  Occ=2.000000D+00  E=-1.927586D+01
              MO Center= -4.4D-01, -4.8D-02,  1.3D-02, r^2= 4.0D-02
   Bfn.  Coefficient  Atom+Function         Bfn.  Coefficient  Atom+Function  
  ----- ------------  ---------------      ----- ------------  ---------------
    16     -0.987282  2 O  s          
 
 Vector    3  Occ=2.000000D+00  E=-1.172040D+00
              MO Center= -1.2D+00, -6.2D-02,  8.0D-02, r^2= 8.3D-01
   Bfn.  Coefficient  Atom+Function         Bfn.  Coefficient  Atom+Function  
  ----- ------------  ---------------      ----- ------------  ---------------
     2     -0.335151  1 O  s                 17     -0.334514  2 O  s          
     6     -0.288162  1 O  s                 21     -0.287693  2 O  s          
     1      0.150294  1 O  s                 16      0.150034  2 O  s          
 
 Vector    4  Occ=2.000000D+00  E=-9.669130D-01
              MO Center= -1.2D+00, -5.0D-02,  1.3D-01, r^2= 1.3D+00
   Bfn.  Coefficient  Atom+Function         Bfn.  Coefficient  Atom+Function  
  ----- ------------  ---------------      ----- ------------  ---------------
    21     -0.375212  2 O  s                  6      0.374410  1 O  s          
    17     -0.349912  2 O  s                  2      0.349068  1 O  s          
    16      0.154589  2 O  s                  1     -0.154226  1 O  s          
 
 Vector    5  Occ=2.000000D+00  E=-5.769176D-01
              MO Center= -1.2D+00, -5.7D-02,  9.8D-02, r^2= 1.2D+00
   Bfn.  Coefficient  Atom+Function         Bfn.  Coefficient  Atom+Function  
  ----- ------------  ---------------      ----- ------------  ---------------
     3     -0.301983  1 O  px                18      0.288470  2 O  px         
    20      0.281885  2 O  pz                 4      0.216863  1 O  py         
     5      0.182392  1 O  pz                36      0.174936  4 H  s          
    31      0.173414  3 H  s                  7     -0.162469  1 O  px         
    24      0.156753  2 O  pz                22      0.155068  2 O  px         
 
 Vector    6  Occ=2.000000D+00  E=-5.483081D-01
              MO Center= -1.2D+00, -7.2D-02,  4.7D-02, r^2= 1.3D+00
   Bfn.  Coefficient  Atom+Function         Bfn.  Coefficient  Atom+Function  
  ----- ------------  ---------------      ----- ------------  ---------------
     4      0.381455  1 O  py                19      0.330948  2 O  py         
     6     -0.246707  1 O  s                 21      0.244402  2 O  s          
     8      0.224247  1 O  py                23      0.201173  2 O  py         
    20     -0.190103  2 O  pz                31     -0.150249  3 H  s          
 
 Vector    7  Occ=2.000000D+00  E=-4.794669D-01
              MO Center= -1.2D+00, -1.1D-01, -8.4D-02, r^2= 1.3D+00
   Bfn.  Coefficient  Atom+Function         Bfn.  Coefficient  Atom+Function  
  ----- ------------  ---------------      ----- ------------  ---------------
    18     -0.332141  2 O  px                 3      0.315550  1 O  px         
    20      0.283895  2 O  pz                 5      0.277171  1 O  pz         
    22     -0.208359  2 O  px                21     -0.200061  2 O  s          
     6     -0.198399  1 O  s                  7      0.196624  1 O  px         
    24      0.195236  2 O  pz                 9      0.193403  1 O  pz         
 
 Vector    8  Occ=2.000000D+00  E=-3.803899D-01
              MO Center= -1.2D+00, -6.4D-02,  7.2D-02, r^2= 1.2D+00
   Bfn.  Coefficient  Atom+Function         Bfn.  Coefficient  Atom+Function  
  ----- ------------  ---------------      ----- ------------  ---------------
    19      0.449637  2 O  py                 4     -0.346113  1 O  py         
    23      0.317786  2 O  py                 5      0.293356  1 O  pz         
     8     -0.236462  1 O  py                 9      0.221280  1 O  pz         
 
 Vector    9  Occ=2.000000D+00  E=-3.498240D-01
              MO Center= -1.2D+00, -9.2D-02, -3.0D-02, r^2= 1.2D+00
   Bfn.  Coefficient  Atom+Function         Bfn.  Coefficient  Atom+Function  
  ----- ------------  ---------------      ----- ------------  ---------------
     5     -0.482388  1 O  pz                20      0.402778  2 O  pz         
     9     -0.353338  1 O  pz                24      0.286606  2 O  pz         
    19      0.263986  2 O  py                23      0.207559  2 O  py         
 
 Vector   10  Occ=0.000000D+00  E= 6.939368D-02
              MO Center= -1.2D+00, -6.4D-02,  7.5D-02, r^2= 1.5D+00
   Bfn.  Coefficient  Atom+Function         Bfn.  Coefficient  Atom+Function  
  ----- ------------  ---------------      ----- ------------  ---------------
    22      0.533753  2 O  px                 7      0.530530  1 O  px         
    21     -0.529394  2 O  s                  6      0.528624  1 O  s          
    18      0.485611  2 O  px                 3      0.484351  1 O  px         
    32      0.301539  3 H  s                 37     -0.300275  4 H  s          
    17     -0.162822  2 O  s                  2      0.162701  1 O  s          
 
 Vector   11  Occ=0.000000D+00  E= 1.433247D-01
              MO Center= -1.2D+00,  1.0D-01,  6.5D-01, r^2= 3.3D+00
   Bfn.  Coefficient  Atom+Function         Bfn.  Coefficient  Atom+Function  
  ----- ------------  ---------------      ----- ------------  ---------------
    37     -1.035500  4 H  s                 32     -1.022391  3 H  s          
     6      0.674860  1 O  s                 21      0.667982  2 O  s          
     8      0.363220  1 O  py                24      0.303261  2 O  pz         
    23     -0.239185  2 O  py                 4      0.192099  1 O  py         
    20      0.164424  2 O  pz         
 
 Vector   12  Occ=0.000000D+00  E= 1.910506D-01
              MO Center= -1.2D+00,  6.3D-02,  5.9D-01, r^2= 3.2D+00
   Bfn.  Coefficient  Atom+Function         Bfn.  Coefficient  Atom+Function  
  ----- ------------  ---------------      ----- ------------  ---------------
    32      1.080671  3 H  s                 37     -1.066385  4 H  s          
    21     -0.505768  2 O  s                  6      0.496184  1 O  s          
     8      0.371518  1 O  py                24     -0.317889  2 O  pz         
     7     -0.270004  1 O  px                22     -0.257817  2 O  px         
    23      0.253354  2 O  py                 4      0.219086  1 O  py         
 
 Vector   13  Occ=0.000000D+00  E= 8.145882D-01
              MO Center= -1.2D+00,  7.9D-03,  2.7D-01, r^2= 2.3D+00
   Bfn.  Coefficient  Atom+Function         Bfn.  Coefficient  Atom+Function  
  ----- ------------  ---------------      ----- ------------  ---------------
    37      0.557597  4 H  s                 36     -0.557293  4 H  s          
    31     -0.532453  3 H  s                 32      0.529973  3 H  s          
     4      0.448999  1 O  py                 8     -0.358256  1 O  py         
    19     -0.329124  2 O  py                20      0.302755  2 O  pz         
    23      0.271305  2 O  py                29      0.227538  2 O  dyz        
 
 Vector   14  Occ=0.000000D+00  E= 8.319337D-01
              MO Center= -1.1D+00, -3.7D-02,  2.3D-01, r^2= 2.6D+00
   Bfn.  Coefficient  Atom+Function         Bfn.  Coefficient  Atom+Function  
  ----- ------------  ---------------      ----- ------------  ---------------
    22      0.717917  2 O  px                 7      0.702504  1 O  px         
    32      0.568300  3 H  s                 31     -0.557339  3 H  s          
    37     -0.548176  4 H  s                 36      0.535157  4 H  s          
     6      0.462117  1 O  s                 21     -0.449376  2 O  s          
    18     -0.353654  2 O  px                 3     -0.337357  1 O  px         
 
 Vector   15  Occ=0.000000D+00  E= 8.772763D-01
              MO Center= -1.2D+00, -5.0D-02,  1.3D-01, r^2= 2.2D+00
   Bfn.  Coefficient  Atom+Function         Bfn.  Coefficient  Atom+Function  
  ----- ------------  ---------------      ----- ------------  ---------------
    21     -0.591760  2 O  s                  6      0.591055  1 O  s          
     7     -0.494172  1 O  px                22     -0.485308  2 O  px         
     2     -0.445933  1 O  s                 17      0.445815  2 O  s          
    32      0.404563  3 H  s                 23     -0.403480  2 O  py         
    37     -0.401623  4 H  s                 19      0.393608  2 O  py         
 
 Vector   16  Occ=0.000000D+00  E= 8.870366D-01
              MO Center= -1.2D+00, -1.6D-01, -2.9D-01, r^2= 1.7D+00
   Bfn.  Coefficient  Atom+Function         Bfn.  Coefficient  Atom+Function  
  ----- ------------  ---------------      ----- ------------  ---------------
    21      0.825995  2 O  s                  6      0.825578  1 O  s          
     5      0.530735  1 O  pz                 9     -0.496319  1 O  pz         
    24     -0.494586  2 O  pz                17     -0.479112  2 O  s          
     2     -0.478774  1 O  s                 20      0.472081  2 O  pz         
    32     -0.317292  3 H  s                 37     -0.315932  4 H  s          
 
 Vector   17  Occ=0.000000D+00  E= 9.776545D-01
              MO Center= -1.2D+00, -5.0D-02,  1.2D-01, r^2= 2.0D+00
   Bfn.  Coefficient  Atom+Function         Bfn.  Coefficient  Atom+Function  
  ----- ------------  ---------------      ----- ------------  ---------------
    23      0.668376  2 O  py                 6      0.603642  1 O  s          
    21      0.593826  2 O  s                  8     -0.568116  1 O  py         
    19     -0.404091  2 O  py                 2     -0.372930  1 O  s          
    17     -0.365732  2 O  s                 22     -0.354941  2 O  px         
     9      0.343213  1 O  pz                 5     -0.327905  1 O  pz         
 
 Vector   18  Occ=0.000000D+00  E= 1.011737D+00
              MO Center= -1.2D+00, -9.2D-02, -1.8D-02, r^2= 2.4D+00
   Bfn.  Coefficient  Atom+Function         Bfn.  Coefficient  Atom+Function  
  ----- ------------  ---------------      ----- ------------  ---------------
     9     -0.698888  1 O  pz                32      0.595033  3 H  s          
    37     -0.587682  4 H  s                 23      0.530633  2 O  py         
    21     -0.520452  2 O  s                  6      0.507329  1 O  s          
     5      0.506460  1 O  pz                24      0.465637  2 O  pz         
    19     -0.458683  2 O  py                22     -0.421572  2 O  px         
 
 Vector   19  Occ=0.000000D+00  E= 1.040997D+00
              MO Center= -1.2D+00, -3.4D-02,  1.9D-01, r^2= 2.6D+00
   Bfn.  Coefficient  Atom+Function         Bfn.  Coefficient  Atom+Function  
  ----- ------------  ---------------      ----- ------------  ---------------
    21     -1.174999  2 O  s                  6     -1.173974  1 O  s          
    32      0.622976  3 H  s                 37      0.620085  4 H  s          
     7      0.617013  1 O  px                22     -0.602797  2 O  px         
     3     -0.522976  1 O  px                18      0.511317  2 O  px         
    17      0.498302  2 O  s                  2      0.497968  1 O  s          
 

 center of mass
 --------------
 x =  -2.21623830 y =  -0.14204216 z =   0.06266607

 moments of inertia (a.u.)
 ------------------
           6.387547374161           1.747281041067          -2.487786111268
           1.747281041067          72.049305789041           0.579445044105
          -2.487786111268           0.579445044105          73.756390994034
 
     Multipole analysis of the density
     ---------------------------------
 
     L   x y z        total         alpha         beta         nuclear
     -   - - -        -----         -----         ----         -------
     0   0 0 0      0.000000     -9.000000     -9.000000     18.000000
 
     1   1 0 0     -0.026507     19.946588     19.946588    -39.919683
     1   0 1 0      0.239945      1.269168      1.269168     -2.298391
     1   0 0 1      0.902861     -0.587065     -0.587065      2.076992
 
     2   2 0 0     -7.873863    -67.173201    -67.173201    126.472539
     2   1 1 0     -2.892249     -2.363654     -2.363654      1.835059
     2   1 0 1     -1.350064      0.648545      0.648545     -2.647155
     2   0 2 0     -7.256552     -5.741537     -5.741537      4.226522
     2   0 1 1     -0.475703      0.209373      0.209373     -0.894449
     2   0 0 2     -8.019204     -5.232635     -5.232635      2.446066
 
 Entering AOResponse driver routine


--------------------------------------------------------------------------------

          ****************
          *** RESPONSE ***
          ****************

 Response module for NWChem and dynamic CPKS solver
 developed by J. Autschbach and coworkers, SUNY Buffalo
 The methodology used in this program is described in 
 J. Chem. Phys. 123 (2005), 114103
 J. Chem. Phys. 122 (2005), 224115
 J. Chem. Phys. 122 (2005), 074105
 Comp. Lett. 3 (2007), 131-150 (contact JA for a copy)
 Please cite this work in publications based on results
 obtained with this code. Thank you!

 *** NOTE: enabled ORBETA because of GIAO keyword ***
  int_init: cando_txs set to always be  F
 Computing some B-field data ...

          ------------------------------------------------------
          Calculating magnetic field perturbed MO vectors (GIAO)
          ------------------------------------------------------

                                NWChem CPHF Module
                                ------------------
 
 

          ---------------
          -cosmo- solvent
          ---------------
 dielectric constant -eps-  =  78.00
 charge screening approach  =   2
 screen = (eps-1)/(eps    ) =   0.98718
 -lineq- algorithm          =   1
 -bem- low  level           =   2
 -bem- high level           =   3
 -bem- from -octahedral-
 solvent radius (ang.)      =   0.000
 atomic radii = 
 --------------
    1  8.000  1.720
    2  8.000  1.720
    3  1.000  1.300
    4  1.000  1.300

 solvent accessible surface
 --------------------------

 ---------- ATOMIC COORDINATES (A.U.) ------------ VDWR(ANG.) --
     1   -3.62296377   -0.22743419   -0.02073407     1.720
     2   -0.80603238   -0.08947664    0.02549240     1.720
     3   -0.48341458   -1.24548060    1.44303067     1.300
     4   -4.00429913    1.48237665    0.59589485     1.300
 number of segments per atom =         32
 number of   points per atom =        128
 atom (   nspa,  nppa )
 ----------------------
    1 (     25,    72 )      72
    2 (     22,    72 )      72
    3 (     16,    54 )      54
    4 (     17,    54 )      54
 number of -cosmo- surface points =       80
 molecular surface =     59.742 angstrom**2
 molecular volume  =     31.744 angstrom**3
 G(cav/disp)       =      1.159 kcal/mol
 ...... end of -cosmo- initialization ......


  int_init: cando_txs set to always be  F
  scftype          =     RHF 
  nclosed          =        9
  nopen            =        0
  variables        =      279
  # of vectors     =        3
  tolerance        = 0.10D-05
  level shift      = 0.00D+00
  max iterations   =       50
  max subspace     =       30

 printing cosmo charges for bq module
 ./cosmo.xyz                                                                    
                                                                                
                                                                                
                   
residual=     0.00001243


Iterative solution of linear equations
  No. of variables      279
  No. of equations        3
  Maximum subspace       30
        Iterations       50
       Convergence  1.0D-06
        Start time      5.5


   iter   nsub   residual    time
   ----  ------  --------  ---------
     1      3    6.96D-01       5.9
     2      6    1.46D-01       6.4
     3      9    3.97D-02       6.8
     4     12    4.39D-03       7.2
     5     15    4.96D-04       7.7
     6     18    4.03D-05       8.1
     7     21    3.37D-06       8.5
     8     24    2.26D-07       9.0
 ... done. Reinitializing integrals
  int_init: cando_txs set to always be  F

          -----------------------------------------------
          Solving response equations for perturbing field
          -----------------------------------------------

 number of frequencies:     1
 frequency in a.u.:  0.7731800E-01
 Perturbing field: electric
 Using GIAO formalism
 *** WARNING, GIAO FUNCTIONALITY NOT WELL TESTED ***
 Using Dipole Length Gauge
 
 Setting up CPKS with frequency omega =      0.07731800 a.u.

 
                            NWChem Dynamic CPHF Module
                            --------------------------
 
 

          ---------------
          -cosmo- solvent
          ---------------
 dielectric constant -eps-  =  78.00
 charge screening approach  =   2
 screen = (eps-1)/(eps    ) =   0.98718
 -lineq- algorithm          =   1
 -bem- low  level           =   2
 -bem- high level           =   3
 -bem- from -octahedral-
 solvent radius (ang.)      =   0.000
 atomic radii = 
 --------------
    1  8.000  1.720
    2  8.000  1.720
    3  1.000  1.300
    4  1.000  1.300

 solvent accessible surface
 --------------------------

 ---------- ATOMIC COORDINATES (A.U.) ------------ VDWR(ANG.) --
     1   -3.62296377   -0.22743419   -0.02073407     1.720
     2   -0.80603238   -0.08947664    0.02549240     1.720
     3   -0.48341458   -1.24548060    1.44303067     1.300
     4   -4.00429913    1.48237665    0.59589485     1.300
 number of segments per atom =         32
 number of   points per atom =        128
 atom (   nspa,  nppa )
 ----------------------
    1 (     25,    72 )      72
    2 (     22,    72 )      72
    3 (     16,    54 )      54
    4 (     17,    54 )      54
 number of -cosmo- surface points =       80
 molecular surface =     59.742 angstrom**2
 molecular volume  =     31.744 angstrom**3
 G(cav/disp)       =      1.159 kcal/mol
 ...... end of -cosmo- initialization ......


  int_init: cando_txs set to always be  F
    scftype = RHF 
    nclosed =    9
      nopen =    0
  variables =      558
  num. vecs =        3
  tolerance =   1.0D-06
  max. iter =   50

 printing cosmo charges for bq module
 ./cosmo.xyz                                                                    
                                                                                
                                                                                
                   


Iterative solution of linear equations
  No. of variables      558
  No. of equations        3
  Maximum subspace       30
       Convergence  1.0D-06
        Start time      9.3


   iter   nsub   residual    time 
   ----  ------  --------  --------- 
     1      3    2.69D+00      10.1
     2      6    1.66D+00      11.0
     3      9    1.17D-01      11.9
     4     12    3.15D-02      12.8
     5     15    6.84D-03      13.7
     6     18    1.49D-03      14.5
     7     21    6.34D-04      15.4
     8     24    9.78D-05      16.3
     9     27    2.00D-05      17.2
    10     30    3.46D-06      18.0
    11     30    5.41D-07      18.9
  int_init: cando_txs set to always be  F
 Optical Rotation: will calculate Beta directly, not G'
 Electric Dipole Response Matrix (nonzero elements):

              1        2        3      
    1   15.1808  -1.7135   0.7207
    2   -1.7135   8.5726  -0.5560
    3    0.7207  -0.5560   6.8743

 DFT Linear Response polarizability / au 
 Frequency  =       0.0773180 / au
 Wavelength =     589.2981324 / nm
              X              Y              Z
 -----------------------------------------------
 X      15.1808466     -1.7135147      0.7207292
 Y      -1.7135147      8.5725833     -0.5559711
 Z       0.7207292     -0.5559711      6.8742868
 -----------------------------------------------
 Eigenvalues =      15.6775159      6.7025324      8.2476684
 Isotropic   =      10.2092389
 Anisotropic =       8.3108486
 -----------------------------------------------
 
 average:    10.2092389047514       + I   0.000000000000000E+000
 
 Magnetic Dipole Response Matrix (nonzero elements):
 Optical rotation tensor Beta

              1        2        3      
    1   -0.0397  -1.0653   3.6704
    2   -0.3196   1.5921 -10.8744
    3   -0.3715   6.3184  -1.3047
 average:   8.256936544173624E-002  + I   0.000000000000000E+000
 
 Principal components and PAS (Real part)
               11.9893
              -11.2225
               -0.5191
 ---------------------
 average:       0.0826

              1        2        3      
    1   -0.2622  -0.1886   0.9464
    2    0.7102   0.6262   0.3216
    3   -0.6533   0.7565  -0.0303
 Exiting AOResponse driver routine

          -------------
          Dipole Moment
          -------------
  int_init: cando_txs set to always be  F

 Center of charge (in au) is the expansion point
         X =      -2.2177602 Y =      -0.1276884 Z =       0.1153885

   Dipole moment        0.9345774022 A.U.
             DMX       -0.0265065653 DMXEFC        0.0000000000
             DMY        0.2399450849 DMYEFC        0.0000000000
             DMZ        0.9028613842 DMZEFC        0.0000000000
   -EFC- dipole         0.0000000000 A.U.
   Total dipole         0.9345774022 A.U.

   Dipole moment        2.3754767663 Debye(s)
             DMX       -0.0673734779 DMXEFC        0.0000000000
             DMY        0.6098841818 DMYEFC        0.0000000000
             DMZ        2.2948620801 DMZEFC        0.0000000000
   -EFC- dipole         0.0000000000 DEBYE(S)
   Total dipole         2.3754767663 DEBYE(S)

 1 a.u. = 2.541766 Debyes 

 Task  times  cpu:       17.8s     wall:       18.8s
 
 
                                NWChem Input Module
                                -------------------
 
 
 Summary of allocated global arrays
-----------------------------------
  array 0 => double precision DFT CPKS RHS(1,40,40),  handle: -983 
  array 1 => double precision DFT CPKS RHS(1,40,40),  handle: -979 



                         GA Statistics for process    0
                         ------------------------------

       create   destroy   get      put      acc     scatter   gather  read&inc
calls: 1414     1412     2.19e+05 9046     9.16e+04  643        0        0     
number of processes/call 1.25e+00 3.11e+00 1.29e+00 3.08e+00 0.00e+00
bytes total:             9.46e+07 7.97e+06 4.64e+07 9.99e+05 0.00e+00 0.00e+00
bytes remote:            6.00e+07 2.53e+06 3.45e+07 -1.15e+06 0.00e+00 0.00e+00
Max memory consumed for GA by this process: 293264 bytes
 
MA_summarize_allocated_blocks: starting scan ...
MA_summarize_allocated_blocks: scan completed: 0 heap blocks, 0 stack blocks
MA usage statistics:

	allocation statistics:
					      heap	     stack
					      ----	     -----
	current number of blocks	         0	         0
	maximum number of blocks	        21	        50
	current total bytes		         0	         0
	maximum total bytes		   1479328	  22511288
	maximum total K-bytes		      1480	     22512
	maximum total M-bytes		         2	        23
 
 
                                     CITATION
                                     --------
                Please cite the following reference when publishing
                           results obtained with NWChem:
 
                 M. Valiev, E.J. Bylaska, N. Govind, K. Kowalski,
              T.P. Straatsma, H.J.J. van Dam, D. Wang, J. Nieplocha,
                        E. Apra, T.L. Windus, W.A. de Jong
                 "NWChem: a comprehensive and scalable open-source
                  solution for large scale molecular simulations"
                      Comput. Phys. Commun. 181, 1477 (2010)
                           doi:10.1016/j.cpc.2010.04.018
 
                              AUTHORS & CONTRIBUTORS
                              ----------------------
      E. J. Bylaska, W. A. de Jong, N. Govind, K. Kowalski, T. P. Straatsma,
     M. Valiev, H. J. J. van Dam, D. Wang, E. Apra, T. L. Windus, J. Hammond,
     J. Autschbach, P. Nichols, S. Hirata, M. T. Hackler, Y. Zhao, P.-D. Fan,
      R. J. Harrison, M. Dupuis, D. M. A. Smith, K. Glaesemann, J. Nieplocha,
      V. Tipparaju, M. Krishnan, A. Vazquez-Mayagoitia, L. Jensen, M. Swart,
      Q. Wu, T. Van Voorhis, A. A. Auer, M. Nooijen, L. D. Crosby, E. Brown,
             G. Cisneros, G. I. Fann, H. Fruchtl, J. Garza, K. Hirao,
        R. Kendall, J. A. Nichols, K. Tsemekhman, K. Wolinski, J. Anchell,
       D. Bernholdt, P. Borowski, T. Clark, D. Clerc, H. Dachsel, M. Deegan,
        K. Dyall, D. Elwood, E. Glendening, M. Gutowski, A. Hess, J. Jaffe,
        B. Johnson, J. Ju, R. Kobayashi, R. Kutteh, Z. Lin, R. Littlefield,
    X. Long, B. Meng, T. Nakajima, S. Niu, L. Pollack, M. Rosing, G. Sandrone,
       M. Stave, H. Taylor, G. Thomas, J. H. van Lenthe, A. Wong, Z. Zhang.

 Total times  cpu:       17.8s     wall:       19.0s
