 argument  1 = /data/edo/nwchem/nwchem-x2c-pr/QA/tests/ch3radical_unrot_mp/ch3radical_unrot_mp.nw



============================== echo of input deck ==============================
echo

start ch3radical_unrot_mp
title ch3radical_unrot_mp

geometry noautoz units angstrom nocenter
symmetry c1
c  0.0    0.0    0.0
h  1.028  0.0   -0.350
h -0.514  0.890 -0.350
h -0.514 -0.890 -0.350
end

BASIS "ao basis" PRINT
 * library 6-311G
END

relativistic
 zora on
 zora:cutoff_NMR 1d-8
 zora:cutoff 1d-30
# modelpotentia 1 = 4c density, 2 = 2c density
 modelpotential 2
end

dft
 odft
 mult 2
 xc b3lyp
end
task dft

property
 gshift
 hyperfine
 shielding
end
task dft property
================================================================================


                                         
                                         


             Northwest Computational Chemistry Package (NWChem) 7.0.1
             --------------------------------------------------------


                    Environmental Molecular Sciences Laboratory
                       Pacific Northwest National Laboratory
                                Richland, WA 99352

                              Copyright (c) 1994-2020
                       Pacific Northwest National Laboratory
                            Battelle Memorial Institute

             NWChem is an open-source computational chemistry package
                        distributed under the terms of the
                      Educational Community License (ECL) 2.0
             A copy of the license is included with this distribution
                              in the LICENSE.TXT file

                                  ACKNOWLEDGMENT
                                  --------------

            This software and its documentation were developed at the
            EMSL at Pacific Northwest National Laboratory, a multiprogram
            national laboratory, operated for the U.S. Department of Energy
            by Battelle under Contract Number DE-AC05-76RL01830. Support
            for this work was provided by the Department of Energy Office
            of Biological and Environmental Research, Office of Basic
            Energy Sciences, and the Office of Advanced Scientific Computing.


           Job information
           ---------------

    hostname        = durian
    program         = /data/edo/nwchem/nwchem-x2c-pr/bin/LINUX64/nwchem
    date            = Thu Jan 27 14:36:41 2022

    compiled        = Thu_Jan_27_14:29:19_2022
    source          = /data/edo/nwchem/nwchem-x2c-pr
    nwchem branch   = 7.0.0
    nwchem revision = nwchem_on_git-3232-g76accf1d1d
    ga revision     = 5.8.1
    use scalapack   = T
    input           = /data/edo/nwchem/nwchem-x2c-pr/QA/tests/ch3radical_unrot_mp/ch3radical_unrot_mp.nw
    prefix          = ch3radical_unrot_mp.
    data base       = ./ch3radical_unrot_mp.db
    status          = startup
    nproc           =        2
    time left       =     -1s



           Memory information
           ------------------

    heap     =   26214398 doubles =    200.0 Mbytes
    stack    =   26214395 doubles =    200.0 Mbytes
    global   =   52428800 doubles =    400.0 Mbytes (distinct from heap & stack)
    total    =  104857593 doubles =    800.0 Mbytes
    verify   = yes
    hardfail = no 


           Directory information
           ---------------------

  0 permanent = .
  0 scratch   = .




                                NWChem Input Module
                                -------------------


                                ch3radical_unrot_mp
                                -------------------

 Scaling coordinates for geometry "geometry" by  1.889725989
 (inverse scale =  0.529177249)

 Turning off AUTOSYM since
 SYMMETRY directive was detected!



                             Geometry "geometry" -> ""
                             -------------------------

 Output coordinates in angstroms (scale by  1.889725989 to convert to a.u.)

  No.       Tag          Charge          X              Y              Z
 ---- ---------------- ---------- -------------- -------------- --------------
    1 c                    6.0000     0.00000000     0.00000000     0.00000000
    2 h                    1.0000     1.02800000     0.00000000    -0.35000000
    3 h                    1.0000    -0.51400000     0.89000000    -0.35000000
    4 h                    1.0000    -0.51400000    -0.89000000    -0.35000000

      Atomic Mass 
      ----------- 

      c                 12.000000
      h                  1.007825


 Effective nuclear repulsion energy (a.u.)       9.6642548292

            Nuclear Dipole moment (a.u.) 
            ----------------------------
        X                 Y               Z
 ---------------- ---------------- ----------------
     0.0000000000     0.0000000000    -1.9842122880


            XYZ format geometry
            -------------------
     4
 geometry
 c                     0.00000000     0.00000000     0.00000000
 h                     1.02800000     0.00000000    -0.35000000
 h                    -0.51400000     0.89000000    -0.35000000
 h                    -0.51400000    -0.89000000    -0.35000000

 ==============================================================================
                                internuclear distances
 ------------------------------------------------------------------------------
       center one      |      center two      | atomic units |  angstroms
 ------------------------------------------------------------------------------
    2 h                |   1 c                |     2.05214  |     1.08595
    3 h                |   1 c                |     2.05172  |     1.08572
    4 h                |   1 c                |     2.05172  |     1.08572
 ------------------------------------------------------------------------------
                         number of included internuclear distances:          3
 ==============================================================================



 ==============================================================================
                                 internuclear angles
 ------------------------------------------------------------------------------
        center 1       |       center 2       |       center 3       |  degrees
 ------------------------------------------------------------------------------
    2 h                |   1 c                |   3 h                |   110.14
    2 h                |   1 c                |   4 h                |   110.14
    3 h                |   1 c                |   4 h                |   110.12
 ------------------------------------------------------------------------------
                            number of included internuclear angles:          3
 ==============================================================================





 Summary of "ao basis" -> "" (cartesian)
 ------------------------------------------------------------------------------
       Tag                 Description            Shells   Functions and Types
 ---------------- ------------------------------  ------  ---------------------
 *                           6-311G                   on all atoms 



                                 NWChem DFT Module
                                 -----------------


                                ch3radical_unrot_mp


                      Basis "ao basis" -> "ao basis" (cartesian)
                      -----
  c (Carbon)
  ----------
            Exponent  Coefficients 
       -------------- ---------------------------------------------------------
  1 S  4.56324000E+03  0.001967
  1 S  6.82024000E+02  0.015231
  1 S  1.54973000E+02  0.076127
  1 S  4.44553000E+01  0.260801
  1 S  1.30290000E+01  0.616462
  1 S  1.82773000E+00  0.221006

  2 S  2.09642000E+01  0.114660
  2 S  4.80331000E+00  0.919999
  2 S  1.45933000E+00 -0.003031

  3 P  2.09642000E+01  0.040249
  3 P  4.80331000E+00  0.237594
  3 P  1.45933000E+00  0.815854

  4 S  4.83456000E-01  1.000000

  5 P  4.83456000E-01  1.000000

  6 S  1.45585000E-01  1.000000

  7 P  1.45585000E-01  1.000000

  h (Hydrogen)
  ------------
            Exponent  Coefficients 
       -------------- ---------------------------------------------------------
  1 S  3.38650000E+01  0.025494
  1 S  5.09479000E+00  0.190373
  1 S  1.15879000E+00  0.852161

  2 S  3.25840000E-01  1.000000

  3 S  1.02741000E-01  1.000000



 Summary of "ao basis" -> "ao basis" (cartesian)
 ------------------------------------------------------------------------------
       Tag                 Description            Shells   Functions and Types
 ---------------- ------------------------------  ------  ---------------------
 c                           6-311G                  7       13   4s3p
 h                           6-311G                  3        3   3s




 Summary of "ao basis" -> "ao basis" (cartesian)
 ------------------------------------------------------------------------------
       Tag                 Description            Shells   Functions and Types
 ---------------- ------------------------------  ------  ---------------------
 c                           6-311G                  7       13   4s3p
 h                           6-311G                  3        3   3s



 Using Relativistic ZORA Model Potential Approach
 C. van Wullen, J. Chem. Phys. 109, 392 (1998)
 C. van Wullen, C. Michauk, J. Chem. Phys. 123, 204113 (2005)

 Reading Model Potential File:
 /data/edo/nwchem/nwchem-x2c-pr/src/basis/libraries/rel-modelpotentials/modbas.2c

  Caching 1-el integrals 

            General Information
            -------------------
          SCF calculation type: DFT
          Wavefunction type:  spin polarized.
          No. of atoms     :     4
          No. of electrons :     9
           Alpha electrons :     5
            Beta electrons :     4
          Charge           :     0
          Spin multiplicity:     2
          Use of symmetry is: off; symmetry adaption is: off
          Maximum number of iterations:  50
          AO basis - number of functions:    22
                     number of shells:    16
          Convergence on energy requested:  1.00D-06
          Convergence on density requested:  1.00D-05
          Convergence on gradient requested:  5.00D-04

              XC Information
              --------------
                         B3LYP Method XC Potential
                     Hartree-Fock (Exact) Exchange  0.200          
                        Slater Exchange Functional  0.800 local    
                    Becke 1988 Exchange Functional  0.720 non-local
              Lee-Yang-Parr Correlation Functional  0.810          
                  VWN I RPA Correlation Functional  0.190 local    

             Grid Information
             ----------------
          Grid used for XC integration:  medium    
          Radial quadrature: Mura-Knowles        
          Angular quadrature: Lebedev. 
          Tag              B.-S. Rad. Rad. Pts. Rad. Cut. Ang. Pts.
          ---              ---------- --------- --------- ---------
          c                   0.70       49           6.0       434
          h                   0.35       45           7.0       434
          Grid pruning is: on 
          Number of quadrature shells:   184
          Spatial weights used:  Erf1

          Convergence Information
          -----------------------
          Convergence aids based upon iterative change in 
          total energy or number of iterations. 
          Levelshifting, if invoked, occurs when the 
          HOMO/LUMO gap drops below (HL_TOL):  1.00D-02
          DIIS, if invoked, will attempt to extrapolate 
          using up to (NFOCK): 10 stored Fock matrices.

                    Damping( 0%)  Levelshifting(0.5)       DIIS
                  --------------- ------------------- ---------------
          dE  on:    start            ASAP                start   
          dE off:    2 iters         50 iters            50 iters 


      Screening Tolerance Information
      -------------------------------
          Density screening/tol_rho:  1.00D-10
          AO Gaussian exp screening on grid/accAOfunc:  14
          CD Gaussian exp screening on grid/accCDfunc:  20
          XC Gaussian exp screening on grid/accXCfunc:  20
          Schwarz screening/accCoul:  1.00D-08

 dft: using ZORA

      Superposition of Atomic Density Guess
      -------------------------------------

 Sum of atomic energies:         -39.16798055
          Performing ZORA calculations
          ----------------------------


 Read atomic ZORA corrections from ./ch3radical_unrot_mp.zora_sf

 dft_zora_read: failed to open./ch3radical_unrot_mp.zora_sf
       Generating atomic ZORA corrections
       ----------------------------------

 In dft_scf:: zora:Knucl= F

 Grid_pts file          = ./ch3radical_unrot_mp.gridpts.0
 Record size in doubles =  12289        No. of grid_pts per rec  =   3070
 Max. records in memory =     16        Max. recs in file   =   1396756


 Wrote atomic ZORA corrections to ./ch3radical_unrot_mp.zora_sf


      Superposition of Atomic Density Guess
      -------------------------------------

 Sum of atomic energies:         -39.16798055

      Non-variational initial energy
      ------------------------------

 Total energy =     -39.485764
 1-e energy   =     -70.478707
 2-e energy   =      21.328688
 HOMO         =      -0.204961
 LUMO         =       0.110541

   Time after variat. SCF:      0.8
   Time prior to 1st pass:      0.8

 #quartets = 9.316D+03 #integrals = 2.804D+04 #direct =  0.0% #cached =100.0%


 Integral file          = ./ch3radical_unrot_mp.aoints.0
 Record size in doubles =  65536        No. of integs per rec  =  43688
 Max. records in memory =      3        Max. records in file   = 261910
 No. of bits per label  =      8        No. of bits per value  =     64


File balance: exchanges=     0  moved=     0  time=   0.0


           Memory utilization after 1st SCF pass: 
           Heap Space remaining (MW):       25.82            25819582
          Stack Space remaining (MW):       26.21            26213044

   convergence    iter        energy       DeltaE   RMS-Dens  Diis-err    time
 ---------------- ----- ----------------- --------- --------- ---------  ------
 d= 0,ls=0.0,diis     1    -39.8389604614 -4.95D+01  4.85D-03  3.54D-02     1.0
                                                     4.29D-03  3.67D-02
 d= 0,ls=0.0,diis     2    -39.8521548524 -1.32D-02  2.38D-03  2.12D-03     1.1
                                                     2.04D-03  2.66D-03
 d= 0,ls=0.0,diis     3    -39.8528472182 -6.92D-04  1.07D-03  1.69D-03     1.3
                                                     6.16D-04  8.95D-04
 d= 0,ls=0.0,diis     4    -39.8535401532 -6.93D-04  8.10D-05  1.99D-06     1.5
                                                     1.84D-04  2.72D-05
 d= 0,ls=0.0,diis     5    -39.8535551063 -1.50D-05  7.98D-05  1.07D-06     1.7
                                                     7.29D-05  9.92D-07
  Resetting Diis
 d= 0,ls=0.0,diis     6    -39.8535569387 -1.83D-06  9.08D-06  1.67D-08     1.9
                                                     5.21D-06  5.70D-09
 d= 0,ls=0.0,diis     7    -39.8535569538 -1.50D-08  1.15D-06  8.67D-11     2.1
                                                     4.32D-07  1.21D-10
(nogshift,skip_gshiftAOev,done_Fji)=( 1,F,F)


         Total DFT energy =      -39.853556953751
      One electron energy =      -71.613805355507
           Coulomb energy =       28.594778564512
    Exchange-Corr. energy =       -6.498784991955
 Nuclear repulsion energy =        9.664254829200

       Scaling correction =        0.008762252967

 Numeric. integr. density =        9.000000812117

     Total iterative time =      1.3s



                    DFT Final Alpha Molecular Orbital Analysis
                    ------------------------------------------

 Vector    1  Occ=1.000000D+00  E=-1.019053D+01
              MO Center= -5.6D-08,  1.2D-14, -4.0D-05, r^2= 2.8D-02
   Bfn.  Coefficient  Atom+Function         Bfn.  Coefficient  Atom+Function  
  ----- ------------  ---------------      ----- ------------  ---------------
     1      0.564089  1 C  s                  2      0.462674  1 C  s          

 Vector    2  Occ=1.000000D+00  E=-7.005947D-01
              MO Center= -1.9D-04,  8.3D-11, -1.9D-01, r^2= 9.4D-01
   Bfn.  Coefficient  Atom+Function         Bfn.  Coefficient  Atom+Function  
  ----- ------------  ---------------      ----- ------------  ---------------
     6      0.486143  1 C  s                 10      0.360596  1 C  s          
     2     -0.176907  1 C  s                  1     -0.112110  1 C  s          
    14      0.097916  2 H  s                 17      0.097977  3 H  s          
    20      0.097977  4 H  s                 15      0.080513  2 H  s          
    18      0.080544  3 H  s                 21      0.080544  4 H  s          

 Vector    3  Occ=1.000000D+00  E=-4.145961D-01
              MO Center=  2.4D-01, -1.1D-06, -1.6D-01, r^2= 1.2D+00
   Bfn.  Coefficient  Atom+Function         Bfn.  Coefficient  Atom+Function  
  ----- ------------  ---------------      ----- ------------  ---------------
     7      0.320132  1 C  px                15      0.238371  2 H  s          
     3      0.210923  1 C  px                11      0.184116  1 C  px         
    14      0.175948  2 H  s                 18     -0.119168  3 H  s          
    21     -0.119169  4 H  s                 16      0.114405  2 H  s          
    17     -0.087968  3 H  s                 20     -0.087968  4 H  s          

 Vector    4  Occ=1.000000D+00  E=-4.145845D-01
              MO Center= -2.4D-01,  1.1D-06, -1.6D-01, r^2= 1.2D+00
   Bfn.  Coefficient  Atom+Function         Bfn.  Coefficient  Atom+Function  
  ----- ------------  ---------------      ----- ------------  ---------------
     8      0.320136  1 C  py                 4      0.210947  1 C  py         
    18      0.206432  3 H  s                 21     -0.206432  4 H  s          
    12      0.184112  1 C  py                17      0.152383  3 H  s          
    20     -0.152383  4 H  s                 19      0.099082  3 H  s          
    22     -0.099082  4 H  s          

 Vector    5  Occ=1.000000D+00  E=-2.623991D-01
              MO Center=  1.7D-06,  6.2D-12,  2.0D-01, r^2= 1.1D+00
   Bfn.  Coefficient  Atom+Function         Bfn.  Coefficient  Atom+Function  
  ----- ------------  ---------------      ----- ------------  ---------------
    13      0.458567  1 C  pz                 9      0.400723  1 C  pz         
     5      0.262112  1 C  pz                10      0.210287  1 C  s          
     6      0.167876  1 C  s                  2     -0.053793  1 C  s          
    14     -0.039054  2 H  s                 15     -0.038986  2 H  s          
    17     -0.039039  3 H  s                 18     -0.038952  3 H  s          

 Vector    6  Occ=0.000000D+00  E= 5.462478D-02
              MO Center=  1.9D-04, -6.6D-10, -4.7D-01, r^2= 4.7D+00
   Bfn.  Coefficient  Atom+Function         Bfn.  Coefficient  Atom+Function  
  ----- ------------  ---------------      ----- ------------  ---------------
    10      1.869111  1 C  s                 16     -0.920342  2 H  s          
    19     -0.920011  3 H  s                 22     -0.920011  4 H  s          
    13     -0.359637  1 C  pz                 6      0.200566  1 C  s          
     2     -0.091962  1 C  s                  9     -0.084716  1 C  pz         
     1     -0.057919  1 C  s                  5     -0.055982  1 C  pz         

 Vector    7  Occ=0.000000D+00  E= 1.189330D-01
              MO Center=  7.3D-01,  3.3D-06, -4.9D-01, r^2= 4.3D+00
   Bfn.  Coefficient  Atom+Function         Bfn.  Coefficient  Atom+Function  
  ----- ------------  ---------------      ----- ------------  ---------------
    16      2.003156  2 H  s                 11     -1.104536  1 C  px         
    19     -1.002031  3 H  s                 22     -1.002023  4 H  s          
     7     -0.231408  1 C  px                 3     -0.171592  1 C  px         
    15      0.060283  2 H  s                 14      0.031846  2 H  s          
    18     -0.030068  3 H  s                 21     -0.030067  4 H  s          

 Vector    8  Occ=0.000000D+00  E= 1.189575D-01
              MO Center= -7.3D-01, -3.3D-06, -4.9D-01, r^2= 4.3D+00
   Bfn.  Coefficient  Atom+Function         Bfn.  Coefficient  Atom+Function  
  ----- ------------  ---------------      ----- ------------  ---------------
    19      1.735454  3 H  s                 22     -1.735459  4 H  s          
    12     -1.104522  1 C  py                 8     -0.231376  1 C  py         
     4     -0.171579  1 C  py                18      0.052138  3 H  s          
    21     -0.052139  4 H  s                 17      0.027555  3 H  s          
    20     -0.027555  4 H  s          

 Vector    9  Occ=0.000000D+00  E= 2.878064D-01
              MO Center=  1.5D-01, -3.5D-07,  1.0D-01, r^2= 2.9D+00
   Bfn.  Coefficient  Atom+Function         Bfn.  Coefficient  Atom+Function  
  ----- ------------  ---------------      ----- ------------  ---------------
    12      1.378678  1 C  py                18     -1.075684  3 H  s          
    21      1.075683  4 H  s                 19      0.263090  3 H  s          
    22     -0.263090  4 H  s                 17     -0.081884  3 H  s          
    20      0.081884  4 H  s          

 Vector   10  Occ=0.000000D+00  E= 2.878345D-01
              MO Center= -1.5D-01,  3.5D-07,  1.0D-01, r^2= 2.9D+00
   Bfn.  Coefficient  Atom+Function         Bfn.  Coefficient  Atom+Function  
  ----- ------------  ---------------      ----- ------------  ---------------
    11      1.378820  1 C  px                15     -1.242530  2 H  s          
    18      0.620844  3 H  s                 21      0.620846  4 H  s          
    16      0.304188  2 H  s                 19     -0.151590  3 H  s          
    22     -0.151590  4 H  s                 14     -0.094574  2 H  s          
    17      0.047224  3 H  s                 20      0.047224  4 H  s          

 Vector   11  Occ=0.000000D+00  E= 3.862469D-01
              MO Center=  1.3D-04, -1.1D-11, -3.7D-01, r^2= 2.5D+00
   Bfn.  Coefficient  Atom+Function         Bfn.  Coefficient  Atom+Function  
  ----- ------------  ---------------      ----- ------------  ---------------
    13      1.370326  1 C  pz                10     -1.204582  1 C  s          
    15      0.706768  2 H  s                 18      0.707256  3 H  s          
    21      0.707256  4 H  s                  9     -0.615348  1 C  pz         
     5     -0.175900  1 C  pz                 6     -0.173828  1 C  s          
     2      0.061894  1 C  s                 14      0.040036  2 H  s          

 Vector   12  Occ=0.000000D+00  E= 4.430206D-01
              MO Center= -3.4D-04, -1.9D-10,  4.3D-02, r^2= 2.3D+00
   Bfn.  Coefficient  Atom+Function         Bfn.  Coefficient  Atom+Function  
  ----- ------------  ---------------      ----- ------------  ---------------
    10      1.593983  1 C  s                 15     -1.021562  2 H  s          
    18     -1.022227  3 H  s                 21     -1.022227  4 H  s          
     9     -0.652554  1 C  pz                16      0.190442  2 H  s          
    19      0.189044  3 H  s                 22      0.189044  4 H  s          
     5     -0.182103  1 C  pz                13      0.133584  1 C  pz         

 Vector   13  Occ=0.000000D+00  E= 5.831077D-01
              MO Center=  2.7D-01,  5.4D-07, -1.8D-01, r^2= 2.9D+00
   Bfn.  Coefficient  Atom+Function         Bfn.  Coefficient  Atom+Function  
  ----- ------------  ---------------      ----- ------------  ---------------
    16     -1.862854  2 H  s                 11      1.776793  1 C  px         
     7     -1.059984  1 C  px                19      0.931325  3 H  s          
    22      0.931321  4 H  s                 15      0.585365  2 H  s          
    18     -0.293469  3 H  s                 21     -0.293468  4 H  s          
     3     -0.278100  1 C  px                14      0.083002  2 H  s          

 Vector   14  Occ=0.000000D+00  E= 5.831515D-01
              MO Center= -2.7D-01, -5.4D-07, -1.8D-01, r^2= 2.9D+00
   Bfn.  Coefficient  Atom+Function         Bfn.  Coefficient  Atom+Function  
  ----- ------------  ---------------      ----- ------------  ---------------
    12      1.776606  1 C  py                19     -1.613532  3 H  s          
    22      1.613534  4 H  s                  8     -1.060027  1 C  py         
    18      0.507646  3 H  s                 21     -0.507647  4 H  s          
     4     -0.278098  1 C  py                17      0.071894  3 H  s          
    20     -0.071894  4 H  s          

 Vector   15  Occ=0.000000D+00  E= 7.124730D-01
              MO Center= -3.7D-04,  8.9D-11, -2.8D-01, r^2= 2.7D+00
   Bfn.  Coefficient  Atom+Function         Bfn.  Coefficient  Atom+Function  
  ----- ------------  ---------------      ----- ------------  ---------------
    10      4.135320  1 C  s                  6     -2.118706  1 C  s          
    16     -0.909471  2 H  s                 19     -0.910534  3 H  s          
    22     -0.910534  4 H  s                 13     -0.645796  1 C  pz         
     2      0.266757  1 C  s                 15     -0.182830  2 H  s          
    18     -0.182550  3 H  s                 21     -0.182550  4 H  s          

 Vector   16  Occ=0.000000D+00  E= 2.154459D+00
              MO Center= -1.1D-05, -4.8D-09, -3.3D-01, r^2= 2.0D+00
   Bfn.  Coefficient  Atom+Function         Bfn.  Coefficient  Atom+Function  
  ----- ------------  ---------------      ----- ------------  ---------------
    15      1.349951  2 H  s                 18      1.350098  3 H  s          
    21      1.350098  4 H  s                 14     -0.861401  2 H  s          
    17     -0.861418  3 H  s                 20     -0.861418  4 H  s          
    10     -0.800376  1 C  s                  9      0.387573  1 C  pz         
     5     -0.336528  1 C  pz                16     -0.281888  2 H  s          

 Vector   17  Occ=0.000000D+00  E= 2.209055D+00
              MO Center=  5.2D-01, -3.1D-06, -3.6D-01, r^2= 1.8D+00
   Bfn.  Coefficient  Atom+Function         Bfn.  Coefficient  Atom+Function  
  ----- ------------  ---------------      ----- ------------  ---------------
    15      1.752261  2 H  s                 14     -1.166927  2 H  s          
    16     -0.981981  2 H  s                 18     -0.876173  3 H  s          
    21     -0.876182  4 H  s                  7     -0.671504  1 C  px         
    17      0.583431  3 H  s                 20      0.583437  4 H  s          
    19      0.490859  3 H  s                 22      0.490864  4 H  s          

 Vector   18  Occ=0.000000D+00  E= 2.209101D+00
              MO Center= -5.2D-01,  3.1D-06, -3.6D-01, r^2= 1.8D+00
   Bfn.  Coefficient  Atom+Function         Bfn.  Coefficient  Atom+Function  
  ----- ------------  ---------------      ----- ------------  ---------------
    18      1.517669  3 H  s                 21     -1.517664  4 H  s          
    17     -1.010648  3 H  s                 20      1.010644  4 H  s          
    19     -0.850411  3 H  s                 22      0.850408  4 H  s          
     8     -0.671207  1 C  py                 4      0.472947  1 C  py         
    12      0.148124  1 C  py         

 Vector   19  Occ=0.000000D+00  E= 2.622664D+00
              MO Center=  2.3D-05, -2.0D-11, -2.1D-02, r^2= 8.5D-01
   Bfn.  Coefficient  Atom+Function         Bfn.  Coefficient  Atom+Function  
  ----- ------------  ---------------      ----- ------------  ---------------
     9      1.439712  1 C  pz                 5     -1.270774  1 C  pz         
    13     -0.682572  1 C  pz                10      0.421151  1 C  s          
    15     -0.312814  2 H  s                 18     -0.312721  3 H  s          
    21     -0.312721  4 H  s                 14      0.279041  2 H  s          
    17      0.278977  3 H  s                 20      0.278977  4 H  s          

 Vector   20  Occ=0.000000D+00  E= 2.876291D+00
              MO Center=  1.8D-02, -7.1D-08,  1.2D-02, r^2= 9.1D-01
   Bfn.  Coefficient  Atom+Function         Bfn.  Coefficient  Atom+Function  
  ----- ------------  ---------------      ----- ------------  ---------------
     8      1.611122  1 C  py                 4     -1.268494  1 C  py         
    12     -1.060754  1 C  py                17     -0.512976  3 H  s          
    20      0.512975  4 H  s                 18      0.375139  3 H  s          
    21     -0.375138  4 H  s                 19      0.368764  3 H  s          
    22     -0.368763  4 H  s          

 Vector   21  Occ=0.000000D+00  E= 2.876386D+00
              MO Center= -1.7D-02,  7.0D-08,  1.2D-02, r^2= 9.1D-01
   Bfn.  Coefficient  Atom+Function         Bfn.  Coefficient  Atom+Function  
  ----- ------------  ---------------      ----- ------------  ---------------
     7      1.610958  1 C  px                 3     -1.268443  1 C  px         
    11     -1.060724  1 C  px                14     -0.592391  2 H  s          
    15      0.433366  2 H  s                 16      0.425510  2 H  s          
    17      0.296311  3 H  s                 20      0.296313  4 H  s          
    18     -0.216744  3 H  s                 21     -0.216745  4 H  s          

 Vector   22  Occ=0.000000D+00  E= 2.325961D+01
              MO Center= -3.4D-06, -1.9D-13, -4.4D-03, r^2= 9.5D-02
   Bfn.  Coefficient  Atom+Function         Bfn.  Coefficient  Atom+Function  
  ----- ------------  ---------------      ----- ------------  ---------------
     2     -2.170492  1 C  s                  1      2.025184  1 C  s          
    10     -0.518166  1 C  s                  6      0.457665  1 C  s          
    16      0.105910  2 H  s                 19      0.105964  3 H  s          
    22      0.105964  4 H  s                 13      0.066711  1 C  pz         
     9     -0.028433  1 C  pz         


                     DFT Final Beta Molecular Orbital Analysis
                     -----------------------------------------

 Vector    1  Occ=1.000000D+00  E=-1.017510D+01
              MO Center= -5.4D-08,  2.6D-14, -1.0D-04, r^2= 2.8D-02
   Bfn.  Coefficient  Atom+Function         Bfn.  Coefficient  Atom+Function  
  ----- ------------  ---------------      ----- ------------  ---------------
     1      0.564600  1 C  s                  2      0.462690  1 C  s          

 Vector    2  Occ=1.000000D+00  E=-6.647676D-01
              MO Center= -2.1D-04,  9.4D-11, -2.3D-01, r^2= 9.6D-01
   Bfn.  Coefficient  Atom+Function         Bfn.  Coefficient  Atom+Function  
  ----- ------------  ---------------      ----- ------------  ---------------
     6      0.455935  1 C  s                 10      0.298527  1 C  s          
     2     -0.167705  1 C  s                  1     -0.107193  1 C  s          
    15      0.106448  2 H  s                 18      0.106495  3 H  s          
    21      0.106495  4 H  s                 14      0.103440  2 H  s          
    17      0.103508  3 H  s                 20      0.103508  4 H  s          

 Vector    3  Occ=1.000000D+00  E=-4.022204D-01
              MO Center=  2.6D-01, -9.7D-07, -1.7D-01, r^2= 1.2D+00
   Bfn.  Coefficient  Atom+Function         Bfn.  Coefficient  Atom+Function  
  ----- ------------  ---------------      ----- ------------  ---------------
     7      0.300202  1 C  px                15      0.257117  2 H  s          
     3      0.204309  1 C  px                14      0.181512  2 H  s          
    11      0.169144  1 C  px                16      0.131595  2 H  s          
    18     -0.128527  3 H  s                 21     -0.128528  4 H  s          
    17     -0.090742  3 H  s                 20     -0.090743  4 H  s          

 Vector    4  Occ=1.000000D+00  E=-4.022074D-01
              MO Center= -2.6D-01,  9.7D-07, -1.7D-01, r^2= 1.2D+00
   Bfn.  Coefficient  Atom+Function         Bfn.  Coefficient  Atom+Function  
  ----- ------------  ---------------      ----- ------------  ---------------
     8      0.300206  1 C  py                18      0.222658  3 H  s          
    21     -0.222658  4 H  s                  4      0.204333  1 C  py         
    12      0.169144  1 C  py                17      0.157198  3 H  s          
    20     -0.157198  4 H  s                 19      0.113967  3 H  s          
    22     -0.113967  4 H  s          

 Vector    5  Occ=0.000000D+00  E=-8.552255D-02
              MO Center=  7.0D-06,  1.7D-11,  2.5D-01, r^2= 1.3D+00
   Bfn.  Coefficient  Atom+Function         Bfn.  Coefficient  Atom+Function  
  ----- ------------  ---------------      ----- ------------  ---------------
    13      0.592553  1 C  pz                 9      0.300473  1 C  pz         
    10      0.232930  1 C  s                  5      0.228795  1 C  pz         
     6      0.157129  1 C  s                  2     -0.056476  1 C  s          
     1     -0.036120  1 C  s                 14     -0.035492  2 H  s          
    17     -0.035485  3 H  s                 20     -0.035485  4 H  s          

 Vector    6  Occ=0.000000D+00  E= 5.998783D-02
              MO Center=  1.2D-04, -7.5D-10, -4.7D-01, r^2= 4.8D+00
   Bfn.  Coefficient  Atom+Function         Bfn.  Coefficient  Atom+Function  
  ----- ------------  ---------------      ----- ------------  ---------------
    10      1.906441  1 C  s                 16     -0.932511  2 H  s          
    19     -0.932259  3 H  s                 22     -0.932259  4 H  s          
    13     -0.364071  1 C  pz                 6      0.179233  1 C  s          
     2     -0.089983  1 C  s                  9     -0.086908  1 C  pz         
     1     -0.057449  1 C  s                  5     -0.057225  1 C  pz         

 Vector    7  Occ=0.000000D+00  E= 1.250028D-01
              MO Center=  7.3D-01,  3.5D-06, -5.0D-01, r^2= 4.4D+00
   Bfn.  Coefficient  Atom+Function         Bfn.  Coefficient  Atom+Function  
  ----- ------------  ---------------      ----- ------------  ---------------
    16      2.039865  2 H  s                 11     -1.097166  1 C  px         
    19     -1.020328  3 H  s                 22     -1.020320  4 H  s          
     7     -0.219087  1 C  px                 3     -0.171184  1 C  px         

 Vector    8  Occ=0.000000D+00  E= 1.250254D-01
              MO Center= -7.3D-01, -3.5D-06, -5.0D-01, r^2= 4.4D+00
   Bfn.  Coefficient  Atom+Function         Bfn.  Coefficient  Atom+Function  
  ----- ------------  ---------------      ----- ------------  ---------------
    19      1.767212  3 H  s                 22     -1.767217  4 H  s          
    12     -1.097153  1 C  py                 8     -0.219056  1 C  py         
     4     -0.171172  1 C  py         

 Vector    9  Occ=0.000000D+00  E= 2.955503D-01
              MO Center=  1.6D-01, -3.3D-07,  1.1D-01, r^2= 2.9D+00
   Bfn.  Coefficient  Atom+Function         Bfn.  Coefficient  Atom+Function  
  ----- ------------  ---------------      ----- ------------  ---------------
    12      1.419876  1 C  py                18     -1.071808  3 H  s          
    21      1.071807  4 H  s                 19      0.206217  3 H  s          
    22     -0.206217  4 H  s                 17     -0.080999  3 H  s          
    20      0.080998  4 H  s          

 Vector   10  Occ=0.000000D+00  E= 2.955805D-01
              MO Center= -1.6D-01,  3.3D-07,  1.1D-01, r^2= 2.9D+00
   Bfn.  Coefficient  Atom+Function         Bfn.  Coefficient  Atom+Function  
  ----- ------------  ---------------      ----- ------------  ---------------
    11      1.420024  1 C  px                15     -1.238073  2 H  s          
    18      0.618586  3 H  s                 21      0.618588  4 H  s          
    16      0.238524  2 H  s                 19     -0.118759  3 H  s          
    22     -0.118759  4 H  s                 14     -0.093554  2 H  s          
    17      0.046711  3 H  s                 20      0.046711  4 H  s          

 Vector   11  Occ=0.000000D+00  E= 4.247050D-01
              MO Center=  1.3D-05, -1.1D-10, -7.0D-01, r^2= 2.1D+00
   Bfn.  Coefficient  Atom+Function         Bfn.  Coefficient  Atom+Function  
  ----- ------------  ---------------      ----- ------------  ---------------
    10      1.880889  1 C  s                 13     -1.132207  1 C  pz         
    15     -1.097154  2 H  s                 18     -1.097916  3 H  s          
    21     -1.097916  4 H  s                  9      0.273760  1 C  pz         
     6      0.141487  1 C  s                  5      0.082920  1 C  pz         
     2     -0.076990  1 C  s                 14     -0.069768  2 H  s          

 Vector   12  Occ=0.000000D+00  E= 4.873407D-01
              MO Center= -2.1D-04, -9.1D-11,  3.3D-01, r^2= 2.0D+00
   Bfn.  Coefficient  Atom+Function         Bfn.  Coefficient  Atom+Function  
  ----- ------------  ---------------      ----- ------------  ---------------
     9      0.917521  1 C  pz                13     -0.737660  1 C  pz         
    10     -0.625867  1 C  s                 15      0.572690  2 H  s          
    18      0.573024  3 H  s                 21      0.573024  4 H  s          
     5      0.253691  1 C  pz                16     -0.223949  2 H  s          
    19     -0.222969  3 H  s                 22     -0.222969  4 H  s          

 Vector   13  Occ=0.000000D+00  E= 5.962073D-01
              MO Center=  2.6D-01,  5.1D-07, -1.8D-01, r^2= 2.9D+00
   Bfn.  Coefficient  Atom+Function         Bfn.  Coefficient  Atom+Function  
  ----- ------------  ---------------      ----- ------------  ---------------
    16     -1.832833  2 H  s                 11      1.753174  1 C  px         
     7     -1.070692  1 C  px                19      0.916393  3 H  s          
    22      0.916390  4 H  s                 15      0.589097  2 H  s          
    18     -0.295374  3 H  s                 21     -0.295373  4 H  s          
     3     -0.281738  1 C  px                14      0.079523  2 H  s          

 Vector   14  Occ=0.000000D+00  E= 5.962511D-01
              MO Center= -2.6D-01, -5.1D-07, -1.8D-01, r^2= 2.9D+00
   Bfn.  Coefficient  Atom+Function         Bfn.  Coefficient  Atom+Function  
  ----- ------------  ---------------      ----- ------------  ---------------
    12      1.752991  1 C  py                19     -1.587574  3 H  s          
    22      1.587576  4 H  s                  8     -1.070734  1 C  py         
    18      0.510899  3 H  s                 21     -0.510899  4 H  s          
     4     -0.281737  1 C  py                17      0.068880  3 H  s          
    20     -0.068880  4 H  s          

 Vector   15  Occ=0.000000D+00  E= 7.395372D-01
              MO Center= -3.2D-04,  6.0D-11, -2.4D-01, r^2= 2.6D+00
   Bfn.  Coefficient  Atom+Function         Bfn.  Coefficient  Atom+Function  
  ----- ------------  ---------------      ----- ------------  ---------------
    10      4.127567  1 C  s                  6     -2.130444  1 C  s          
    16     -0.887273  2 H  s                 19     -0.888240  3 H  s          
    22     -0.888240  4 H  s                 13     -0.593549  1 C  pz         
     2      0.269396  1 C  s                 15     -0.201800  2 H  s          
    18     -0.201565  3 H  s                 21     -0.201565  4 H  s          

 Vector   16  Occ=0.000000D+00  E= 2.157033D+00
              MO Center=  1.5D-05, -4.6D-09, -3.4D-01, r^2= 2.0D+00
   Bfn.  Coefficient  Atom+Function         Bfn.  Coefficient  Atom+Function  
  ----- ------------  ---------------      ----- ------------  ---------------
    15      1.358810  2 H  s                 18      1.358913  3 H  s          
    21      1.358913  4 H  s                 14     -0.869339  2 H  s          
    17     -0.869328  3 H  s                 20     -0.869328  4 H  s          
    10     -0.813065  1 C  s                  9      0.337808  1 C  pz         
     5     -0.299853  1 C  pz                16     -0.280943  2 H  s          

 Vector   17  Occ=0.000000D+00  E= 2.209259D+00
              MO Center=  5.2D-01, -2.9D-06, -3.6D-01, r^2= 1.8D+00
   Bfn.  Coefficient  Atom+Function         Bfn.  Coefficient  Atom+Function  
  ----- ------------  ---------------      ----- ------------  ---------------
    15      1.755487  2 H  s                 14     -1.170506  2 H  s          
    16     -0.977105  2 H  s                 18     -0.877815  3 H  s          
    21     -0.877824  4 H  s                  7     -0.658187  1 C  px         
    17      0.585239  3 H  s                 20      0.585245  4 H  s          
    19      0.488425  3 H  s                 22      0.488430  4 H  s          

 Vector   18  Occ=0.000000D+00  E= 2.209305D+00
              MO Center= -5.2D-01,  2.9D-06, -3.6D-01, r^2= 1.8D+00
   Bfn.  Coefficient  Atom+Function         Bfn.  Coefficient  Atom+Function  
  ----- ------------  ---------------      ----- ------------  ---------------
    18      1.520476  3 H  s                 21     -1.520471  4 H  s          
    17     -1.013756  3 H  s                 20      1.013753  4 H  s          
    19     -0.846189  3 H  s                 22      0.846187  4 H  s          
     8     -0.657891  1 C  py                 4      0.465766  1 C  py         
    12      0.137442  1 C  py         

 Vector   19  Occ=0.000000D+00  E= 2.691726D+00
              MO Center=  1.8D-05, -2.5D-11, -1.0D-02, r^2= 8.1D-01
   Bfn.  Coefficient  Atom+Function         Bfn.  Coefficient  Atom+Function  
  ----- ------------  ---------------      ----- ------------  ---------------
     9      1.440773  1 C  pz                 5     -1.283405  1 C  pz         
    13     -0.669123  1 C  pz                10      0.416348  1 C  s          
    15     -0.274666  2 H  s                 18     -0.274572  3 H  s          
    21     -0.274572  4 H  s                 14      0.252577  2 H  s          
    17      0.252504  3 H  s                 20      0.252504  4 H  s          

 Vector   20  Occ=0.000000D+00  E= 2.892039D+00
              MO Center=  1.9D-02, -7.4D-08,  1.3D-02, r^2= 9.0D-01
   Bfn.  Coefficient  Atom+Function         Bfn.  Coefficient  Atom+Function  
  ----- ------------  ---------------      ----- ------------  ---------------
     8      1.615070  1 C  py                 4     -1.271362  1 C  py         
    12     -1.057269  1 C  py                17     -0.506271  3 H  s          
    20      0.506270  4 H  s                 19      0.372190  3 H  s          
    22     -0.372189  4 H  s                 18      0.364559  3 H  s          
    21     -0.364558  4 H  s          

 Vector   21  Occ=0.000000D+00  E= 2.892131D+00
              MO Center= -1.9D-02,  7.3D-08,  1.3D-02, r^2= 9.0D-01
   Bfn.  Coefficient  Atom+Function         Bfn.  Coefficient  Atom+Function  
  ----- ------------  ---------------      ----- ------------  ---------------
     7      1.614909  1 C  px                 3     -1.271313  1 C  px         
    11     -1.057241  1 C  px                14     -0.584641  2 H  s          
    16      0.429468  2 H  s                 15      0.421143  2 H  s          
    17      0.292443  3 H  s                 20      0.292445  4 H  s          
    19     -0.214850  3 H  s                 22     -0.214851  4 H  s          

 Vector   22  Occ=0.000000D+00  E= 2.327751D+01
              MO Center= -3.4D-06, -1.9D-13, -4.3D-03, r^2= 9.5D-02
   Bfn.  Coefficient  Atom+Function         Bfn.  Coefficient  Atom+Function  
  ----- ------------  ---------------      ----- ------------  ---------------
     2     -2.170657  1 C  s                  1      2.025042  1 C  s          
    10     -0.518081  1 C  s                  6      0.458041  1 C  s          
    16      0.105876  2 H  s                 19      0.105930  3 H  s          
    22      0.105930  4 H  s                 13      0.066491  1 C  pz         
     9     -0.027978  1 C  pz         


   alpha - beta orbital overlaps 
   ----------------------------- 


   alpha      1      2      3      4      5      6      7      8      9     10
    beta      1      2      3      4      5      6      7      8      9     10
 overlap   1.000  0.998  1.000  1.000  0.992  1.000  0.999  0.999  0.999  0.999


   alpha     11     12     13     14     15     16     17     18     19     20
    beta     11     12     13     14     15     16     17     18     19     20
 overlap   0.884  0.884  1.000  1.000  0.998  1.000  1.000  1.000  0.999  1.000


   alpha     21     22
    beta     21     22
 overlap   1.000  1.000

     --------------------------
     Expectation value of S2:  
     --------------------------
      <S2> =      0.7524 (Exact =     0.7500)


 center of mass
 --------------
 x =   0.00000000 y =   0.00000000 z =  -0.13310760

 moments of inertia (a.u.)
 ------------------
           6.758003267265           0.000000000000           0.000000000000
           0.000000000000           6.761515898966           0.000000000000
           0.000000000000           0.000000000000          11.406609230869

     Multipole analysis of the density
     ---------------------------------

     L   x y z        total         alpha         beta         nuclear
     -   - - -        -----         -----         ----         -------
     0   0 0 0     -0.000000     -5.000000     -4.000000      9.000000

     1   1 0 0     -0.000106     -0.000046     -0.000060      0.000000
     1   0 1 0     -0.000000     -0.000000     -0.000000      0.000000
     1   0 0 1     -0.287593      0.591814      1.104805     -1.984212

     2   2 0 0     -5.637931     -5.973470     -5.325227      5.660765
     2   1 1 0      0.000000      0.000000      0.000000      0.000000
     2   1 0 1      0.000046      0.000071     -0.000025      0.000000
     2   0 2 0     -5.638737     -5.972180     -5.323838      5.657280
     2   0 1 1     -0.000000      0.000000     -0.000000      0.000000
     2   0 0 2     -6.288242     -4.942500     -2.658108      1.312366


 Parallel integral file used       2 records with       0 large values


 Task  times  cpu:        1.7s     wall:        2.1s


                                NWChem Input Module
                                -------------------


                              NWChem Property Module
                              ----------------------


                                ch3radical_unrot_mp

  itol2e modified to match energy
  convergence criterion.

                                 NWChem DFT Module
                                 -----------------


                                ch3radical_unrot_mp




 Summary of "ao basis" -> "ao basis" (cartesian)
 ------------------------------------------------------------------------------
       Tag                 Description            Shells   Functions and Types
 ---------------- ------------------------------  ------  ---------------------
 c                           6-311G                  7       13   4s3p
 h                           6-311G                  3        3   3s



 Using Relativistic ZORA Model Potential Approach
 C. van Wullen, J. Chem. Phys. 109, 392 (1998)
 C. van Wullen, C. Michauk, J. Chem. Phys. 123, 204113 (2005)

 Reading Model Potential File:
 /data/edo/nwchem/nwchem-x2c-pr/src/basis/libraries/rel-modelpotentials/modbas.2c

  Caching 1-el integrals 
  itol2e modified to match energy
  convergence criterion.

            General Information
            -------------------
          SCF calculation type: DFT
          Wavefunction type:  spin polarized.
          No. of atoms     :     4
          No. of electrons :     9
           Alpha electrons :     5
            Beta electrons :     4
          Charge           :     0
          Spin multiplicity:     2
          Use of symmetry is: off; symmetry adaption is: off
          Maximum number of iterations:  50
          AO basis - number of functions:    22
                     number of shells:    16
          Convergence on energy requested:  1.00D-07
          Convergence on density requested:  1.00D-05
          Convergence on gradient requested:  5.00D-04

              XC Information
              --------------
                         B3LYP Method XC Potential
                     Hartree-Fock (Exact) Exchange  0.200          
                        Slater Exchange Functional  0.800 local    
                    Becke 1988 Exchange Functional  0.720 non-local
              Lee-Yang-Parr Correlation Functional  0.810          
                  VWN I RPA Correlation Functional  0.190 local    

             Grid Information
             ----------------
          Grid used for XC integration:  fine      
          Radial quadrature: Mura-Knowles        
          Angular quadrature: Lebedev. 
          Tag              B.-S. Rad. Rad. Pts. Rad. Cut. Ang. Pts.
          ---              ---------- --------- --------- ---------
          c                   0.70       70           7.0       590
          h                   0.35       60           8.0       590
          Grid pruning is: on 
          Number of quadrature shells:   250
          Spatial weights used:  Erf1

          Convergence Information
          -----------------------
          Convergence aids based upon iterative change in 
          total energy or number of iterations. 
          Levelshifting, if invoked, occurs when the 
          HOMO/LUMO gap drops below (HL_TOL):  1.00D-02
          DIIS, if invoked, will attempt to extrapolate 
          using up to (NFOCK): 10 stored Fock matrices.

                    Damping( 0%)  Levelshifting(0.5)       DIIS
                  --------------- ------------------- ---------------
          dE  on:    start            ASAP                start   
          dE off:    2 iters         50 iters            50 iters 


      Screening Tolerance Information
      -------------------------------
          Density screening/tol_rho:  1.00D-11
          AO Gaussian exp screening on grid/accAOfunc:  16
          CD Gaussian exp screening on grid/accCDfunc:  20
          XC Gaussian exp screening on grid/accXCfunc:  20
          Schwarz screening/accCoul:  1.00D-08

 dft: using ZORA

      Superposition of Atomic Density Guess
      -------------------------------------

 Sum of atomic energies:         -39.16798055
          Performing ZORA calculations
          ----------------------------


 Read atomic ZORA corrections from ./ch3radical_unrot_mp.zora_sf


 Loading old vectors from job with title :

ch3radical_unrot_mp

   Time after variat. SCF:      2.2
   Time prior to 1st pass:      2.2

 #quartets = 9.316D+03 #integrals = 2.804D+04 #direct =  0.0% #cached =100.0%


 Integral file          = ./ch3radical_unrot_mp.aoints.0
 Record size in doubles =  65536        No. of integs per rec  =  43688
 Max. records in memory =      3        Max. records in file   = 261910
 No. of bits per label  =      8        No. of bits per value  =     64


File balance: exchanges=     0  moved=     0  time=   0.0


 Grid_pts file          = ./ch3radical_unrot_mp.gridpts.0
 Record size in doubles =  12289        No. of grid_pts per rec  =   3070
 Max. records in memory =     28        Max. recs in file   =   1396746


           Memory utilization after 1st SCF pass: 
           Heap Space remaining (MW):       25.67            25672134
          Stack Space remaining (MW):       26.21            26214036

   convergence    iter        energy       DeltaE   RMS-Dens  Diis-err    time
 ---------------- ----- ----------------- --------- --------- ---------  ------
 d= 0,ls=0.0,diis     1    -39.8535564833 -4.95D+01  3.18D-07  2.54D-11     2.5
                                                     1.13D-07  1.35D-11
 d= 0,ls=0.0,diis     2    -39.8535564833 -9.44D-12  9.68D-08  9.12D-12     2.8
                                                     8.72D-08  1.11D-11

      Commencing ZORA Property Calculations
      -------------------------------------

dia1(k,t,iat1,ispin)=(  1,  1,  1,  1)=(   138.89682785,   138.89682785) ppm
dia1(k,t,iat1,ispin)=(  1,  1,  1,  2)=(   121.83100509,   260.72783295) ppm
dia1(k,t,iat1,ispin)=(  1,  2,  1,  1)=(    -0.00000000,    -0.00000000) ppm
dia1(k,t,iat1,ispin)=(  1,  2,  1,  2)=(    -0.00000000,    -0.00000000) ppm
dia1(k,t,iat1,ispin)=(  1,  3,  1,  1)=(     0.00033612,     0.00033612) ppm
dia1(k,t,iat1,ispin)=(  1,  3,  1,  2)=(     0.00012841,     0.00046453) ppm
dia1(k,t,iat1,ispin)=(  2,  1,  1,  1)=(    -0.00000000,    -0.00000000) ppm
dia1(k,t,iat1,ispin)=(  2,  1,  1,  2)=(    -0.00000000,    -0.00000000) ppm
dia1(k,t,iat1,ispin)=(  2,  2,  1,  1)=(   138.89641594,   138.89641594) ppm
dia1(k,t,iat1,ispin)=(  2,  2,  1,  2)=(   121.83054668,   260.72696262) ppm
dia1(k,t,iat1,ispin)=(  2,  3,  1,  1)=(    -0.00000000,    -0.00000000) ppm
dia1(k,t,iat1,ispin)=(  2,  3,  1,  2)=(    -0.00000000,    -0.00000000) ppm
dia1(k,t,iat1,ispin)=(  3,  1,  1,  1)=(     0.00000386,     0.00000386) ppm
dia1(k,t,iat1,ispin)=(  3,  1,  1,  2)=(     0.00013060,     0.00013445) ppm
dia1(k,t,iat1,ispin)=(  3,  2,  1,  1)=(    -0.00000000,    -0.00000000) ppm
dia1(k,t,iat1,ispin)=(  3,  2,  1,  2)=(    -0.00000000,    -0.00000000) ppm
dia1(k,t,iat1,ispin)=(  3,  3,  1,  1)=(   132.34734076,   132.34734076) ppm
dia1(k,t,iat1,ispin)=(  3,  3,  1,  2)=(   121.19005799,   253.53739875) ppm
(dia2,par1)(k,t,iat1,spin)=(  1,  1,  1,  1)=(    -1.93944478,    -1.93944478,     0.24257291,     0.24257291) ppm
(dia2,par1)(k,t,iat1,spin)=(  1,  1,  1,  2)=(    -1.44937269,    -3.38881747,     0.27651649,     0.51908940) ppm
(dia2,par1)(k,t,iat1,spin)=(  2,  1,  1,  1)=(    -0.00000000,    -0.00000000,     0.00000000,     0.00000000) ppm
(dia2,par1)(k,t,iat1,spin)=(  2,  1,  1,  2)=(    -0.00000000,    -0.00000000,     0.00000000,     0.00000000) ppm
(dia2,par1)(k,t,iat1,spin)=(  3,  1,  1,  1)=(    -0.00037698,    -0.00037698,    -0.00025924,    -0.00025924) ppm
(dia2,par1)(k,t,iat1,spin)=(  3,  1,  1,  2)=(    -0.00003886,    -0.00041584,    -0.00027959,    -0.00053882) ppm
(dia2,par1)(k,t,iat1,spin)=(  1,  2,  1,  1)=(    -0.00000000,    -0.00000000,     0.00000000,     0.00000000) ppm
(dia2,par1)(k,t,iat1,spin)=(  1,  2,  1,  2)=(    -0.00000000,    -0.00000000,     0.00000000,     0.00000000) ppm
(dia2,par1)(k,t,iat1,spin)=(  2,  2,  1,  1)=(    -1.93825674,    -1.93825674,     0.24254572,     0.24254572) ppm
(dia2,par1)(k,t,iat1,spin)=(  2,  2,  1,  2)=(    -1.44807627,    -3.38633300,     0.27649635,     0.51904207) ppm
(dia2,par1)(k,t,iat1,spin)=(  3,  2,  1,  1)=(    -0.00000000,    -0.00000000,     0.00000000,     0.00000000) ppm
(dia2,par1)(k,t,iat1,spin)=(  3,  2,  1,  2)=(     0.00000000,     0.00000000,     0.00000000,     0.00000000) ppm
(dia2,par1)(k,t,iat1,spin)=(  1,  3,  1,  1)=(    -0.00004466,    -0.00004466,    -0.00025923,    -0.00025923) ppm
(dia2,par1)(k,t,iat1,spin)=(  1,  3,  1,  2)=(    -0.00004097,    -0.00008563,    -0.00027958,    -0.00053881) ppm
(dia2,par1)(k,t,iat1,spin)=(  2,  3,  1,  1)=(    -0.00000000,    -0.00000000,     0.00000000,     0.00000000) ppm
(dia2,par1)(k,t,iat1,spin)=(  2,  3,  1,  2)=(    -0.00000000,    -0.00000000,     0.00000000,     0.00000000) ppm
(dia2,par1)(k,t,iat1,spin)=(  3,  3,  1,  1)=(    -3.21828258,    -3.21828258,     1.04593583,     1.04593583) ppm
(dia2,par1)(k,t,iat1,spin)=(  3,  3,  1,  2)=(    -3.39471433,    -6.61299691,     1.19231862,     2.23825444) ppm
dia1(k,t,iat1,ispin)=(  1,  1,  2,  1)=(    20.69643498,    20.69643498) ppm
dia1(k,t,iat1,ispin)=(  1,  1,  2,  2)=(    17.02701602,    37.72345100) ppm
dia1(k,t,iat1,ispin)=(  1,  2,  2,  1)=(    -0.00000000,    -0.00000000) ppm
dia1(k,t,iat1,ispin)=(  1,  2,  2,  2)=(    -0.00000000,    -0.00000000) ppm
dia1(k,t,iat1,ispin)=(  1,  3,  2,  1)=(    -2.98180994,    -2.98180994) ppm
dia1(k,t,iat1,ispin)=(  1,  3,  2,  2)=(    -2.78220527,    -5.76401521) ppm
dia1(k,t,iat1,ispin)=(  2,  1,  2,  1)=(    -0.00000000,    -0.00000000) ppm
dia1(k,t,iat1,ispin)=(  2,  1,  2,  2)=(    -0.00000000,    -0.00000000) ppm
dia1(k,t,iat1,ispin)=(  2,  2,  2,  1)=(    11.02610004,    11.02610004) ppm
dia1(k,t,iat1,ispin)=(  2,  2,  2,  2)=(     9.34262084,    20.36872088) ppm
dia1(k,t,iat1,ispin)=(  2,  3,  2,  1)=(     0.00000000,     0.00000000) ppm
dia1(k,t,iat1,ispin)=(  2,  3,  2,  2)=(    -0.00000000,    -0.00000000) ppm
dia1(k,t,iat1,ispin)=(  3,  1,  2,  1)=(    -3.12553296,    -3.12553296) ppm
dia1(k,t,iat1,ispin)=(  3,  1,  2,  2)=(    -2.62550851,    -5.75104147) ppm
dia1(k,t,iat1,ispin)=(  3,  2,  2,  1)=(     0.00000000,     0.00000000) ppm
dia1(k,t,iat1,ispin)=(  3,  2,  2,  2)=(    -0.00000000,    -0.00000000) ppm
dia1(k,t,iat1,ispin)=(  3,  3,  2,  1)=(    10.77275661,    10.77275661) ppm
dia1(k,t,iat1,ispin)=(  3,  3,  2,  2)=(    10.70650510,    21.47926171) ppm
(dia2,par1)(k,t,iat1,spin)=(  1,  1,  2,  1)=(     0.03849582,     0.03849582,     0.00000152,     0.00000152) ppm
(dia2,par1)(k,t,iat1,spin)=(  1,  1,  2,  2)=(     0.21886681,     0.25736263,     0.00000178,     0.00000330) ppm
(dia2,par1)(k,t,iat1,spin)=(  2,  1,  2,  1)=(    -0.00000000,    -0.00000000,    -0.00000000,    -0.00000000) ppm
(dia2,par1)(k,t,iat1,spin)=(  2,  1,  2,  2)=(    -0.00000000,    -0.00000000,    -0.00000000,    -0.00000000) ppm
(dia2,par1)(k,t,iat1,spin)=(  3,  1,  2,  1)=(     1.08570128,     1.08570128,     0.00000078,     0.00000078) ppm
(dia2,par1)(k,t,iat1,spin)=(  3,  1,  2,  2)=(     1.25451068,     2.34021196,     0.00000089,     0.00000168) ppm
(dia2,par1)(k,t,iat1,spin)=(  1,  2,  2,  1)=(    -0.00000000,    -0.00000000,    -0.00000000,    -0.00000000) ppm
(dia2,par1)(k,t,iat1,spin)=(  1,  2,  2,  2)=(    -0.00000000,    -0.00000000,    -0.00000000,    -0.00000000) ppm
(dia2,par1)(k,t,iat1,spin)=(  2,  2,  2,  1)=(     3.00085642,     3.00085642,     0.00000206,     0.00000206) ppm
(dia2,par1)(k,t,iat1,spin)=(  2,  2,  2,  2)=(     3.06642906,     6.06728549,     0.00000239,     0.00000445) ppm
(dia2,par1)(k,t,iat1,spin)=(  3,  2,  2,  1)=(     0.00000000,     0.00000000,    -0.00000000,    -0.00000000) ppm
(dia2,par1)(k,t,iat1,spin)=(  3,  2,  2,  2)=(    -0.00000000,    -0.00000000,    -0.00000000,    -0.00000000) ppm
(dia2,par1)(k,t,iat1,spin)=(  1,  3,  2,  1)=(     1.04974882,     1.04974882,    -0.14181984,    -0.14181984) ppm
(dia2,par1)(k,t,iat1,spin)=(  1,  3,  2,  2)=(     1.23656556,     2.28631438,    -0.16617383,    -0.30799366) ppm
(dia2,par1)(k,t,iat1,spin)=(  2,  3,  2,  1)=(     0.00000000,     0.00000000,     0.00000000,     0.00000000) ppm
(dia2,par1)(k,t,iat1,spin)=(  2,  3,  2,  2)=(     0.00000000,     0.00000000,     0.00000000,     0.00000000) ppm
(dia2,par1)(k,t,iat1,spin)=(  3,  3,  2,  1)=(     2.75116767,     2.75116767,     0.20828171,     0.20828171) ppm
(dia2,par1)(k,t,iat1,spin)=(  3,  3,  2,  2)=(     2.67859884,     5.42976651,     0.24404878,     0.45233049) ppm
dia1(k,t,iat1,ispin)=(  1,  1,  3,  1)=(    13.44855949,    13.44855949) ppm
dia1(k,t,iat1,ispin)=(  1,  1,  3,  2)=(    11.26733893,    24.71589842) ppm
dia1(k,t,iat1,ispin)=(  1,  2,  3,  1)=(    -4.18865713,    -4.18865713) ppm
dia1(k,t,iat1,ispin)=(  1,  2,  3,  2)=(    -3.32845793,    -7.51711506) ppm
dia1(k,t,iat1,ispin)=(  1,  3,  3,  1)=(     1.49190939,     1.49190939) ppm
dia1(k,t,iat1,ispin)=(  1,  3,  3,  2)=(     1.39189347,     2.88380286) ppm
dia1(k,t,iat1,ispin)=(  2,  1,  3,  1)=(    -4.18859751,    -4.18859751) ppm
dia1(k,t,iat1,ispin)=(  2,  1,  3,  2)=(    -3.32832545,    -7.51692297) ppm
dia1(k,t,iat1,ispin)=(  2,  2,  3,  1)=(    18.28205024,    18.28205024) ppm
dia1(k,t,iat1,ispin)=(  2,  2,  3,  2)=(    15.10824403,    33.39029427) ppm
dia1(k,t,iat1,ispin)=(  2,  3,  3,  1)=(    -2.58313731,    -2.58313731) ppm
dia1(k,t,iat1,ispin)=(  2,  3,  3,  2)=(    -2.41007142,    -4.99320873) ppm
dia1(k,t,iat1,ispin)=(  3,  1,  3,  1)=(     1.56371218,     1.56371218) ppm
dia1(k,t,iat1,ispin)=(  3,  1,  3,  2)=(     1.31344758,     2.87715977) ppm
dia1(k,t,iat1,ispin)=(  3,  2,  3,  1)=(    -2.70763210,    -2.70763210) ppm
dia1(k,t,iat1,ispin)=(  3,  2,  3,  2)=(    -2.27435329,    -4.98198539) ppm
dia1(k,t,iat1,ispin)=(  3,  3,  3,  1)=(    10.77626069,    10.77626069) ppm
dia1(k,t,iat1,ispin)=(  3,  3,  3,  2)=(    10.70953481,    21.48579550) ppm
(dia2,par1)(k,t,iat1,spin)=(  1,  1,  3,  1)=(     2.25972510,     2.25972510,     0.00000193,     0.00000193) ppm
(dia2,par1)(k,t,iat1,spin)=(  1,  1,  3,  2)=(     2.35401812,     4.61374322,     0.00000225,     0.00000418) ppm
(dia2,par1)(k,t,iat1,spin)=(  2,  1,  3,  1)=(     1.28281334,     1.28281334,     0.00000023,     0.00000023) ppm
(dia2,par1)(k,t,iat1,spin)=(  2,  1,  3,  2)=(     1.23314920,     2.51596254,     0.00000026,     0.00000050) ppm
(dia2,par1)(k,t,iat1,spin)=(  3,  1,  3,  1)=(    -0.54339013,    -0.54339013,    -0.00000040,    -0.00000040) ppm
(dia2,par1)(k,t,iat1,spin)=(  3,  1,  3,  2)=(    -0.62762223,    -1.17101236,    -0.00000046,    -0.00000086) ppm
(dia2,par1)(k,t,iat1,spin)=(  1,  2,  3,  1)=(     1.28306069,     1.28306069,     0.00000023,     0.00000023) ppm
(dia2,par1)(k,t,iat1,spin)=(  1,  2,  3,  2)=(     1.23336910,     2.51642979,     0.00000027,     0.00000050) ppm
(dia2,par1)(k,t,iat1,spin)=(  2,  2,  3,  1)=(     0.77975400,     0.77975400,     0.00000166,     0.00000166) ppm
(dia2,par1)(k,t,iat1,spin)=(  2,  2,  3,  2)=(     0.93144854,     1.71120255,     0.00000194,     0.00000359) ppm
(dia2,par1)(k,t,iat1,spin)=(  3,  2,  3,  1)=(     0.94080519,     0.94080519,     0.00000069,     0.00000069) ppm
(dia2,par1)(k,t,iat1,spin)=(  3,  2,  3,  2)=(     1.08665129,     2.02745648,     0.00000078,     0.00000147) ppm
(dia2,par1)(k,t,iat1,spin)=(  1,  3,  3,  1)=(    -0.52514884,    -0.52514884,     0.07087220,     0.07087220) ppm
(dia2,par1)(k,t,iat1,spin)=(  1,  3,  3,  2)=(    -0.61860668,    -1.14375553,     0.08304805,     0.15392025) ppm
(dia2,par1)(k,t,iat1,spin)=(  2,  3,  3,  1)=(     0.90898191,     0.90898191,    -0.12279205,    -0.12279205) ppm
(dia2,par1)(k,t,iat1,spin)=(  2,  3,  3,  2)=(     1.07094743,     1.97992934,    -0.14388775,    -0.26667981) ppm
(dia2,par1)(k,t,iat1,spin)=(  3,  3,  3,  1)=(     2.75083634,     2.75083634,     0.20817092,     0.20817092) ppm
(dia2,par1)(k,t,iat1,spin)=(  3,  3,  3,  2)=(     2.67833723,     5.42917357,     0.24393465,     0.45210557) ppm
dia1(k,t,iat1,ispin)=(  1,  1,  4,  1)=(    13.44855949,    13.44855949) ppm
dia1(k,t,iat1,ispin)=(  1,  1,  4,  2)=(    11.26733893,    24.71589842) ppm
dia1(k,t,iat1,ispin)=(  1,  2,  4,  1)=(     4.18865713,     4.18865713) ppm
dia1(k,t,iat1,ispin)=(  1,  2,  4,  2)=(     3.32845793,     7.51711506) ppm
dia1(k,t,iat1,ispin)=(  1,  3,  4,  1)=(     1.49190939,     1.49190939) ppm
dia1(k,t,iat1,ispin)=(  1,  3,  4,  2)=(     1.39189347,     2.88380286) ppm
dia1(k,t,iat1,ispin)=(  2,  1,  4,  1)=(     4.18859751,     4.18859751) ppm
dia1(k,t,iat1,ispin)=(  2,  1,  4,  2)=(     3.32832545,     7.51692297) ppm
dia1(k,t,iat1,ispin)=(  2,  2,  4,  1)=(    18.28205024,    18.28205024) ppm
dia1(k,t,iat1,ispin)=(  2,  2,  4,  2)=(    15.10824403,    33.39029427) ppm
dia1(k,t,iat1,ispin)=(  2,  3,  4,  1)=(     2.58313731,     2.58313731) ppm
dia1(k,t,iat1,ispin)=(  2,  3,  4,  2)=(     2.41007142,     4.99320873) ppm
dia1(k,t,iat1,ispin)=(  3,  1,  4,  1)=(     1.56371218,     1.56371218) ppm
dia1(k,t,iat1,ispin)=(  3,  1,  4,  2)=(     1.31344758,     2.87715977) ppm
dia1(k,t,iat1,ispin)=(  3,  2,  4,  1)=(     2.70763210,     2.70763210) ppm
dia1(k,t,iat1,ispin)=(  3,  2,  4,  2)=(     2.27435329,     4.98198539) ppm
dia1(k,t,iat1,ispin)=(  3,  3,  4,  1)=(    10.77626068,    10.77626068) ppm
dia1(k,t,iat1,ispin)=(  3,  3,  4,  2)=(    10.70953481,    21.48579550) ppm
(dia2,par1)(k,t,iat1,spin)=(  1,  1,  4,  1)=(     2.25972510,     2.25972510,     0.00000193,     0.00000193) ppm
(dia2,par1)(k,t,iat1,spin)=(  1,  1,  4,  2)=(     2.35401812,     4.61374322,     0.00000225,     0.00000418) ppm
(dia2,par1)(k,t,iat1,spin)=(  2,  1,  4,  1)=(    -1.28281334,    -1.28281334,    -0.00000023,    -0.00000023) ppm
(dia2,par1)(k,t,iat1,spin)=(  2,  1,  4,  2)=(    -1.23314920,    -2.51596254,    -0.00000026,    -0.00000050) ppm
(dia2,par1)(k,t,iat1,spin)=(  3,  1,  4,  1)=(    -0.54339013,    -0.54339013,    -0.00000040,    -0.00000040) ppm
(dia2,par1)(k,t,iat1,spin)=(  3,  1,  4,  2)=(    -0.62762223,    -1.17101236,    -0.00000046,    -0.00000086) ppm
(dia2,par1)(k,t,iat1,spin)=(  1,  2,  4,  1)=(    -1.28306069,    -1.28306069,    -0.00000023,    -0.00000023) ppm
(dia2,par1)(k,t,iat1,spin)=(  1,  2,  4,  2)=(    -1.23336910,    -2.51642979,    -0.00000027,    -0.00000050) ppm
(dia2,par1)(k,t,iat1,spin)=(  2,  2,  4,  1)=(     0.77975400,     0.77975400,     0.00000166,     0.00000166) ppm
(dia2,par1)(k,t,iat1,spin)=(  2,  2,  4,  2)=(     0.93144854,     1.71120255,     0.00000194,     0.00000359) ppm
(dia2,par1)(k,t,iat1,spin)=(  3,  2,  4,  1)=(    -0.94080519,    -0.94080519,    -0.00000069,    -0.00000069) ppm
(dia2,par1)(k,t,iat1,spin)=(  3,  2,  4,  2)=(    -1.08665129,    -2.02745648,    -0.00000078,    -0.00000147) ppm
(dia2,par1)(k,t,iat1,spin)=(  1,  3,  4,  1)=(    -0.52514884,    -0.52514884,     0.07087220,     0.07087220) ppm
(dia2,par1)(k,t,iat1,spin)=(  1,  3,  4,  2)=(    -0.61860668,    -1.14375553,     0.08304805,     0.15392025) ppm
(dia2,par1)(k,t,iat1,spin)=(  2,  3,  4,  1)=(    -0.90898191,    -0.90898191,     0.12279205,     0.12279205) ppm
(dia2,par1)(k,t,iat1,spin)=(  2,  3,  4,  2)=(    -1.07094743,    -1.97992934,     0.14388775,     0.26667981) ppm
(dia2,par1)(k,t,iat1,spin)=(  3,  3,  4,  1)=(     2.75083633,     2.75083633,     0.20817092,     0.20817092) ppm
(dia2,par1)(k,t,iat1,spin)=(  3,  3,  4,  2)=(     2.67833723,     5.42917357,     0.24393465,     0.45210557) ppm

 Wrote ZORA NMR data to ./ch3radical_unrot_mp.zora_nmrcs

 In get_NMRHFine_ZORA:: zora:Knucl= F
 dft_zora_Hypefine: ofinite= F
 nat_slc=                    4
In dft_zora_Hyperfine:: atomnr(  1)=    1
In dft_zora_Hyperfine:: atomnr(  2)=    2
In dft_zora_Hyperfine:: atomnr(  3)=    3
In dft_zora_Hyperfine:: atomnr(  4)=    4
 starting at time      12.28s
CHECK:(atom,ofinite,atmass,zetanucl_slc)=(   1,F,    12.00000000,                 680775029.28673279)
gFCSD(  1,  1,  1)=     2.02646604
gFCSD(  1,  1,  2)=    -0.00000000
gFCSD(  1,  1,  3)=    -0.00004789
gFCSD(  1,  2,  1)=    -0.00000000
gFCSD(  1,  2,  2)=     2.02646593
gFCSD(  1,  2,  3)=    -0.00000000
gFCSD(  1,  3,  1)=    -0.00004789
gFCSD(  1,  3,  2)=    -0.00000000
gFCSD(  1,  3,  3)=     3.58390301
 starting at time      14.04s
CHECK:(atom,ofinite,atmass,zetanucl_slc)=(   2,F,     1.00782500,                2118265472.55233502)
gFCSD(  2,  1,  1)=     0.01213605
gFCSD(  2,  1,  2)=    -0.00000000
gFCSD(  2,  1,  3)=    -0.03426652
gFCSD(  2,  2,  1)=    -0.00000000
gFCSD(  2,  2,  2)=    -0.11698837
gFCSD(  2,  2,  3)=    -0.00000000
gFCSD(  2,  3,  1)=    -0.03426652
gFCSD(  2,  3,  2)=    -0.00000000
gFCSD(  2,  3,  3)=    -0.05503590
 starting at time      15.84s
CHECK:(atom,ofinite,atmass,zetanucl_slc)=(   3,F,     1.00782500,                2118265472.55233502)
gFCSD(  3,  1,  1)=    -0.08472570
gFCSD(  3,  1,  2)=    -0.05593597
gFCSD(  3,  1,  3)=     0.01714252
gFCSD(  3,  2,  1)=    -0.05593597
gFCSD(  3,  2,  2)=    -0.02017904
gFCSD(  3,  2,  3)=    -0.02968577
gFCSD(  3,  3,  1)=     0.01714252
gFCSD(  3,  3,  2)=    -0.02968577
gFCSD(  3,  3,  3)=    -0.05503674
 starting at time      17.59s
CHECK:(atom,ofinite,atmass,zetanucl_slc)=(   4,F,     1.00782500,                2118265472.55233502)
gFCSD(  4,  1,  1)=    -0.08472570
gFCSD(  4,  1,  2)=     0.05593597
gFCSD(  4,  1,  3)=     0.01714252
gFCSD(  4,  2,  1)=     0.05593597
gFCSD(  4,  2,  2)=    -0.02017904
gFCSD(  4,  2,  3)=     0.02968577
gFCSD(  4,  3,  1)=     0.01714252
gFCSD(  4,  3,  2)=     0.02968577
gFCSD(  4,  3,  3)=    -0.05503674

 Wrote ZORA NMR data to ./ch3radical_unrot_mp.zora_nmrhyp

(nogshift,skip_gshiftAOev,done_Fji)=( 0,F,T)
In dft_zora_EPR:: slc_spinpolAO=  0
 WARNING: SLC A-B contrib
 In dft_zora_EPR:: zora:Knucl= F
(q1,-q2,q1-q2,q3,dia2,dia1,dia2+dia1)(  1,  1)=( -0.00002303, -0.00007384, -0.00009686, -0.00142778, -0.00152465, -0.01398722, -0.01551187)
(q1,-q2,q1-q2,q3,dia2,dia1,dia2+dia1)(  1,  2)=(  0.00000000, -0.00000000,  0.00000000, -0.00000000,  0.00000000,  0.00000000,  0.00000000)
(q1,-q2,q1-q2,q3,dia2,dia1,dia2+dia1)(  1,  3)=(  0.00000012,  0.00000004,  0.00000016, -0.00000015,  0.00000001, -0.00000032, -0.00000031)
(q1,-q2,q1-q2,q3,dia2,dia1,dia2+dia1)(  2,  1)=( -0.00000000, -0.00000000, -0.00000000, -0.00000000, -0.00000000,  0.00000000, -0.00000000)
(q1,-q2,q1-q2,q3,dia2,dia1,dia2+dia1)(  2,  2)=( -0.00002318, -0.00007385, -0.00009703, -0.00142786, -0.00152489, -0.01398748, -0.01551237)
(q1,-q2,q1-q2,q3,dia2,dia1,dia2+dia1)(  2,  3)=(  0.00000000, -0.00000000,  0.00000000, -0.00000000, -0.00000000, -0.00000000, -0.00000000)
(q1,-q2,q1-q2,q3,dia2,dia1,dia2+dia1)(  3,  1)=( -0.00000003,  0.00000005,  0.00000001, -0.00000118, -0.00000117,  0.00000072, -0.00000045)
(q1,-q2,q1-q2,q3,dia2,dia1,dia2+dia1)(  3,  2)=(  0.00000000, -0.00000000,  0.00000000, -0.00000000, -0.00000000,  0.00000000, -0.00000000)
(q1,-q2,q1-q2,q3,dia2,dia1,dia2+dia1)(  3,  3)=( -0.00179989, -0.00034276, -0.00214265,  0.00309785,  0.00095519, -0.03162729, -0.03067210)

 Wrote ZORA NMR data to ./ch3radical_unrot_mp.zora_nmrgshift


 Wrote ZORA NMR data to ./ch3radical_unrot_mp.zora_nmrgshift_AB



         Total DFT energy =      -39.853556483263
      One electron energy =      -71.613808060885
           Coulomb energy =       28.594781999138
    Exchange-Corr. energy =       -6.498785250715
 Nuclear repulsion energy =        9.664254829200

       Scaling correction =        0.008762255161

 Numeric. integr. density =        9.000000142031

     Total iterative time =     20.6s



                    DFT Final Alpha Molecular Orbital Analysis
                    ------------------------------------------

 Vector    1  Occ=1.000000D+00  E=-1.019053D+01
              MO Center= -5.6D-08,  2.9D-14, -4.0D-05, r^2= 2.8D-02
   Bfn.  Coefficient  Atom+Function         Bfn.  Coefficient  Atom+Function  
  ----- ------------  ---------------      ----- ------------  ---------------
     1      0.564089  1 C  s                  2      0.462674  1 C  s          

 Vector    2  Occ=1.000000D+00  E=-7.005955D-01
              MO Center= -1.9D-04,  2.9D-11, -1.9D-01, r^2= 9.4D-01
   Bfn.  Coefficient  Atom+Function         Bfn.  Coefficient  Atom+Function  
  ----- ------------  ---------------      ----- ------------  ---------------
     6      0.486144  1 C  s                 10      0.360597  1 C  s          
     2     -0.176907  1 C  s                  1     -0.112111  1 C  s          
    14      0.097915  2 H  s                 17      0.097977  3 H  s          
    20      0.097977  4 H  s                 15      0.080513  2 H  s          
    18      0.080544  3 H  s                 21      0.080544  4 H  s          

 Vector    3  Occ=1.000000D+00  E=-4.145963D-01
              MO Center=  2.4D-01, -5.1D-07, -1.6D-01, r^2= 1.2D+00
   Bfn.  Coefficient  Atom+Function         Bfn.  Coefficient  Atom+Function  
  ----- ------------  ---------------      ----- ------------  ---------------
     7      0.320132  1 C  px                15      0.238370  2 H  s          
     3      0.210924  1 C  px                11      0.184116  1 C  px         
    14      0.175948  2 H  s                 18     -0.119168  3 H  s          
    21     -0.119168  4 H  s                 16      0.114404  2 H  s          
    17     -0.087968  3 H  s                 20     -0.087968  4 H  s          

 Vector    4  Occ=1.000000D+00  E=-4.145847D-01
              MO Center= -2.4D-01,  5.1D-07, -1.6D-01, r^2= 1.2D+00
   Bfn.  Coefficient  Atom+Function         Bfn.  Coefficient  Atom+Function  
  ----- ------------  ---------------      ----- ------------  ---------------
     8      0.320137  1 C  py                 4      0.210947  1 C  py         
    18      0.206432  3 H  s                 21     -0.206431  4 H  s          
    12      0.184113  1 C  py                17      0.152383  3 H  s          
    20     -0.152383  4 H  s                 19      0.099081  3 H  s          
    22     -0.099081  4 H  s          

 Vector    5  Occ=1.000000D+00  E=-2.623994D-01
              MO Center=  1.8D-06, -1.9D-12,  2.0D-01, r^2= 1.1D+00
   Bfn.  Coefficient  Atom+Function         Bfn.  Coefficient  Atom+Function  
  ----- ------------  ---------------      ----- ------------  ---------------
    13      0.458569  1 C  pz                 9      0.400723  1 C  pz         
     5      0.262112  1 C  pz                10      0.210282  1 C  s          
     6      0.167875  1 C  s                  2     -0.053793  1 C  s          
    14     -0.039054  2 H  s                 15     -0.038985  2 H  s          
    17     -0.039038  3 H  s                 18     -0.038950  3 H  s          

 Vector    6  Occ=0.000000D+00  E= 5.462417D-02
              MO Center=  1.9D-04,  2.1D-11, -4.7D-01, r^2= 4.7D+00
   Bfn.  Coefficient  Atom+Function         Bfn.  Coefficient  Atom+Function  
  ----- ------------  ---------------      ----- ------------  ---------------
    10      1.869110  1 C  s                 16     -0.920342  2 H  s          
    19     -0.920011  3 H  s                 22     -0.920011  4 H  s          
    13     -0.359635  1 C  pz                 6      0.200566  1 C  s          
     2     -0.091962  1 C  s                  9     -0.084716  1 C  pz         
     1     -0.057919  1 C  s                  5     -0.055982  1 C  pz         

 Vector    7  Occ=0.000000D+00  E= 1.189323D-01
              MO Center=  7.3D-01,  1.4D-07, -4.9D-01, r^2= 4.3D+00
   Bfn.  Coefficient  Atom+Function         Bfn.  Coefficient  Atom+Function  
  ----- ------------  ---------------      ----- ------------  ---------------
    16      2.003158  2 H  s                 11     -1.104536  1 C  px         
    19     -1.002028  3 H  s                 22     -1.002028  4 H  s          
     7     -0.231407  1 C  px                 3     -0.171591  1 C  px         
    15      0.060281  2 H  s                 14      0.031846  2 H  s          
    18     -0.030066  3 H  s                 21     -0.030066  4 H  s          

 Vector    8  Occ=0.000000D+00  E= 1.189568D-01
              MO Center= -7.3D-01, -1.4D-07, -4.9D-01, r^2= 4.3D+00
   Bfn.  Coefficient  Atom+Function         Bfn.  Coefficient  Atom+Function  
  ----- ------------  ---------------      ----- ------------  ---------------
    19      1.735458  3 H  s                 22     -1.735458  4 H  s          
    12     -1.104522  1 C  py                 8     -0.231375  1 C  py         
     4     -0.171579  1 C  py                18      0.052137  3 H  s          
    21     -0.052137  4 H  s                 17      0.027556  3 H  s          
    20     -0.027556  4 H  s          

 Vector    9  Occ=0.000000D+00  E= 2.878064D-01
              MO Center=  1.5D-01, -2.0D-07,  1.0D-01, r^2= 2.9D+00
   Bfn.  Coefficient  Atom+Function         Bfn.  Coefficient  Atom+Function  
  ----- ------------  ---------------      ----- ------------  ---------------
    12      1.378680  1 C  py                18     -1.075684  3 H  s          
    21      1.075683  4 H  s                 19      0.263088  3 H  s          
    22     -0.263087  4 H  s                 17     -0.081884  3 H  s          
    20      0.081884  4 H  s          

 Vector   10  Occ=0.000000D+00  E= 2.878345D-01
              MO Center= -1.5D-01,  2.0D-07,  1.0D-01, r^2= 2.9D+00
   Bfn.  Coefficient  Atom+Function         Bfn.  Coefficient  Atom+Function  
  ----- ------------  ---------------      ----- ------------  ---------------
    11      1.378822  1 C  px                15     -1.242531  2 H  s          
    18      0.620844  3 H  s                 21      0.620845  4 H  s          
    16      0.304185  2 H  s                 19     -0.151588  3 H  s          
    22     -0.151589  4 H  s                 14     -0.094574  2 H  s          
    17      0.047224  3 H  s                 20      0.047224  4 H  s          

 Vector   11  Occ=0.000000D+00  E= 3.862466D-01
              MO Center=  1.3D-04, -1.3D-11, -3.7D-01, r^2= 2.5D+00
   Bfn.  Coefficient  Atom+Function         Bfn.  Coefficient  Atom+Function  
  ----- ------------  ---------------      ----- ------------  ---------------
    13      1.370327  1 C  pz                10     -1.204587  1 C  s          
    15      0.706766  2 H  s                 18      0.707255  3 H  s          
    21      0.707255  4 H  s                  9     -0.615350  1 C  pz         
     5     -0.175901  1 C  pz                 6     -0.173826  1 C  s          
     2      0.061894  1 C  s                 14      0.040036  2 H  s          

 Vector   12  Occ=0.000000D+00  E= 4.430201D-01
              MO Center= -3.4D-04, -3.4D-11,  4.3D-02, r^2= 2.3D+00
   Bfn.  Coefficient  Atom+Function         Bfn.  Coefficient  Atom+Function  
  ----- ------------  ---------------      ----- ------------  ---------------
    10      1.593981  1 C  s                 15     -1.021563  2 H  s          
    18     -1.022229  3 H  s                 21     -1.022229  4 H  s          
     9     -0.652552  1 C  pz                16      0.190443  2 H  s          
    19      0.189046  3 H  s                 22      0.189046  4 H  s          
     5     -0.182103  1 C  pz                13      0.133582  1 C  pz         

 Vector   13  Occ=0.000000D+00  E= 5.831068D-01
              MO Center=  2.7D-01,  3.8D-08, -1.8D-01, r^2= 2.9D+00
   Bfn.  Coefficient  Atom+Function         Bfn.  Coefficient  Atom+Function  
  ----- ------------  ---------------      ----- ------------  ---------------
    16     -1.862852  2 H  s                 11      1.776792  1 C  px         
     7     -1.059983  1 C  px                19      0.931323  3 H  s          
    22      0.931322  4 H  s                 15      0.585367  2 H  s          
    18     -0.293469  3 H  s                 21     -0.293469  4 H  s          
     3     -0.278100  1 C  px                14      0.083003  2 H  s          

 Vector   14  Occ=0.000000D+00  E= 5.831505D-01
              MO Center= -2.7D-01, -3.8D-08, -1.8D-01, r^2= 2.9D+00
   Bfn.  Coefficient  Atom+Function         Bfn.  Coefficient  Atom+Function  
  ----- ------------  ---------------      ----- ------------  ---------------
    12      1.776605  1 C  py                19     -1.613532  3 H  s          
    22      1.613532  4 H  s                  8     -1.060026  1 C  py         
    18      0.507648  3 H  s                 21     -0.507648  4 H  s          
     4     -0.278098  1 C  py                17      0.071894  3 H  s          
    20     -0.071894  4 H  s          

 Vector   15  Occ=0.000000D+00  E= 7.124717D-01
              MO Center= -3.7D-04, -1.3D-10, -2.8D-01, r^2= 2.7D+00
   Bfn.  Coefficient  Atom+Function         Bfn.  Coefficient  Atom+Function  
  ----- ------------  ---------------      ----- ------------  ---------------
    10      4.135320  1 C  s                  6     -2.118706  1 C  s          
    16     -0.909472  2 H  s                 19     -0.910533  3 H  s          
    22     -0.910533  4 H  s                 13     -0.645794  1 C  pz         
     2      0.266757  1 C  s                 15     -0.182830  2 H  s          
    18     -0.182550  3 H  s                 21     -0.182550  4 H  s          

 Vector   16  Occ=0.000000D+00  E= 2.154460D+00
              MO Center= -1.2D-05, -2.3D-09, -3.3D-01, r^2= 2.0D+00
   Bfn.  Coefficient  Atom+Function         Bfn.  Coefficient  Atom+Function  
[...]
     -0.0343     -0.0000     -0.0550           -18.2830     -0.0000    -29.3645

 PSO-Spin-Orbit terms:
  isotropic    A(au)     -0.0000                           A(MHz)     -0.0000
     -0.0000     -0.0000     -0.0000            -0.0000     -0.0000     -0.0000
     -0.0000     -0.0000     -0.0000            -0.0000     -0.0000     -0.0000
     -0.0000     -0.0000     -0.0000            -0.0000     -0.0000     -0.0000

 Total hyperfine coupling tensor:
  isotropic    A(au)     -0.0533                           A(MHz)    -28.4362
      0.0121     -0.0000     -0.0343             6.4752     -0.0000    -18.2830
     -0.0000     -0.1170     -0.0000            -0.0000    -62.4194     -0.0000
     -0.0343     -0.0000     -0.0550           -18.2830     -0.0000    -29.3645

 In principal axis representation: total span,skew and asymm
        span        skew       asymm               span        skew       asymm
      0.1435      0.3373      0.5957            76.5753    179.9540    317.8627

 Principal Components and Axis System
        1           2           3                 1           2           3
     -0.1170     -0.0694      0.0265           -62.4194    -37.0452     14.1559

1     0.0000      0.3873      0.9219
2     1.0000     -0.0000      0.0000
3     0.0000      0.9219     -0.3873



      Atom:    3  H 

 ----- A-tensor in atomic units ----         ------------- A (MHz) ------------

 FC, SD terms:
  isotropic    A(au)     -0.0533                           A(MHz)    -28.4457
     -0.0847     -0.0559      0.0171           -45.2056    -29.8448      9.1464
     -0.0559     -0.0202     -0.0297           -29.8448    -10.7666    -15.8389
      0.0171     -0.0297     -0.0550             9.1464    -15.8389    -29.3650

 PSO-Spin-Orbit terms:
  isotropic    A(au)     -0.0000                           A(MHz)     -0.0000
     -0.0000     -0.0000     -0.0000            -0.0000     -0.0000     -0.0000
     -0.0000     -0.0000     -0.0000            -0.0000     -0.0000     -0.0000
     -0.0000     -0.0000     -0.0000            -0.0000     -0.0000     -0.0000

 Total hyperfine coupling tensor:
  isotropic    A(au)     -0.0533                           A(MHz)    -28.4457
     -0.0847     -0.0559      0.0171           -45.2056    -29.8448      9.1464
     -0.0559     -0.0202     -0.0297           -29.8448    -10.7666    -15.8389
      0.0171     -0.0297     -0.0550             9.1464    -15.8389    -29.3650

 In principal axis representation: total span,skew and asymm
        span        skew       asymm               span        skew       asymm
      0.1436      0.3370      0.5960            76.5987    179.8320    317.9941

 Principal Components and Axis System
        1           2           3                 1           2           3
     -0.1170     -0.0694      0.0265           -62.4422    -37.0515     14.1565

1     0.8659     -0.1938     -0.4611
2     0.5001      0.3355      0.7983
3     0.0000      0.9219     -0.3874



      Atom:    4  H 

 ----- A-tensor in atomic units ----         ------------- A (MHz) ------------

 FC, SD terms:
  isotropic    A(au)     -0.0533                           A(MHz)    -28.4457
     -0.0847      0.0559      0.0171           -45.2056     29.8448      9.1464
      0.0559     -0.0202      0.0297            29.8448    -10.7666     15.8389
      0.0171      0.0297     -0.0550             9.1464     15.8389    -29.3650

 PSO-Spin-Orbit terms:
  isotropic    A(au)     -0.0000                           A(MHz)     -0.0000
     -0.0000     -0.0000     -0.0000            -0.0000     -0.0000     -0.0000
     -0.0000     -0.0000     -0.0000            -0.0000     -0.0000     -0.0000
     -0.0000     -0.0000     -0.0000            -0.0000     -0.0000     -0.0000

 Total hyperfine coupling tensor:
  isotropic    A(au)     -0.0533                           A(MHz)    -28.4457
     -0.0847      0.0559      0.0171           -45.2056     29.8448      9.1464
      0.0559     -0.0202      0.0297            29.8448    -10.7666     15.8389
      0.0171      0.0297     -0.0550             9.1464     15.8389    -29.3650

 In principal axis representation: total span,skew and asymm
        span        skew       asymm               span        skew       asymm
      0.1436      0.3370      0.5960            76.5987    179.8320    317.9941

 Principal Components and Axis System
        1           2           3                 1           2           3
     -0.1170     -0.0694      0.0265           -62.4422    -37.0515     14.1565

1     0.8659     -0.1938      0.4611
2    -0.5001     -0.3355      0.7983
3     0.0000      0.9219      0.3874




            Scalar ZORA NMR Shielding
            -------------------------


          -----------------------------------------
          Chemical Shielding Tensors (GIAO, in ppm)
          -----------------------------------------


 Read ZORA NMR data from ./ch3radical_unrot_mp.zora_nmrcs

                                NWChem CPHF Module
                                ------------------


  scftype          =     UHF 
  nalpha           =        5
  nbeta            =        4
  variables        =      157
  # of vectors     =        3
  tolerance        = 0.10D-03
  level shift      = 0.00D+00
  max iterations   =       50
  max subspace     =       30


 #quartets = 9.316D+03 #integrals = 2.804D+04 #direct =  0.0% #cached =100.0%


 Integral file          = ./ch3radical_unrot_mp.aoints.0
 Record size in doubles =  65536        No. of integs per rec  =  43688
 Max. records in memory =      3        Max. records in file   = 261910
 No. of bits per label  =      8        No. of bits per value  =     64


File balance: exchanges=     0  moved=     0  time=   0.0

 SCF residual:    1.7480121489988274E-006


Iterative solution of linear equations
  No. of variables      157
  No. of equations        3
  Maximum subspace       30
        Iterations       50
       Convergence  1.0D-04
        Start time     26.7


   iter   nsub   residual    time
   ----  ------  --------  ---------
     1      3    4.00D-01      27.5
     2      6    9.37D-03      28.3
     3      9    5.48D-04      29.0
     4     12    1.36D-05      29.7

 Parallel integral file used       2 records with       0 large values


 Wrote CPHF data to ./ch3radical_unrot_mp.shieldcphf

 Calc. par tensor-> zora
      Atom:    1  C 
        Diamagnetic
    257.3390     -0.0000      0.0000
     -0.0000    257.3406     -0.0000
      0.0000     -0.0000    246.9244

        Paramagnetic
   -226.5984     -0.0000     -0.0186
     -0.0000   -226.5693     -0.0000
     -0.0186     -0.0000    -57.2961

        Total Shielding Tensor
     30.7406     -0.0000     -0.0186
     -0.0000     30.7713     -0.0000
     -0.0186     -0.0000    189.6283

           isotropic =      83.7134
          anisotropy =     158.8724

          Principal Components and Axis System
                 1           2           3
              189.6283     30.7713     30.7406

      1        -0.0001     -0.0000      1.0000
      2        -0.0000      1.0000      0.0000
      3         1.0000      0.0000      0.0001



      Atom:    2  H 
        Diamagnetic
     37.9808     -0.0000     -3.4443
     -0.0000     26.4360     -0.0000
     -3.4443     -0.0000     26.9090

        Paramagnetic
    -11.6314      0.0000      2.7353
      0.0000      1.8538      0.0000
      2.7353      0.0000      3.0285

        Total Shielding Tensor
     26.3494     -0.0000     -0.7090
     -0.0000     28.2898      0.0000
     -0.7090      0.0000     29.9376

           isotropic =      28.1923
          anisotropy =       2.8205

          Principal Components and Axis System
                 1           2           3
               30.0726     28.2898     26.2144

      1        -0.1871     -0.0000      0.9823
      2         0.0000      1.0000      0.0000
      3         0.9823     -0.0000      0.1871



      Atom:    3  H 
        Diamagnetic
     29.3296     -5.0008      1.7231
     -5.0008     35.1015     -2.9839
      1.7231     -2.9839     26.9150

        Paramagnetic
     -1.5223      5.8415     -1.3690
      5.8415     -8.2630      2.3708
     -1.3690      2.3708      3.0269

        Total Shielding Tensor
     27.8073      0.8407      0.3541
      0.8407     26.8385     -0.6131
      0.3541     -0.6131     29.9418

           isotropic =      28.1959
          anisotropy =       2.8208

          Principal Components and Axis System
                 1           2           3
               30.0765     28.2932     26.2181

      1         0.0934      0.8658     -0.4916
      2        -0.1618      0.5003      0.8506
      3         0.9824      0.0001      0.1868



      Atom:    4  H 
        Diamagnetic
     29.3296      5.0008      1.7231
      5.0008     35.1015      2.9839
      1.7231      2.9839     26.9150

        Paramagnetic
     -1.5223     -5.8415     -1.3690
     -5.8415     -8.2630     -2.3708
     -1.3690     -2.3708      3.0269

        Total Shielding Tensor
     27.8073     -0.8407      0.3541
     -0.8407     26.8385      0.6131
      0.3541      0.6131     29.9418

           isotropic =      28.1959
          anisotropy =       2.8208

          Principal Components and Axis System
                 1           2           3
               30.0765     28.2932     26.2181

      1         0.0934      0.8658      0.4916
      2         0.1618     -0.5003      0.8506
      3         0.9824      0.0001     -0.1868




                  ZORA g-Shift
                  ------------


             g-Shift Tensor (in ppm)
             -----------------------


 Read ZORA NMR data from ./ch3radical_unrot_mp.zora_nmrgshift


 Read ZORA NMR data from ./ch3radical_unrot_mp.zora_nmrgshift_AB

nocc=(  5,  4) nclos=(  0,  0) nvirt=( 17, 18) scftyp=UHF)
 coeffpol=   4.0000000000000000     
                                NWChem CPHF Module
                                ------------------


  scftype          =     UHF 
  nalpha           =        5
  nbeta            =        4
  variables        =      157
  # of vectors     =        3
  tolerance        = 0.10D-03
  level shift      = 0.00D+00
  max iterations   =       50
  max subspace     =       30


 #quartets = 9.316D+03 #integrals = 2.804D+04 #direct =  0.0% #cached =100.0%


 Integral file          = ./ch3radical_unrot_mp.aoints.0
 Record size in doubles =  65536        No. of integs per rec  =  43688
 Max. records in memory =      3        Max. records in file   = 261910
 No. of bits per label  =      8        No. of bits per value  =     64


File balance: exchanges=     0  moved=     0  time=   0.0

 SCF residual:    1.7480121478523275E-006


Iterative solution of linear equations
  No. of variables      157
  No. of equations        3
  Maximum subspace       30
        Iterations       50
       Convergence  1.0D-04
        Start time     32.3


   iter   nsub   residual    time
   ----  ------  --------  ---------
     1      3    4.00D-01      33.2
     2      6    9.37D-03      34.1
     3      9    5.48D-04      34.9
     4     12    1.36D-05      35.8

 Parallel integral file used       2 records with       0 large values


 Wrote CPHF data to ./ch3radical_unrot_mp.zora_gshiftcphf

NW-1:(dia,gauge,OO,OV,Totpar)(1,1)=(   -0.867874    -0.000571     0.177964    -0.264637    -0.087243 )
NW-1:(dia,gauge,OO,OV,Totpar)(1,2)=(   -0.000000    -0.000000     0.000000    -0.000000    -0.000000 )
NW-1:(dia,gauge,OO,OV,Totpar)(1,3)=(    0.000001     0.000001    -0.000000    -0.000029    -0.000029 )
NW-1:(dia,gauge,OO,OV,Totpar)(2,1)=(   -0.000000    -0.000000     0.000000    -0.000000    -0.000000 )
NW-1:(dia,gauge,OO,OV,Totpar)(2,2)=(   -0.867873    -0.000571     0.177961    -0.264679    -0.087289 )
NW-1:(dia,gauge,OO,OV,Totpar)(2,3)=(    0.000000    -0.000000     0.000000     0.000000     0.000000 )
NW-1:(dia,gauge,OO,OV,Totpar)(3,1)=(    0.000001     0.000001    -0.000010    -0.000017    -0.000026 )
NW-1:(dia,gauge,OO,OV,Totpar)(3,2)=(    0.000000    -0.000000     0.000000     0.000000     0.000000 )
NW-1:(dia,gauge,OO,OV,Totpar)(3,3)=(   -0.899330    -0.002596     0.214355    -0.344375    -0.132616 )
NW-2:(dia,gauge,OO,OV,Totpar)(1,1)=(   -0.852363    -0.000645     0.010512    -0.885679    -0.875812 )
NW-2:(dia,gauge,OO,OV,Totpar)(1,2)=(   -0.000000    -0.000000     0.000000    -0.000000    -0.000000 )
NW-2:(dia,gauge,OO,OV,Totpar)(1,3)=(    0.000002     0.000001    -0.000019    -0.000034    -0.000052 )
NW-2:(dia,gauge,OO,OV,Totpar)(2,1)=(   -0.000000    -0.000000     0.000000    -0.000000    -0.000000 )
NW-2:(dia,gauge,OO,OV,Totpar)(2,2)=(   -0.852360    -0.000644     0.010510    -0.885507    -0.875641 )
NW-2:(dia,gauge,OO,OV,Totpar)(2,3)=(    0.000000    -0.000000    -0.000000    -0.000000    -0.000000 )
NW-2:(dia,gauge,OO,OV,Totpar)(3,1)=(    0.000002     0.000001    -0.000016    -0.000034    -0.000050 )
NW-2:(dia,gauge,OO,OV,Totpar)(3,2)=(    0.000000    -0.000000    -0.000000    -0.000000    -0.000000 )
NW-2:(dia,gauge,OO,OV,Totpar)(3,3)=(   -0.868658    -0.002938     0.221155    -0.353746    -0.135529 )
NW-T:(dia,gauge,OO,OV,Totpar)(1,1)=(   -0.015512     0.000074     0.167452     0.621042     0.788569 )
NW-T:(dia,gauge,OO,OV,Totpar)(1,2)=(   -0.000000     0.000000     0.000000     0.000000     0.000000 )
NW-T:(dia,gauge,OO,OV,Totpar)(1,3)=(   -0.000000    -0.000000     0.000019     0.000005     0.000024 )
NW-T:(dia,gauge,OO,OV,Totpar)(2,1)=(   -0.000000     0.000000     0.000000     0.000000     0.000000 )
NW-T:(dia,gauge,OO,OV,Totpar)(2,2)=(   -0.015512     0.000074     0.167451     0.620827     0.788352 )
NW-T:(dia,gauge,OO,OV,Totpar)(2,3)=(   -0.000000     0.000000     0.000000     0.000000     0.000000 )
NW-T:(dia,gauge,OO,OV,Totpar)(3,1)=(   -0.000000    -0.000000     0.000007     0.000017     0.000024 )
NW-T:(dia,gauge,OO,OV,Totpar)(3,2)=(   -0.000000     0.000000     0.000000     0.000000     0.000000 )
NW-T:(dia,gauge,OO,OV,Totpar)(3,3)=(   -0.030672     0.000343    -0.006800     0.009371     0.002914 )
        Diamagnetic
     -0.0155     -0.0000     -0.0000
     -0.0000     -0.0155     -0.0000
     -0.0000     -0.0000     -0.0307

        Paramagnetic
      0.7886      0.0000      0.0000
      0.0000      0.7884      0.0000
      0.0000      0.0000      0.0029

        Total g shift Tensor
      0.7731      0.0000      0.0000
      0.0000      0.7728      0.0000
      0.0000      0.0000     -0.0278

           isotropic =       0.5060
          anisotropy =       0.4005

          Principal Components and Axis System
                 1           2           3
                0.7731      0.7728     -0.0278

      1         1.0000     -0.0000     -0.0000
      2         0.0000      1.0000     -0.0000
      3         0.0000      0.0000      1.0000




 Task  times  cpu:       27.5s     wall:       33.7s


                                NWChem Input Module
                                -------------------


 Summary of allocated global arrays
-----------------------------------
  array 0 => double precision sf 1(22,22),  handle: -981 
  array 1 => double precision sf 1(22,22),  handle: -980 
  array 2 => double precision dft_zora_Hyperfine: g_AtNr(1,4),  handle: -926 



                         GA Statistics for process    0
                         ------------------------------

       create   destroy   get      put      acc     scatter   gather  read&inc
calls: 1896     1872     4.92e+05 1.05e+04 2.43e+05  494        0      932     
number of processes/call 2.29e+12 7.72e+14 2.55e+13 0.00e+00 0.00e+00
bytes total:             6.42e+07 8.32e+06 5.15e+07 1.22e+03 0.00e+00 7.46e+03
bytes remote:            1.01e+07 1.60e+06 1.38e+07 -6.72e+02 0.00e+00 0.00e+00
Max memory consumed for GA by this process: 398424 bytes

MA_summarize_allocated_blocks: starting scan ...
MA_summarize_allocated_blocks: scan completed: 0 heap blocks, 0 stack blocks
MA usage statistics:

	allocation statistics:
					      heap	     stack
					      ----	     -----
	current number of blocks	         0	         0
	maximum number of blocks	        62	        72
	current total bytes		         0	         0
	maximum total bytes		   4485584	  22519480
	maximum total K-bytes		      4486	     22520
	maximum total M-bytes		         5	        23


                                     CITATION
                                     --------
                Please cite the following reference when publishing
                           results obtained with NWChem:

          E. Apra, E. J. Bylaska, W. A. de Jong, N. Govind, K. Kowalski,
       T. P. Straatsma, M. Valiev, H. J. J. van Dam, Y. Alexeev, J. Anchell,
       V. Anisimov, F. W. Aquino, R. Atta-Fynn, J. Autschbach, N. P. Bauman,
     J. C. Becca, D. E. Bernholdt, K. Bhaskaran-Nair, S. Bogatko, P. Borowski,
         J. Boschen, J. Brabec, A. Bruner, E. Cauet, Y. Chen, G. N. Chuev,
      C. J. Cramer, J. Daily, M. J. O. Deegan, T. H. Dunning Jr., M. Dupuis,
   K. G. Dyall, G. I. Fann, S. A. Fischer, A. Fonari, H. Fruchtl, L. Gagliardi,
      J. Garza, N. Gawande, S. Ghosh, K. Glaesemann, A. W. Gotz, J. Hammond,
       V. Helms, E. D. Hermes, K. Hirao, S. Hirata, M. Jacquelin, L. Jensen,
   B. G. Johnson, H. Jonsson, R. A. Kendall, M. Klemm, R. Kobayashi, V. Konkov,
      S. Krishnamoorthy, M. Krishnan, Z. Lin, R. D. Lins, R. J. Littlefield,
      A. J. Logsdail, K. Lopata, W. Ma, A. V. Marenich, J. Martin del Campo,
   D. Mejia-Rodriguez, J. E. Moore, J. M. Mullin, T. Nakajima, D. R. Nascimento,
    J. A. Nichols, P. J. Nichols, J. Nieplocha, A. Otero-de-la-Roza, B. Palmer,
    A. Panyala, T. Pirojsirikul, B. Peng, R. Peverati, J. Pittner, L. Pollack,
   R. M. Richard, P. Sadayappan, G. C. Schatz, W. A. Shelton, D. W. Silverstein,
   D. M. A. Smith, T. A. Soares, D. Song, M. Swart, H. L. Taylor, G. S. Thomas,
            V. Tipparaju, D. G. Truhlar, K. Tsemekhman, T. Van Voorhis,
      A. Vazquez-Mayagoitia, P. Verma, O. Villa, A. Vishnu, K. D. Vogiatzis,
        D. Wang, J. H. Weare, M. J. Williamson, T. L. Windus, K. Wolinski,
        A. T. Wong, Q. Wu, C. Yang, Q. Yu, M. Zacharias, Z. Zhang, Y. Zhao,
                                and R. J. Harrison
                        "NWChem: Past, present, and future
                         J. Chem. Phys. 152, 184102 (2020)
                               doi:10.1063/5.0004997

                                      AUTHORS
                                      -------
     E. Apra, E. J. Bylaska, N. Govind, K. Kowalski, M. Valiev, W. A. de Jong,
      T. P. Straatsma, H. J. J. van Dam, D. Wang, T. L. Windus, N. P. Bauman,
       A. Panyala, J. Hammond, J. Autschbach, K. Bhaskaran-Nair, J. Brabec,
    K. Lopata, S. A. Fischer, S. Krishnamoorthy, M. Jacquelin, W. Ma, M. Klemm,
       O. Villa, Y. Chen, V. Anisimov, F. Aquino, S. Hirata, M. T. Hackler,
           Eric Hermes, L. Jensen, J. E. Moore, J. C. Becca, V. Konjkov,
            D. Mejia-Rodriguez, T. Risthaus, M. Malagoli, A. Marenich,
   A. Otero-de-la-Roza, J. Mullin, P. Nichols, R. Peverati, J. Pittner, Y. Zhao,
        P.-D. Fan, A. Fonari, M. J. Williamson, R. J. Harrison, J. R. Rehr,
      M. Dupuis, D. Silverstein, D. M. A. Smith, J. Nieplocha, V. Tipparaju,
      M. Krishnan, B. E. Van Kuiken, A. Vazquez-Mayagoitia, M. Swart, Q. Wu,
   T. Van Voorhis, A. A. Auer, M. Nooijen, L. D. Crosby, E. Brown, G. Cisneros,
     G. I. Fann, H. Fruchtl, J. Garza, K. Hirao, R. A. Kendall, J. A. Nichols,
       K. Tsemekhman, K. Wolinski, J. Anchell, D. E. Bernholdt, P. Borowski,
       T. Clark, D. Clerc, H. Dachsel, M. J. O. Deegan, K. Dyall, D. Elwood,
      E. Glendening, M. Gutowski, A. C. Hess, J. Jaffe, B. G. Johnson, J. Ju,
        R. Kobayashi, R. Kutteh, Z. Lin, R. Littlefield, X. Long, B. Meng,
      T. Nakajima, S. Niu, L. Pollack, M. Rosing, K. Glaesemann, G. Sandrone,
      M. Stave, H. Taylor, G. Thomas, J. H. van Lenthe, A. T. Wong, Z. Zhang.

 Total times  cpu:       29.3s     wall:       35.8s
