 argument  1 = o2_zora_so.nw
                                         
                                         
 
 
              Northwest Computational Chemistry Package (NWChem) 6.0
              ------------------------------------------------------
 
 
                    Environmental Molecular Sciences Laboratory
                       Pacific Northwest National Laboratory
                                Richland, WA 99352
 
                                         
                                         
 
 
                  COPYRIGHT (C) 1994, 1995, 1996, 1997, 1998, 1999,
                2000, 2001, 2002, 2003, 2004, 2005, 2006, 2007, 2008,
                                     2009, 2010
                        Pacific Northwest National Laboratory,
                             Battelle Memorial Institute.
 
                            >>> All Rights Reserved <<<
 
 
                                    DISCLAIMER
                                    ----------

            This material was prepared as an account of work sponsored
            by an agency of the United States Government.  Neither the
            United States Government nor the United States Department
            of Energy, nor Battelle, nor any of their employees, MAKES
            ANY WARRANTY, EXPRESS OR IMPLIED, OR ASSUMES ANY LEGAL
            LIABILITY OR RESPONSIBILITY FOR THE ACCURACY, COMPLETENESS,
            OR USEFULNESS OF ANY INFORMATION, APPARATUS, PRODUCT,
            SOFTWARE, OR PROCESS DISCLOSED, OR REPRESENTS THAT ITS USE
            WOULD NOT INFRINGE PRIVATELY OWNED RIGHTS.


                                    LIMITED USE
                                    -----------

            This software (including any documentation) is being made
            available to you for your internal use only, solely for use
            in performance of work directly for the U.S. Federal
            Government or work under contracts with the U.S. Department
            of Energy or other U.S. Federal Government agencies.  This
            software is a version which has not yet been evaluated and
            cleared for commercialization.  Adherence to this notice
            may be necessary for the author, Battelle Memorial
            Institute, to successfully assert copyright in and
            commercialize this software. This software is not intended
            for duplication or distribution to third parties without
            the permission of the Manager of Software Products at
            Pacific Northwest National Laboratory, Richland,
            Washington, 99352.


                                  ACKNOWLEDGMENT
                                  --------------

            This software and its documentation were produced with
            Government support under Contract Number DE-AC05-76RL01830
            awarded by the United States Department of Energy.  The
            Government retains a paid-up non-exclusive, irrevocable
            worldwide license to reproduce, prepare derivative works,
            perform publicly and display publicly by or for the
            Government, including the right to distribute to other
            Government contractors.


           Job information
           ---------------

    hostname      = curie
    program       = ../../../bin/LINUX64/nwchem
    date          = Mon Mar 15 16:38:05 2010

    compiled      = Mon_Mar_15_16:14:53_2010
    source        = /home/niri/nwchem/nwchem-6.0
    nwchem branch = 6.0
    input         = o2_zora_so.nw
    prefix        = o2_zora_so.
    data base     = ./o2_zora_so.db
    status        = startup
    nproc         =        4
    time left     =     -1s



           Memory information
           ------------------

    heap      =   13107201 doubles =    100.0 Mbytes
    stack     =   13107201 doubles =    100.0 Mbytes
    global    =   26214400 doubles =    200.0 Mbytes (distinct from heap & stack)
    total     =   52428802 doubles =    400.0 Mbytes
    verify    = yes
    hardfail  = no 


           Directory information
           ---------------------
 
  0 permanent = .
  0 scratch   = .
 
 
 
 
                                NWChem Input Module
                                -------------------
 
 

 Scaling coordinates for geometry "geometry" by  1.889725989
 (inverse scale =  0.529177249)

 ORDER OF PRIMARY AXIS IS BEING SET TO 4
 D4H symmetry detected
 
 
                             Geometry "geometry" -> ""
                             -------------------------
 
 Output coordinates in angstroms (scale by  1.889725989 to convert to a.u.)
 
  No.       Tag          Charge          X              Y              Z
 ---- ---------------- ---------- -------------- -------------- --------------
    1 O                    8.0000     0.00000000     0.00000000    -0.60000000
    2 O                    8.0000     0.00000000     0.00000000     0.60000000
 
      Atomic Mass 
      ----------- 
 
      O                 15.994910
 

 Effective nuclear repulsion energy (a.u.)      28.2227866133

            Nuclear Dipole moment (a.u.) 
            ----------------------------
        X                 Y               Z
 ---------------- ---------------- ----------------
     0.0000000000     0.0000000000     0.0000000000
 
      Symmetry information
      --------------------
 
 Group name             D4h       
 Group number             28
 Group order              16
 No. of unique centers     1
 
      Symmetry unique atoms
 
     1
 
 
            XYZ format geometry
            -------------------
     2
 geometry
 O                     0.00000000     0.00000000    -0.60000000
 O                     0.00000000     0.00000000     0.60000000
 
 ==============================================================================
                                internuclear distances
 ------------------------------------------------------------------------------
       center one      |      center two      | atomic units |  angstroms
 ------------------------------------------------------------------------------
    2 O                |   1 O                |     2.26767  |     1.20000
 ------------------------------------------------------------------------------
                         number of included internuclear distances:          1
 ==============================================================================



  library name resolved from: environment
  library file name is: </home/niri/nwchem/nwchem-6.0/src/basis/libraries/>
  


 Summary of "ao basis" -> "" (spherical)
 ------------------------------------------------------------------------------
       Tag                 Description            Shells   Functions and Types
 ---------------- ------------------------------  ------  ---------------------
 *                     DZVP (DFT Orbital)             on all atoms 


 
 
                           NWChem Geometry Optimization
                           ----------------------------
 
 
 maximum gradient threshold         (gmax) =   0.000450
 rms gradient threshold             (grms) =   0.000300
 maximum cartesian step threshold   (xmax) =   0.001800
 rms cartesian step threshold       (xrms) =   0.001200
 fixed trust radius                (trust) =   0.300000
 maximum step size to saddle      (sadstp) =   0.100000
 energy precision                  (eprec) =   1.0D-07
 maximum number of steps          (nptopt) =  100
 initial hessian option           (inhess) =    0
 line search option               (linopt) =    1
 hessian update option            (modupd) =    1
 saddle point option              (modsad) =    0
 initial eigen-mode to follow     (moddir) =    0
 initial variable to follow       (vardir) =    0
 follow first negative mode     (firstneg) =    T
 apply conjugacy                    (opcg) =    F
 source of zmatrix                         =           


          -------------------
          Energy Minimization
          -------------------

 
 Using diagonal initial Hessian 

          --------
          Step   0
          --------
 
 
                         Geometry "geometry" -> "geometry"
                         ---------------------------------
 
 Output coordinates in angstroms (scale by  1.889725989 to convert to a.u.)
 
  No.       Tag          Charge          X              Y              Z
 ---- ---------------- ---------- -------------- -------------- --------------
    1 O                    8.0000     0.00000000     0.00000000    -0.60000000
    2 O                    8.0000     0.00000000     0.00000000     0.60000000
 
      Atomic Mass 
      ----------- 
 
      O                 15.994910
 

 Effective nuclear repulsion energy (a.u.)      28.2227866133

            Nuclear Dipole moment (a.u.) 
            ----------------------------
        X                 Y               Z
 ---------------- ---------------- ----------------
     0.0000000000     0.0000000000     0.0000000000
 
      Symmetry information
      --------------------
 
 Group name             D4h       
 Group number             28
 Group order              16
 No. of unique centers     1
 
      Symmetry unique atoms
 
     1
 
 
                                 NWChem DFT Module
                                 -----------------
 
 
                      Basis "ao basis" -> "ao basis" (spherical)
                      -----
  O (Oxygen)
  ----------
            Exponent  Coefficients 
       -------------- ---------------------------------------------------------
  1 S  5.22290220E+03 -0.001936
  1 S  7.82539940E+02 -0.014851
  1 S  1.77267430E+02 -0.073319
  1 S  4.95166880E+01 -0.245116
  1 S  1.56664400E+01 -0.480285
  1 S  5.17935990E+00 -0.335943
 
  2 S  1.06014410E+01  0.078806
  2 S  9.42317000E-01 -0.567695
 
  3 S  2.77474600E-01  1.000000
 
  4 P  3.34241260E+01  0.017560
  4 P  7.62217140E+00  0.107630
  4 P  2.23820930E+00  0.323526
  4 P  6.86730000E-01  0.483223
 
  5 P  1.93813500E-01  1.000000
 
  6 D  8.00000000E-01  1.000000
 


 Summary of "ao basis" -> "ao basis" (spherical)
 ------------------------------------------------------------------------------
       Tag                 Description            Shells   Functions and Types
 ---------------- ------------------------------  ------  ---------------------
 O                     DZVP (DFT Orbital)            6       14   3s2p1d


  WARNING: CD fitting not compatible with spinorbit
  WARNING: disabling CD fitting
  Caching 1-el integrals 
 
            General Information
            -------------------
          SCF calculation type: DFT
          Wavefunction type:  spin polarized.
          No. of atoms     :     2
          No. of electrons :    16
           Alpha electrons :     9
            Beta electrons :     7
          Charge           :     0
          Spin multiplicity:     3
          Use of symmetry is: off; symmetry adaption is: off
          Maximum number of iterations: 100
          AO basis - number of functions:    28
                     number of shells:    12
          Convergence on energy requested: 1.00D-06
          Convergence on density requested: 1.00D-05
          Convergence on gradient requested: 5.00D-04
 
              XC Information
              --------------
                         B3LYP Method XC Potential
                     Hartree-Fock (Exact) Exchange  0.200          
                        Slater Exchange Functional  0.800 local    
                    Becke 1988 Exchange Functional  0.720 non-local
              Lee-Yang-Parr Correlation Functional  0.810          
                  VWN I RPA Correlation Functional  0.190 local    
 
             Grid Information
             ----------------
          Grid used for XC integration:  xfine     
          Radial quadrature: Mura-Knowles        
          Angular quadrature: Lebedev. 
          Tag              B.-S. Rad. Rad. Pts. Rad. Cut. Ang. Pts.
          ---              ---------- --------- --------- ---------
          O                   0.60      100           6.0      1454
          Grid pruning is: on 
          Number of quadrature shells:   200
          Spatial weights used:  Erf1
 
          Convergence Information
          -----------------------
          Convergence aids based upon iterative change in 
          total energy or number of iterations. 
          Levelshifting, if invoked, occurs when the 
          HOMO/LUMO gap drops below (HL_TOL): 1.00D-02
          DIIS, if invoked, will attempt to extrapolate 
          using up to (NFOCK): 10 stored Fock matrices.

                    Damping( 0%)  Levelshifting(0.5)       DIIS
                  --------------- ------------------- ---------------
          dE  on:    start            ASAP                start   
          dE off:    2 iters        100 iters           100 iters 

 
      Screening Tolerance Information
      -------------------------------
          Density screening/tol_rho: 1.00D-10
          AO Gaussian exp screening on grid/accAOfunc:  14
          CD Gaussian exp screening on grid/accCDfunc:  20
          XC Gaussian exp screening on grid/accXCfunc:  20
          Schwarz screening/accCoul: 1.00D-10

 
 ===============================
  Performing SODFT calculations 
 ===============================
 
 
 Performing ZORA calculations
 
 
      Superposition of Atomic Density Guess
      -------------------------------------
 
 Sum of atomic energies:        -149.52590251
 
      Non-variational initial energy
      ------------------------------

 Total energy =    -149.627439
 1-e energy   =    -262.351113
 2-e energy   =      84.500888
 HOMO         =      -0.200062
 LUMO         =      -0.200062
 

 Read atomic ZORA corrections from ./o2_zora_so.zora_so

 dft_zora_read_so: failed to open ./o2_zora_so.zora_so

 Grid_pts file          = ./o2_zora_so.gridpts.0
 Record size in doubles =  12289        No. of grid_pts per rec  =   3070
 Max. records in memory =     28        Max. recs in file   =     91659


 Wrote atomic ZORA corrections to ./o2_zora_so.zora_so

   Time prior to 1st pass:     15.7

 #quartets = 3.080D+03 #integrals = 2.184D+04 #direct =  0.0% #cached =100.0%


 Integral file          = ./o2_zora_so.aoints.0
 Record size in doubles =  65536        No. of integs per rec  =  43688
 Max. records in memory =      2        Max. records in file   =  17184
 No. of bits per label  =      8        No. of bits per value  =     64


File balance: exchanges=     0  moved=     0  time=   0.0


           Memory utilization after 1st SCF pass: 
           Heap Space remaining (MW):       12.63            12630280
          Stack Space remaining (MW):       13.10            13099972

   convergence    iter        energy       DeltaE   RMS-Dens  Diis-err    time
 ---------------- ----- ----------------- --------- --------- ---------  ------
 d= 0,ls=0.0,diis     1   -150.4640612927 -1.79D+02  1.58D-02  1.95D-01    16.1
                                                     6.16D-03  1.95D-01
 d= 0,ls=0.0,diis     2   -150.4866582879 -2.26D-02  5.84D-03  9.21D-02    16.5
                                                     4.44D-03  9.21D-02
 d= 0,ls=0.0,diis     3   -150.5073731113 -2.07D-02  1.00D-03  7.64D-04    17.0
                                                     1.89D-04  7.64D-04
 d= 0,ls=0.0,diis     4   -150.5075964474 -2.23D-04  6.01D-05  3.59D-05    17.4
                                                     1.44D-04  3.59D-05
 d= 0,ls=0.0,diis     5   -150.5076083517 -1.19D-05  3.72D-05  9.28D-07    17.8
                                                     1.79D-05  9.28D-07
 d= 0,ls=0.0,diis     6   -150.5076086904 -3.39D-07  9.76D-07  1.96D-08    18.3
                                                     1.04D-06  1.96D-08


         Total DFT energy =   -150.507608690300
      One electron energy =   -262.319607791453
           Coulomb energy =    100.592346012174
    Exchange-Corr. energy =    -17.003133524339
 Nuclear repulsion energy =     28.222786613317

       Scaling correction =      0.059663904882

 Numeric. integr. density =     15.999999990351

     Total iterative time =      3.1s


 
                       DFT Final Molecular Orbital Analysis
                       ------------------------------------
 
 Vector    5  Occ=1.000000D+00  E=-1.325393D+00
              MO Center=  2.1D-08, -4.5D-08, -3.8D-06, r^2= 2.6D-01
  Bfn.     Coefficient        Function     Bfn.     Coefficient        Function
  ---- -------------------  ------------     ---- -------------------  ------------
     2   0.279046 0.244350  1 O  s                 16   0.279041 0.244345  2 O  s          
     3  -0.171616-0.150277  1 O  s                 17  -0.171610-0.150272  2 O  s          
     6  -0.148598-0.130122  1 O  pz                20   0.148598 0.130122  2 O  pz         
     1  -0.125803-0.110161  1 O  s                 15  -0.125801-0.110159  2 O  s          
 
 Vector    6  Occ=1.000000D+00  E=-1.268236D+00
              MO Center=  1.8D-12,  3.8D-12,  2.6D-09, r^2= 3.1D-08
  Bfn.     Coefficient        Function     Bfn.     Coefficient        Function
  ---- -------------------  ------------     ---- -------------------  ------------
    30   0.008500 0.348548  1 O  s                 44   0.008500 0.348542  2 O  s          
    31  -0.005684-0.233076  1 O  s                 45  -0.005684-0.233070  2 O  s          
    34  -0.005153-0.211308  1 O  pz                48   0.005153 0.211308  2 O  pz         
    29  -0.003977-0.163087  1 O  s                 43  -0.003977-0.163084  2 O  s          
 
 Vector    7  Occ=1.000000D+00  E=-8.424700D-01
              MO Center=  6.0D-09, -3.6D-08, -9.7D-06, r^2= 8.4D-01
  Bfn.     Coefficient        Function     Bfn.     Coefficient        Function
  ---- -------------------  ------------     ---- -------------------  ------------
     2  -0.373638-0.185350  1 O  s                 16   0.373637 0.185350  2 O  s          
     3   0.366566 0.181842  1 O  s                 17  -0.366565-0.181841  2 O  s          
    15  -0.160305-0.079522  2 O  s                  1   0.160304 0.079522  1 O  s          
 
 Vector    8  Occ=1.000000D+00  E=-7.541548D-01
              MO Center= -2.6D-12, -4.3D-11,  1.2D-08, r^2= 2.9D-07
  Bfn.     Coefficient        Function     Bfn.     Coefficient        Function
  ---- -------------------  ------------     ---- -------------------  ------------
    31   0.046575 0.408523  1 O  s                 45  -0.046574-0.408519  2 O  s          
    30  -0.045097-0.395559  1 O  s                 44   0.045097 0.395557  2 O  s          
    29   0.019773 0.173434  1 O  s                 43  -0.019773-0.173433  2 O  s          
    34  -0.017991-0.157803  1 O  pz                48  -0.017989-0.157785  2 O  pz         
 
 Vector    9  Occ=1.000000D+00  E=-5.749823D-01
              MO Center= -3.6D-09,  3.1D-07, -2.1D-05, r^2= 4.1D-01
  Bfn.     Coefficient        Function     Bfn.     Coefficient        Function
  ---- -------------------  ------------     ---- -------------------  ------------
     4   0.005969-0.383588  1 O  px                 5  -0.383588-0.005965  1 O  py         
    18   0.005969-0.383558  2 O  px                19  -0.383558-0.005965  2 O  py         
 
 Vector   10  Occ=1.000000D+00  E=-5.741749D-01
              MO Center=  6.6D-07, -1.2D-08, -4.4D-07, r^2= 4.1D-01
  Bfn.     Coefficient        Function     Bfn.     Coefficient        Function
  ---- -------------------  ------------     ---- -------------------  ------------
     5   0.000002 0.383299  1 O  py                 4   0.383299 0.000002  1 O  px         
    19   0.000002 0.383296  2 O  py                18   0.383296 0.000002  2 O  px         
 
 Vector   11  Occ=1.000000D+00  E=-5.571480D-01
              MO Center= -1.4D-07,  1.5D-07,  8.3D-07, r^2= 6.1D-02
  Bfn.     Coefficient        Function     Bfn.     Coefficient        Function
  ---- -------------------  ------------     ---- -------------------  ------------
     6   0.124742 0.515210  1 O  pz                20  -0.124741-0.515207  2 O  pz         
    17  -0.062034-0.256212  2 O  s                  3  -0.062031-0.256200  1 O  s          
 
 Vector   12  Occ=1.000000D+00  E=-5.164048D-01
              MO Center=  1.8D-11, -2.2D-11, -7.6D-08, r^2= 4.0D-06
  Bfn.     Coefficient        Function     Bfn.     Coefficient        Function
  ---- -------------------  ------------     ---- -------------------  ------------
    34   0.034882-0.518469  1 O  pz                48  -0.034882 0.518467  2 O  pz         
    45  -0.018950 0.281670  2 O  s                 31  -0.018949 0.281653  1 O  s          
    51  -0.010590 0.157409  2 O  pz                37   0.010590-0.157409  1 O  pz         
 
 Vector   13  Occ=1.000000D+00  E=-4.730689D-01
              MO Center=  7.9D-12,  3.9D-11,  8.5D-09, r^2= 1.9D-07
  Bfn.     Coefficient        Function     Bfn.     Coefficient        Function
  ---- -------------------  ------------     ---- -------------------  ------------
    32   0.173508-0.314906  1 O  px                33   0.314905 0.173510  1 O  py         
    46   0.173495-0.314883  2 O  px                47   0.314881 0.173497  2 O  py         
 
 Vector   14  Occ=1.000000D+00  E=-4.723669D-01
              MO Center=  2.1D-13,  2.1D-13,  1.0D-12, r^2= 3.2D-12
  Bfn.     Coefficient        Function     Bfn.     Coefficient        Function
  ---- -------------------  ------------     ---- -------------------  ------------
    47  -0.357334-0.036439  2 O  py                46   0.036437-0.357334  2 O  px         
    33  -0.357325-0.036438  1 O  py                32   0.036436-0.357325  1 O  px         
 
 Vector   15  Occ=1.000000D+00  E=-3.143212D-01
              MO Center=  1.0D-09, -5.9D-09,  2.1D-05, r^2= 4.8D-01
  Bfn.     Coefficient        Function     Bfn.     Coefficient        Function
  ---- -------------------  ------------     ---- -------------------  ------------
    18   0.007207-0.441344  2 O  px                19  -0.441343-0.007209  2 O  py         
     4  -0.007206 0.441316  1 O  px                 5   0.441314 0.007208  1 O  py         
    21   0.003626-0.222053  2 O  px                22  -0.222053-0.003627  2 O  py         
     7  -0.003626 0.222047  1 O  px                 8   0.222046 0.003627  1 O  py         
 
 Vector   16  Occ=1.000000D+00  E=-3.132184D-01
              MO Center= -3.4D-08, -2.5D-09,  5.7D-08, r^2= 4.8D-01
  Bfn.     Coefficient        Function     Bfn.     Coefficient        Function
  ---- -------------------  ------------     ---- -------------------  ------------
     5   0.000001-0.441037  1 O  py                 4  -0.441036 0.000001  1 O  px         
    19  -0.000001 0.441031  2 O  py                18   0.441030-0.000001  2 O  px         
    22  -0.000001 0.222852  2 O  py                21   0.222852-0.000001  2 O  px         
     8   0.000000-0.222845  1 O  py                 7  -0.222845 0.000000  1 O  px         
 
 Vector   17  Occ=0.000000D+00  E=-1.210137D-01
              MO Center=  1.8D-11, -2.1D-11, -1.0D-07, r^2= 1.4D-06
  Bfn.     Coefficient        Function     Bfn.     Coefficient        Function
  ---- -------------------  ------------     ---- -------------------  ------------
    46   0.181297-0.369827  2 O  px                47   0.369830 0.181288  2 O  py         
    32  -0.181287 0.369806  1 O  px                33  -0.369809-0.181278  1 O  py         
    49   0.125411-0.255826  2 O  px                50   0.255828 0.125405  2 O  py         
    35  -0.125408 0.255818  1 O  px                36  -0.255820-0.125401  1 O  py         
 
 Vector   18  Occ=0.000000D+00  E=-1.200644D-01
              MO Center= -1.8D-13, -1.5D-13, -2.4D-13, r^2= 1.5D-12
  Bfn.     Coefficient        Function     Bfn.     Coefficient        Function
  ---- -------------------  ------------     ---- -------------------  ------------
    33   0.093033 0.400783  1 O  py                32  -0.400783 0.093023  1 O  px         
    47  -0.093029-0.400768  2 O  py                46   0.400769-0.093019  2 O  px         
    50  -0.064614-0.278358  2 O  py                49   0.278358-0.064608  2 O  px         
    36   0.064614 0.278356  1 O  py                35  -0.278357 0.064607  1 O  px         
 
 Vector   19  Occ=0.000000D+00  E= 1.726380D-01
              MO Center=  8.1D-08,  3.2D-07,  2.2D-07, r^2= 1.1D+00
  Bfn.     Coefficient        Function     Bfn.     Coefficient        Function
  ---- -------------------  ------------     ---- -------------------  ------------
    17  -0.819193-0.783095  2 O  s                  3   0.819189 0.783091  1 O  s          
    23   0.714678 0.683186  2 O  pz                 9   0.714676 0.683184  1 O  pz         
    20   0.352636 0.337097  2 O  pz                 6   0.352634 0.337095  1 O  pz         
     2  -0.165938-0.158626  1 O  s                 16   0.165932 0.158620  2 O  s          
 
 Vector   20  Occ=0.000000D+00  E= 2.078222D-01
              MO Center=  5.0D-11, -2.1D-10, -1.8D-07, r^2= 3.7D-06
  Bfn.     Coefficient        Function     Bfn.     Coefficient        Function
  ---- -------------------  ------------     ---- -------------------  ------------
    45   0.050841 1.263343  2 O  s                 31  -0.050840-1.263336  1 O  s          
    51  -0.043557-1.082363  2 O  pz                37  -0.043557-1.082361  1 O  pz         
    48  -0.017648-0.438531  2 O  pz                34  -0.017648-0.438529  1 O  pz         
    30   0.008852 0.219976  1 O  s                 44  -0.008852-0.219967  2 O  s          
 
 Vector   21  Occ=0.000000D+00  E= 4.519667D-01
              MO Center=  5.1D-07,  2.0D-06, -2.9D-05, r^2= 1.5D+00
  Bfn.     Coefficient        Function     Bfn.     Coefficient        Function
  ---- -------------------  ------------     ---- -------------------  ------------
     9   0.914861 0.745403  1 O  pz                23   0.914829 0.745377  2 O  pz         
    17  -0.879527-0.716613  2 O  s                  3   0.879506 0.716597  1 O  s          
     6  -0.499642-0.407094  1 O  pz                20  -0.499629-0.407083  2 O  pz         
 
 Vector   22  Occ=0.000000D+00  E= 4.748763D-01
              MO Center= -4.8D-09,  1.2D-08,  1.5D-06, r^2= 6.7D-03
  Bfn.     Coefficient        Function     Bfn.     Coefficient        Function
  ---- -------------------  ------------     ---- -------------------  ------------
    37   0.322704-1.063640  1 O  pz                51   0.322695-1.063608  2 O  pz         
    45  -0.308945 1.018290  2 O  s                 31   0.308939-1.018271  1 O  s          
    34  -0.194864 0.642275  1 O  pz                48  -0.194859 0.642261  2 O  pz         
 
 Vector   23  Occ=0.000000D+00  E= 4.823919D-01
              MO Center=  1.3D-08,  2.8D-07,  1.3D-05, r^2= 1.0D+00
  Bfn.     Coefficient        Function     Bfn.     Coefficient        Function
  ---- -------------------  ------------     ---- -------------------  ------------
    21  -0.013751-0.445713  2 O  px                22  -0.445714 0.013708  2 O  py         
     7  -0.013750-0.445682  1 O  px                 8  -0.445682 0.013707  1 O  py         
    18   0.012238 0.396680  2 O  px                19   0.396681-0.012200  2 O  py         
     4   0.012238 0.396667  1 O  px                 5   0.396667-0.012200  1 O  py         
 
 Vector   24  Occ=0.000000D+00  E= 4.830664D-01
              MO Center= -1.6D-08, -6.9D-09, -4.8D-05, r^2= 1.1D+00
  Bfn.     Coefficient        Function     Bfn.     Coefficient        Function
  ---- -------------------  ------------     ---- -------------------  ------------
     8   0.000020-0.447295  1 O  py                 7  -0.447294 0.000020  1 O  px         
    22   0.000021-0.447185  2 O  py                21  -0.447184 0.000021  2 O  px         
     5  -0.000018 0.398391  1 O  py                 4   0.398390-0.000018  1 O  px         
    19  -0.000019 0.398351  2 O  py                18   0.398350-0.000018  2 O  px         
 
 Vector   25  Occ=0.000000D+00  E= 5.242571D-01
              MO Center=  2.7D-09,  6.7D-10,  2.4D-06, r^2= 6.7D-05
  Bfn.     Coefficient        Function     Bfn.     Coefficient        Function
  ---- -------------------  ------------     ---- -------------------  ------------
    49   0.286063-0.334737  2 O  px                50   0.334749 0.286048  2 O  py         
    35   0.286045-0.334715  1 O  px                36   0.334728 0.286030  1 O  py         
    46  -0.270613 0.316657  2 O  px                47  -0.316669-0.270599  2 O  py         
    32  -0.270605 0.316648  1 O  px                33  -0.316660-0.270591  1 O  py         
 
 Vector   26  Occ=0.000000D+00  E= 5.250362D-01
              MO Center=  1.1D-12,  1.4D-13, -3.5D-12, r^2= 1.5D-11
  Bfn.     Coefficient        Function     Bfn.     Coefficient        Function
  ---- -------------------  ------------     ---- -------------------  ------------
    36   0.223821-0.379120  1 O  py                35   0.379110 0.223838  1 O  px         
    50   0.223770-0.379033  2 O  py                49   0.379023 0.223787  2 O  px         
    33  -0.211902 0.358931  1 O  py                32  -0.358922-0.211918  1 O  px         
    47  -0.211881 0.358895  2 O  py                46  -0.358886-0.211897  2 O  px         
 

   alpha - beta orbital overlaps 
   ----------------------------- 


   alpha      1      2      3      4      5      6      7      8      9     10
    beta      1      2      3     18     19      6      4      5      6     18
 overlap   1.060  0.311  0.296  0.275  0.275  0.341  0.085  0.085  0.085  0.000


   alpha     11     12     13     14     15     16     17     18     19     20
    beta     19      6     18     19     15     16     17     18     19     20
 overlap   0.016  0.023  0.016  0.000  1.060  0.311  0.296  0.275  0.275  0.341


   alpha     21     22     23     24     25     26     27     28
    beta     18     19     20     18     19     20     18     19
 overlap   0.085  0.085  0.085  0.000  0.016  0.023  0.016  0.000

     --------------------------
     Expectation value of S2:  
     --------------------------
      <S2> =      2.0083 (Exact =     2.0000)
 
 
     Multipole analysis of the density
     ---------------------------------
 
     L   x y z        total         alpha         beta         nuclear
     -   - - -        -----         -----         ----         -------
     0   0 0 0      0.000000     -8.999996     -7.000004     16.000000
 
     1   1 0 0      0.000000      0.000000      0.000000      0.000000
     1   0 1 0      0.000001      0.000000      0.000000      0.000000
     1   0 0 1      0.000058      0.000008      0.000050      0.000000
 
     2   2 0 0     -7.455397     -4.310406     -3.144991      0.000000
     2   1 1 0      0.000000      0.000000      0.000000      0.000000
     2   1 0 1     -0.000002      0.000000     -0.000001      0.000000
     2   0 2 0     -7.455397     -4.310406     -3.144991      0.000000
     2   0 1 1      0.000000      0.000000      0.000000      0.000000
     2   0 0 2     -7.824455    -16.110941    -12.282845     20.569330
 

 Parallel integral file used       4 records with       0 large values

  WARNING: CD fitting not compatible with spinorbit
  WARNING: disabling CD fitting
 
 
                            NWChem DFT Gradient Module
                            --------------------------
 
 

  charge          =   0.00
  wavefunction    = open shell


 Read molecular orbitals from ./o2_zora_so.movecs

  Using symmetry

 Read molecular orbitals from ./o2_zora_so.movecs


 Read molecular orbitals from ./o2_zora_so.movecs



                         sodft ENERGY GRADIENTS

    atom               coordinates                        gradient
                 x          y          z           x          y          z
   1 O       0.000000   0.000000  -1.133836    0.000000   0.000000   0.035908
   2 O       0.000000   0.000000   1.133836    0.000000   0.000000  -0.035908
 
                 ----------------------------------------
                 |  Time  |  1-e(secs)   |  2-e(secs)   |
                 ----------------------------------------
                 |  CPU   |       0.00   |       0.04   |
                 ----------------------------------------
                 |  WALL  |       0.00   |       0.05   |
                 ----------------------------------------

@ Step       Energy      Delta E   Gmax     Grms     Xrms     Xmax   Walltime
@ ---- ---------------- -------- -------- -------- -------- -------- --------
@    0    -150.50760869  0.0D+00  0.03591  0.02073  0.00000  0.00000     20.9
                                                       ok       ok  

 
                                 NWChem DFT Module
                                 -----------------
 
 
  WARNING: CD fitting not compatible with spinorbit
  WARNING: disabling CD fitting
                                  Spin-Orbit DFT
                                  --------------
 
 
  Caching 1-el integrals 
 
            General Information
            -------------------
          SCF calculation type: DFT
          Wavefunction type:  spin polarized.
          No. of atoms     :     2
          No. of electrons :    16
           Alpha electrons :     9
            Beta electrons :     7
          Charge           :     0
          Spin multiplicity:     3
          Use of symmetry is: off; symmetry adaption is: off
          Maximum number of iterations: 100
          AO basis - number of functions:    28
                     number of shells:    12
          Convergence on energy requested: 1.00D-06
          Convergence on density requested: 1.00D-05
          Convergence on gradient requested: 5.00D-04
 
              XC Information
              --------------
                         B3LYP Method XC Potential
                     Hartree-Fock (Exact) Exchange  0.200          
                        Slater Exchange Functional  0.800 local    
                    Becke 1988 Exchange Functional  0.720 non-local
              Lee-Yang-Parr Correlation Functional  0.810          
                  VWN I RPA Correlation Functional  0.190 local    
 
             Grid Information
             ----------------
          Grid used for XC integration:  xfine     
          Radial quadrature: Mura-Knowles        
          Angular quadrature: Lebedev. 
          Tag              B.-S. Rad. Rad. Pts. Rad. Cut. Ang. Pts.
          ---              ---------- --------- --------- ---------
          O                   0.60      100           6.0      1454
          Grid pruning is: on 
          Number of quadrature shells:   200
          Spatial weights used:  Erf1
 
          Convergence Information
          -----------------------
          Convergence aids based upon iterative change in 
          total energy or number of iterations. 
          Levelshifting, if invoked, occurs when the 
          HOMO/LUMO gap drops below (HL_TOL): 1.00D-02
          DIIS, if invoked, will attempt to extrapolate 
          using up to (NFOCK): 10 stored Fock matrices.

                    Damping( 0%)  Levelshifting(0.5)       DIIS
                  --------------- ------------------- ---------------
          dE  on:    start            ASAP                start   
          dE off:    2 iters        100 iters           100 iters 

 
      Screening Tolerance Information
      -------------------------------
          Density screening/tol_rho: 1.00D-10
          AO Gaussian exp screening on grid/accAOfunc:  14
          CD Gaussian exp screening on grid/accCDfunc:  20
          XC Gaussian exp screening on grid/accXCfunc:  20
          Schwarz screening/accCoul: 1.00D-10

 
 ===============================
  Performing SODFT calculations 
 ===============================
 
 
 Performing ZORA calculations
 

 Read molecular orbitals from ./o2_zora_so.movecs


 Read atomic ZORA corrections from ./o2_zora_so.zora_so

   Time prior to 1st pass:     19.4

 #quartets = 3.080D+03 #integrals = 2.178D+04 #direct =  0.0% #cached =100.0%


 Integral file          = ./o2_zora_so.aoints.0
 Record size in doubles =  65536        No. of integs per rec  =  43688
 Max. records in memory =      2        Max. records in file   =  17186
 No. of bits per label  =      8        No. of bits per value  =     64


File balance: exchanges=     0  moved=     0  time=   0.0


 Grid_pts file          = ./o2_zora_so.gridpts.0
 Record size in doubles =  12289        No. of grid_pts per rec  =   3070
 Max. records in memory =     28        Max. recs in file   =     91659

 WARNING: error on integrated density =  0.21D-02
 greater than required accuracy of  0.10D-07

           Memory utilization after 1st SCF pass: 
           Heap Space remaining (MW):       12.63            12630280
          Stack Space remaining (MW):       13.10            13099972

   convergence    iter        energy       DeltaE   RMS-Dens  Diis-err    time
 ---------------- ----- ----------------- --------- --------- ---------  ------
 d= 0,ls=0.0,diis     1   -150.4368428683 -1.77D+02  3.66D-03  1.28D-01    20.0
                                                     2.48D-03  1.28D-01
 d= 0,ls=0.0,diis     2   -150.5037185509 -6.69D-02  1.22D-03  5.09D-03    20.4
                                                     9.86D-04  5.09D-03
 d= 0,ls=0.0,diis     3   -150.5044390512 -7.21D-04  6.13D-04  1.19D-03    20.8
                                                     4.30D-04  1.19D-03
 d= 0,ls=0.0,diis     4   -150.5046816676 -2.43D-04  1.26D-04  3.96D-05    21.3
                                                     9.44D-05  3.96D-05
 d= 0,ls=0.0,diis     5   -150.5046903448 -8.68D-06  1.72D-05  2.16D-06    21.7
                                                     2.83D-05  2.16D-06
 d= 0,ls=0.0,diis     6   -150.5046905842 -2.39D-07  7.28D-06  8.74D-07    22.1
                                                     1.11D-05  8.74D-07


         Total DFT energy =   -150.504690743658
      One electron energy =   -259.085091893866
           Coulomb energy =     98.973644702898
    Exchange-Corr. energy =    -16.934908987565
 Nuclear repulsion energy =     26.541665434875

       Scaling correction =      0.059682997149

 Numeric. integr. density =     16.000000011507

     Total iterative time =      3.1s


 
                       DFT Final Molecular Orbital Analysis
                       ------------------------------------
 
 Vector    5  Occ=1.000000D+00  E=-1.269217D+00
              MO Center=  1.9D-08, -4.5D-08, -5.4D-08, r^2= 3.0D-01
  Bfn.     Coefficient        Function     Bfn.     Coefficient        Function
  ---- -------------------  ------------     ---- -------------------  ------------
    16   0.284774 0.243762  2 O  s                  2   0.284773 0.243762  1 O  s          
     3  -0.188279-0.161164  1 O  s                 17  -0.188277-0.161163  2 O  s          
    20   0.133569 0.114333  2 O  pz                 6  -0.133569-0.114333  1 O  pz         
     1  -0.127170-0.108856  1 O  s                 15  -0.127170-0.108855  2 O  s          
 
 Vector    6  Occ=1.000000D+00  E=-1.208843D+00
              MO Center=  1.8D-12,  5.4D-12,  2.9D-09, r^2= 3.3D-08
  Bfn.     Coefficient        Function     Bfn.     Coefficient        Function
  ---- -------------------  ------------     ---- -------------------  ------------
    44   0.006774 0.352091  2 O  s                 30   0.006774 0.352090  1 O  s          
    31  -0.004888-0.254048  1 O  s                 45  -0.004888-0.254046  2 O  s          
    48   0.003649 0.189650  2 O  pz                34  -0.003649-0.189650  1 O  pz         
    29  -0.003138-0.163081  1 O  s                 43  -0.003138-0.163081  2 O  s          
 
 Vector    7  Occ=1.000000D+00  E=-8.667813D-01
              MO Center=  5.3D-09, -2.8D-08, -4.2D-07, r^2= 8.3D-01
  Bfn.     Coefficient        Function     Bfn.     Coefficient        Function
  ---- -------------------  ------------     ---- -------------------  ------------
     2  -0.373685-0.200419  1 O  s                 16   0.373685 0.200419  2 O  s          
    17  -0.357163-0.191558  2 O  s                  3   0.357163 0.191558  1 O  s          
     1   0.159891 0.085755  1 O  s                 15  -0.159891-0.085755  2 O  s          
 
 Vector    8  Occ=1.000000D+00  E=-7.777824D-01
              MO Center= -1.3D-12, -3.3D-11,  8.6D-09, r^2= 1.4D-07
  Bfn.     Coefficient        Function     Bfn.     Coefficient        Function
  ---- -------------------  ------------     ---- -------------------  ------------
    45   0.036965 0.410017  2 O  s                 31  -0.036965-0.410017  1 O  s          
    30   0.036329 0.402969  1 O  s                 44  -0.036329-0.402969  2 O  s          
    29  -0.015925-0.176644  1 O  s                 43   0.015925 0.176643  2 O  s          
 
 Vector    9  Occ=1.000000D+00  E=-5.523035D-01
              MO Center= -1.8D-08,  1.2D-06, -1.2D-05, r^2= 4.4D-01
  Bfn.     Coefficient        Function     Bfn.     Coefficient        Function
  ---- -------------------  ------------     ---- -------------------  ------------
     5  -0.384410-0.005948  1 O  py                 4   0.005953-0.384409  1 O  px         
    19  -0.384395-0.005948  2 O  py                18   0.005952-0.384394  2 O  px         
 
 Vector   10  Occ=1.000000D+00  E=-5.514879D-01
              MO Center=  2.3D-06, -1.2D-08,  1.2D-05, r^2= 4.4D-01
  Bfn.     Coefficient        Function     Bfn.     Coefficient        Function
  ---- -------------------  ------------     ---- -------------------  ------------
    18   0.384118 0.000002  2 O  px                19   0.000002 0.384118  2 O  py         
     4   0.384104 0.000002  1 O  px                 5   0.000002 0.384103  1 O  py         
 
 Vector   11  Occ=1.000000D+00  E=-5.475556D-01
              MO Center= -5.4D-07,  4.9D-07,  8.9D-08, r^2= 9.4D-02
  Bfn.     Coefficient        Function     Bfn.     Coefficient        Function
  ---- -------------------  ------------     ---- -------------------  ------------
    20   0.152392 0.511900  2 O  pz                 6  -0.152392-0.511900  1 O  pz         
     3   0.069063 0.231990  1 O  s                 17   0.069063 0.231988  2 O  s          
    23   0.044705 0.150167  2 O  pz                 9  -0.044704-0.150165  1 O  pz         
 
 Vector   12  Occ=1.000000D+00  E=-5.093153D-01
              MO Center=  2.4D-11, -2.8D-11, -1.4D-07, r^2= 6.1D-06
  Bfn.     Coefficient        Function     Bfn.     Coefficient        Function
  ---- -------------------  ------------     ---- -------------------  ------------
    34  -0.036451 0.522398  1 O  pz                48   0.036451-0.522397  2 O  pz         
    45   0.018135-0.259899  2 O  s                 31   0.018135-0.259897  1 O  s          
    37  -0.011562 0.165703  1 O  pz                51   0.011562-0.165703  2 O  pz         
 
 Vector   13  Occ=1.000000D+00  E=-4.485244D-01
              MO Center=  1.2D-11,  4.4D-11,  1.4D-08, r^2= 2.7D-07
  Bfn.     Coefficient        Function     Bfn.     Coefficient        Function
  ---- -------------------  ------------     ---- -------------------  ------------
    33  -0.321187-0.159638  1 O  py                32  -0.159635 0.321186  1 O  px         
    47  -0.321168-0.159628  2 O  py                46  -0.159625 0.321167  2 O  px         
    36  -0.134472-0.066836  1 O  py                35  -0.066835 0.134472  1 O  px         
    50  -0.134458-0.066829  2 O  py                49  -0.066828 0.134458  2 O  px         
 
 Vector   14  Occ=1.000000D+00  E=-4.478194D-01
              MO Center=  2.7D-13,  2.7D-13,  1.0D-12, r^2= 3.2D-12
  Bfn.     Coefficient        Function     Bfn.     Coefficient        Function
  ---- -------------------  ------------     ---- -------------------  ------------
    46   0.029152-0.357119  2 O  px                47  -0.357117-0.029155  2 O  py         
    32   0.029151-0.357098  1 O  px                33  -0.357096-0.029153  1 O  py         
    49   0.012247-0.150032  2 O  px                50  -0.150031-0.012248  2 O  py         
    35   0.012246-0.150017  1 O  px                36  -0.150016-0.012247  1 O  py         
 
 Vector   15  Occ=1.000000D+00  E=-3.379544D-01
              MO Center=  4.8D-10,  2.4D-09,  1.3D-05, r^2= 5.0D-01
  Bfn.     Coefficient        Function     Bfn.     Coefficient        Function
  ---- -------------------  ------------     ---- -------------------  ------------
    18   0.007012-0.438117  2 O  px                19  -0.438116-0.007014  2 O  py         
     4  -0.007012 0.438099  1 O  px                 5   0.438098 0.007014  1 O  py         
    21   0.003312-0.206906  2 O  px                22  -0.206905-0.003312  2 O  py         
     7  -0.003312 0.206904  1 O  px                 8   0.206903 0.003312  1 O  py         
 
 Vector   16  Occ=1.000000D+00  E=-3.368703D-01
              MO Center= -2.6D-08, -2.6D-09, -1.2D-05, r^2= 5.0D-01
  Bfn.     Coefficient        Function     Bfn.     Coefficient        Function
  ---- -------------------  ------------     ---- -------------------  ------------
     5   0.000001-0.437835  1 O  py                 4  -0.437834 0.000001  1 O  px         
    19  -0.000001 0.437817  2 O  py                18   0.437816-0.000001  2 O  px         
     8   0.000000-0.207658  1 O  py                 7  -0.207658 0.000000  1 O  px         
    22   0.000000 0.207657  2 O  py                21   0.207657 0.000000  2 O  px         
 
 Vector   17  Occ=0.000000D+00  E=-1.457504D-01
              MO Center=  1.7D-11, -2.0D-11, -1.1D-07, r^2= 1.7D-06
  Bfn.     Coefficient        Function     Bfn.     Coefficient        Function
  ---- -------------------  ------------     ---- -------------------  ------------
    46   0.175397-0.370506  2 O  px                47   0.370509 0.175389  2 O  py         
    32  -0.175388 0.370487  1 O  px                33  -0.370490-0.175380  1 O  py         
    49   0.113440-0.239628  2 O  px                50   0.239630 0.113435  2 O  py         
    35  -0.113437 0.239623  1 O  px                36  -0.239625-0.113432  1 O  py         
 
 Vector   18  Occ=0.000000D+00  E=-1.448117D-01
              MO Center= -1.6D-13, -1.5D-13, -4.0D-13, r^2= 1.5D-12
  Bfn.     Coefficient        Function     Bfn.     Coefficient        Function
  ---- -------------------  ------------     ---- -------------------  ------------
    33  -0.107080-0.395266  1 O  py                32   0.395268-0.107072  1 O  px         
    47   0.107075 0.395245  2 O  py                46  -0.395247 0.107066  2 O  px         
    36  -0.069534-0.256672  1 O  py                35   0.256673-0.069529  1 O  px         
    50   0.069533 0.256666  2 O  py                49  -0.256667 0.069527  2 O  px         
 
 Vector   19  Occ=0.000000D+00  E= 9.357584D-02
              MO Center=  3.2D-08,  1.5D-07, -7.2D-07, r^2= 7.9D-01
  Bfn.     Coefficient        Function     Bfn.     Coefficient        Function
  ---- -------------------  ------------     ---- -------------------  ------------
    17  -0.562390-0.561669  2 O  s                  3   0.562388 0.561667  1 O  s          
    23   0.533655 0.532971  2 O  pz                 9   0.533655 0.532971  1 O  pz         
     6   0.407227 0.406705  1 O  pz                20   0.407226 0.406704  2 O  pz         
     2  -0.155975-0.155775  1 O  s                 16   0.155972 0.155772  2 O  s          
 
 Vector   20  Occ=0.000000D+00  E= 1.328842D-01
              MO Center=  4.2D-11, -3.3D-10, -1.7D-07, r^2= 4.0D-06
  Bfn.     Coefficient        Function     Bfn.     Coefficient        Function
  ---- -------------------  ------------     ---- -------------------  ------------
    45   0.018471 0.894587  2 O  s                 31  -0.018471-0.894584  1 O  s          
    51  -0.017098-0.828095  2 O  pz                37  -0.017098-0.828094  1 O  pz         
    34  -0.011240-0.544393  1 O  pz                48  -0.011240-0.544392  2 O  pz         
    30   0.004528 0.219291  1 O  s                 44  -0.004528-0.219287  2 O  s          
 
 Vector   21  Occ=0.000000D+00  E= 4.257831D-01
              MO Center=  4.8D-07,  1.9D-06, -2.1D-06, r^2= 1.9D+00
  Bfn.     Coefficient        Function     Bfn.     Coefficient        Function
  ---- -------------------  ------------     ---- -------------------  ------------
    23   1.006010 0.836442  2 O  pz                 9   1.006010 0.836442  1 O  pz         
    17  -0.886924-0.737428  2 O  s                  3   0.886919 0.737424  1 O  s          
    20  -0.435357-0.361975  2 O  pz                 6  -0.435357-0.361975  1 O  pz         
 
 Vector   22  Occ=0.000000D+00  E= 4.424061D-01
              MO Center= -5.6D-09, -3.4D-10,  5.6D-07, r^2= 1.6D-04
  Bfn.     Coefficient        Function     Bfn.     Coefficient        Function
  ---- -------------------  ------------     ---- -------------------  ------------
    51  -1.268627-0.169232  2 O  pz                37  -1.268624-0.169232  1 O  pz         
    45   1.127689 0.150431  2 O  s                 31  -1.127684-0.150431  1 O  s          
    48   0.585512 0.078106  2 O  pz                34   0.585511 0.078106  1 O  pz         
 
 Vector   23  Occ=0.000000D+00  E= 4.860888D-01
              MO Center=  1.2D-08,  2.1D-07,  3.2D-05, r^2= 1.1D+00
  Bfn.     Coefficient        Function     Bfn.     Coefficient        Function
  ---- -------------------  ------------     ---- -------------------  ------------
    22   0.449599-0.021033  2 O  py                21   0.021057 0.449596  2 O  px         
     8   0.449530-0.021029  1 O  py                 7   0.021054 0.449527  1 O  px         
    19  -0.405888 0.018988  2 O  py                18  -0.019010-0.405885  2 O  px         
     5  -0.405861 0.018986  1 O  py                 4  -0.019009-0.405858  1 O  px         
 
 Vector   24  Occ=0.000000D+00  E= 4.868361D-01
              MO Center= -3.5D-08, -6.4D-09, -3.0D-05, r^2= 1.1D+00
  Bfn.     Coefficient        Function     Bfn.     Coefficient        Function
  ---- -------------------  ------------     ---- -------------------  ------------
     7   0.450024-0.000012  1 O  px                 8  -0.000012 0.450022  1 O  py         
    21   0.449959-0.000012  2 O  px                22  -0.000013 0.449957  2 O  py         
     4  -0.406648 0.000011  1 O  px                 5   0.000011-0.406647  1 O  py         
    18  -0.406624 0.000011  2 O  px                19   0.000011-0.406622  2 O  py         
 
 Vector   25  Occ=0.000000D+00  E= 5.302648D-01
              MO Center=  1.8D-09,  3.0D-10,  1.2D-06, r^2= 2.8D-05
  Bfn.     Coefficient        Function     Bfn.     Coefficient        Function
  ---- -------------------  ------------     ---- -------------------  ------------
    50  -0.348090-0.272762  2 O  py                49  -0.272776 0.348075  2 O  px         
    36  -0.348042-0.272724  1 O  py                35  -0.272738 0.348027  1 O  px         
    47   0.335981 0.263274  2 O  py                46   0.263287-0.335967  2 O  px         
    33   0.335959 0.263256  1 O  py                32   0.263270-0.335945  1 O  px         
 
 Vector   26  Occ=0.000000D+00  E= 5.310872D-01
              MO Center=  1.0D-12,  1.7D-13, -3.7D-12, r^2= 1.7D-11
  Bfn.     Coefficient        Function     Bfn.     Coefficient        Function
  ---- -------------------  ------------     ---- -------------------  ------------
    35   0.391810 0.204810  1 O  px                36   0.204791-0.391816  1 O  py         
    49   0.391758 0.204784  2 O  px                50   0.204764-0.391765  2 O  py         
    32  -0.378525-0.197866  1 O  px                33  -0.197848 0.378532  1 O  py         
    46  -0.378502-0.197854  2 O  px                47  -0.197836 0.378509  2 O  py         
 

   alpha - beta orbital overlaps 
   ----------------------------- 


   alpha      1      2      3      4      5      6      7      8      9     10
    beta      1      2      3     18     19      6     18     19      6     18
 overlap   1.061  0.318  0.293  0.275  0.275  0.330  0.089  0.089  0.089  0.000


   alpha     11     12     13     14     15     16     17     18     19     20
    beta     19      6     18     19     15     16     17     18     19     20
 overlap   0.014  0.021  0.014  0.000  1.061  0.318  0.293  0.275  0.275  0.330


   alpha     21     22     23     24     25     26     27     28
    beta     18     19     20     18     19     20     18     19
 overlap   0.089  0.089  0.089  0.000  0.014  0.021  0.014  0.000

     --------------------------
     Expectation value of S2:  
     --------------------------
      <S2> =      2.0092 (Exact =     2.0000)
 
 
     Multipole analysis of the density
     ---------------------------------
 
     L   x y z        total         alpha         beta         nuclear
     -   - - -        -----         -----         ----         -------
     0   0 0 0      0.000000     -8.999996     -7.000004     16.000000
 
     1   1 0 0      0.000000      0.000000      0.000000      0.000000
     1   0 1 0      0.000001      0.000000      0.000000      0.000000
     1   0 0 1     -0.000001     -0.000001      0.000000      0.000000
 
     2   2 0 0     -7.567249     -4.350085     -3.217165      0.000000
     2   1 1 0      0.000000      0.000000      0.000000      0.000000
     2   1 0 1     -0.000002     -0.000001     -0.000001      0.000000
     2   0 2 0     -7.567249     -4.350085     -3.217165      0.000000
     2   0 1 1      0.000000      0.000000      0.000000      0.000000
     2   0 0 2     -7.718652    -17.529944    -13.446239     23.257530
 

 Parallel integral file used       4 records with       0 large values

 Line search: 
     step= 1.00 grad=-5.2D-03 hess= 8.1D-03 energy=   -150.504691 mode=bracket 
 new step= 0.32                   predicted energy=   -150.508432

          --------
          Step   1
          --------
 
 
                         Geometry "geometry" -> "geometry"
                         ---------------------------------
 
 Output coordinates in angstroms (scale by  1.889725989 to convert to a.u.)
 
  No.       Tag          Charge          X              Y              Z
 ---- ---------------- ---------- -------------- -------------- --------------
    1 O                    8.0000     0.00000000     0.00000000    -0.61213573
    2 O                    8.0000     0.00000000     0.00000000     0.61213573
 
      Atomic Mass 
      ----------- 
 
      O                 15.994910
 

 Effective nuclear repulsion energy (a.u.)      27.6632635235

            Nuclear Dipole moment (a.u.) 
            ----------------------------
        X                 Y               Z
 ---------------- ---------------- ----------------
     0.0000000000     0.0000000000     0.0000000000
 
      Symmetry information
      --------------------
 
 Group name             D4h       
 Group number             28
 Group order              16
 No. of unique centers     1
 
      Symmetry unique atoms
 
     1
 
 
                                 NWChem DFT Module
                                 -----------------
 
 
  WARNING: CD fitting not compatible with spinorbit
  WARNING: disabling CD fitting
                                  Spin-Orbit DFT
                                  --------------
 
 
  Caching 1-el integrals 
 
            General Information
            -------------------
          SCF calculation type: DFT
          Wavefunction type:  spin polarized.
          No. of atoms     :     2
          No. of electrons :    16
           Alpha electrons :     9
            Beta electrons :     7
          Charge           :     0
          Spin multiplicity:     3
          Use of symmetry is: off; symmetry adaption is: off
          Maximum number of iterations: 100
          AO basis - number of functions:    28
                     number of shells:    12
          Convergence on energy requested: 1.00D-06
          Convergence on density requested: 1.00D-05
          Convergence on gradient requested: 5.00D-04
 
              XC Information
              --------------
                         B3LYP Method XC Potential
                     Hartree-Fock (Exact) Exchange  0.200          
                        Slater Exchange Functional  0.800 local    
                    Becke 1988 Exchange Functional  0.720 non-local
              Lee-Yang-Parr Correlation Functional  0.810          
                  VWN I RPA Correlation Functional  0.190 local    
 
             Grid Information
             ----------------
          Grid used for XC integration:  xfine     
          Radial quadrature: Mura-Knowles        
          Angular quadrature: Lebedev. 
          Tag              B.-S. Rad. Rad. Pts. Rad. Cut. Ang. Pts.
          ---              ---------- --------- --------- ---------
          O                   0.60      100           6.0      1454
          Grid pruning is: on 
          Number of quadrature shells:   200
          Spatial weights used:  Erf1
 
          Convergence Information
          -----------------------
          Convergence aids based upon iterative change in 
          total energy or number of iterations. 
          Levelshifting, if invoked, occurs when the 
          HOMO/LUMO gap drops below (HL_TOL): 1.00D-02
          DIIS, if invoked, will attempt to extrapolate 
          using up to (NFOCK): 10 stored Fock matrices.

                    Damping( 0%)  Levelshifting(0.5)       DIIS
                  --------------- ------------------- ---------------
          dE  on:    start            ASAP                start   
          dE off:    2 iters        100 iters           100 iters 

 
      Screening Tolerance Information
      -------------------------------
          Density screening/tol_rho: 1.00D-10
          AO Gaussian exp screening on grid/accAOfunc:  14
          CD Gaussian exp screening on grid/accCDfunc:  20
          XC Gaussian exp screening on grid/accXCfunc:  20
          Schwarz screening/accCoul: 1.00D-10

 
 ===============================
  Performing SODFT calculations 
 ===============================
 
 
 Performing ZORA calculations
 

 Read molecular orbitals from ./o2_zora_so.movecs


 Read atomic ZORA corrections from ./o2_zora_so.zora_so

   Time prior to 1st pass:     22.6

 #quartets = 3.080D+03 #integrals = 2.183D+04 #direct =  0.0% #cached =100.0%


 Integral file          = ./o2_zora_so.aoints.0
 Record size in doubles =  65536        No. of integs per rec  =  43688
 Max. records in memory =      2        Max. records in file   =  17184
 No. of bits per label  =      8        No. of bits per value  =     64


File balance: exchanges=     0  moved=     0  time=   0.0


 Grid_pts file          = ./o2_zora_so.gridpts.0
 Record size in doubles =  12289        No. of grid_pts per rec  =   3070
 Max. records in memory =     28        Max. recs in file   =     91649

 WARNING: error on integrated density =  0.14D-02
 greater than required accuracy of  0.10D-07

           Memory utilization after 1st SCF pass: 
           Heap Space remaining (MW):       12.63            12630280
          Stack Space remaining (MW):       13.10            13099972

   convergence    iter        energy       DeltaE   RMS-Dens  Diis-err    time
 ---------------- ----- ----------------- --------- --------- ---------  ------
 d= 0,ls=0.0,diis     1   -150.5566456475 -1.78D+02  2.40D-03  6.00D-02    23.1
                                                     1.63D-03  6.00D-02
 d= 0,ls=0.0,diis     2   -150.5079201497  4.87D-02  8.11D-04  2.17D-03    23.5
                                                     6.22D-04  2.17D-03
 d= 0,ls=0.0,diis     3   -150.5082198411 -3.00D-04  4.19D-04  5.14D-04    23.9
                                                     2.81D-04  5.14D-04
 d= 0,ls=0.0,diis     4   -150.5083248702 -1.05D-04  8.64D-05  1.72D-05    24.4
                                                     5.99D-05  1.72D-05
 d= 0,ls=0.0,diis     5   -150.5083288105 -3.94D-06  2.94D-06  3.23D-08    24.8
                                                     1.78D-06  3.23D-08
 d= 0,ls=0.0,diis     6   -150.5083288140 -3.52D-09  1.52D-07  1.76D-08    25.2
                                                     2.22D-07  1.76D-08


         Total DFT energy =   -150.508328814008
      One electron energy =   -261.247993229941
           Coulomb energy =    100.056497495769
    Exchange-Corr. energy =    -16.980096603360
 Nuclear repulsion energy =     27.663263523523

       Scaling correction =      0.059669942218

 Numeric. integr. density =     15.999999970416

     Total iterative time =      3.1s


 
                       DFT Final Molecular Orbital Analysis
                       ------------------------------------
 
 Vector    5  Occ=1.000000D+00  E=-1.306413D+00
              MO Center=  2.0D-08, -4.5D-08, -9.6D-07, r^2= 2.7D-01
  Bfn.     Coefficient        Function     Bfn.     Coefficient        Function
  ---- -------------------  ------------     ---- -------------------  ------------
     2  -0.280466-0.244677  1 O  s                 16  -0.280465-0.244677  2 O  s          
     3   0.176747 0.154194  1 O  s                 17   0.176745 0.154192  2 O  s          
     6   0.143635 0.125307  1 O  pz                20  -0.143635-0.125307  2 O  pz         
     1   0.125974 0.109899  1 O  s                 15   0.125973 0.109899  2 O  s          
 
 Vector    6  Occ=1.000000D+00  E=-1.248193D+00
              MO Center=  1.8D-12,  4.4D-12,  2.7D-09, r^2= 3.1D-08
  Bfn.     Coefficient        Function     Bfn.     Coefficient        Function
  ---- -------------------  ------------     ---- -------------------  ------------
    30  -0.006359-0.349713  1 O  s                 44  -0.006359-0.349712  2 O  s          
    31   0.004363 0.239918  1 O  s                 45   0.004363 0.239915  2 O  s          
    34   0.003718 0.204464  1 O  pz                48  -0.003718-0.204464  2 O  pz         
    29   0.002964 0.162985  1 O  s                 43   0.002964 0.162985  2 O  s          
 
 Vector    7  Occ=1.000000D+00  E=-8.504030D-01
              MO Center=  5.8D-09, -3.3D-08, -2.1D-06, r^2= 8.3D-01
  Bfn.     Coefficient        Function     Bfn.     Coefficient        Function
  ---- -------------------  ------------     ---- -------------------  ------------
     2   0.373307 0.191525  1 O  s                 16  -0.373306-0.191525  2 O  s          
     3  -0.363020-0.186248  1 O  s                 17   0.363020 0.186248  2 O  s          
    15   0.159975 0.082076  2 O  s                  1  -0.159975-0.082075  1 O  s          
 
 Vector    8  Occ=1.000000D+00  E=-7.618433D-01
              MO Center= -1.5D-12, -3.8D-11,  1.0D-08, r^2= 2.2D-07
  Bfn.     Coefficient        Function     Bfn.     Coefficient        Function
  ---- -------------------  ------------     ---- -------------------  ------------
    31  -0.036928-0.409844  1 O  s                 45   0.036928 0.409844  2 O  s          
    30   0.035933 0.398800  1 O  s                 44  -0.035933-0.398799  2 O  s          
    29  -0.015750-0.174800  1 O  s                 43   0.015750 0.174800  2 O  s          
    34   0.013570 0.150599  1 O  pz                48   0.013569 0.150595  2 O  pz         
 
 Vector    9  Occ=1.000000D+00  E=-5.672379D-01
              MO Center= -5.7D-09,  4.3D-07, -1.4D-05, r^2= 4.2D-01
  Bfn.     Coefficient        Function     Bfn.     Coefficient        Function
  ---- -------------------  ------------     ---- -------------------  ------------
     4   0.006026-0.383807  1 O  px                 5  -0.383807-0.006022  1 O  py         
    18   0.006026-0.383789  2 O  px                19  -0.383789-0.006022  2 O  py         
 
 Vector   10  Occ=1.000000D+00  E=-5.664280D-01
              MO Center=  8.6D-07, -1.2D-08,  8.1D-06, r^2= 4.2D-01
  Bfn.     Coefficient        Function     Bfn.     Coefficient        Function
  ---- -------------------  ------------     ---- -------------------  ------------
    19  -0.000002-0.383523  2 O  py                18  -0.383523-0.000002  2 O  px         
     5  -0.000002-0.383513  1 O  py                 4  -0.383513-0.000002  1 O  px         
 
 Vector   11  Occ=1.000000D+00  E=-5.540884D-01
              MO Center= -1.8D-07,  1.9D-07,  2.4D-07, r^2= 7.3D-02
  Bfn.     Coefficient        Function     Bfn.     Coefficient        Function
  ---- -------------------  ------------     ---- -------------------  ------------
     6  -0.136010-0.513765  1 O  pz                20   0.136010 0.513764  2 O  pz         
    17   0.065736 0.248310  2 O  s                  3   0.065735 0.248309  1 O  s          
    23   0.038702 0.146194  2 O  pz                 9  -0.038702-0.146192  1 O  pz         
 
 Vector   12  Occ=1.000000D+00  E=-5.141684D-01
              MO Center=  2.0D-11, -2.4D-11, -9.2D-08, r^2= 4.6D-06
  Bfn.     Coefficient        Function     Bfn.     Coefficient        Function
  ---- -------------------  ------------     ---- -------------------  ------------
    34  -0.033859 0.519901  1 O  pz                48   0.033859-0.519901  2 O  pz         
    45   0.017905-0.274931  2 O  s                 31   0.017905-0.274926  1 O  s          
    37  -0.010431 0.160170  1 O  pz                51   0.010431-0.160170  2 O  pz         
 
 Vector   13  Occ=1.000000D+00  E=-4.647086D-01
              MO Center=  9.0D-12,  4.0D-11,  1.0D-08, r^2= 2.0D-07
  Bfn.     Coefficient        Function     Bfn.     Coefficient        Function
  ---- -------------------  ------------     ---- -------------------  ------------
    32  -0.167916 0.317525  1 O  px                33  -0.317523-0.167917  1 O  py         
    46  -0.167906 0.317507  2 O  px                47  -0.317505-0.167907  2 O  py         
 
 Vector   14  Occ=1.000000D+00  E=-4.640058D-01
              MO Center=  2.3D-13,  2.3D-13,  1.0D-12, r^2= 3.2D-12
  Bfn.     Coefficient        Function     Bfn.     Coefficient        Function
  ---- -------------------  ------------     ---- -------------------  ------------
    47  -0.357215-0.034071  2 O  py                46   0.034069-0.357214  2 O  px         
    33  -0.357198-0.034069  1 O  py                32   0.034067-0.357198  1 O  px         
 
 Vector   15  Occ=1.000000D+00  E=-3.223711D-01
              MO Center=  8.4D-10, -3.0D-09,  1.4D-05, r^2= 4.8D-01
  Bfn.     Coefficient        Function     Bfn.     Coefficient        Function
  ---- -------------------  ------------     ---- -------------------  ------------
    18   0.007179-0.440300  2 O  px                19  -0.440299-0.007181  2 O  py         
     4  -0.007179 0.440280  1 O  px                 5   0.440279 0.007180  1 O  py         
    21   0.003534-0.216756  2 O  px                22  -0.216756-0.003535  2 O  py         
     7  -0.003534 0.216754  1 O  px                 8   0.216754 0.003535  1 O  py         
 
 Vector   16  Occ=1.000000D+00  E=-3.212745D-01
              MO Center= -3.1D-08, -2.5D-09, -8.4D-06, r^2= 4.8D-01
  Bfn.     Coefficient        Function     Bfn.     Coefficient        Function
  ---- -------------------  ------------     ---- -------------------  ------------
     5  -0.000001 0.440007  1 O  py                 4   0.440006-0.000001  1 O  px         
    19   0.000001-0.439993  2 O  py                18  -0.439991 0.000001  2 O  px         
    22   0.000000-0.217539  2 O  py                21  -0.217539 0.000000  2 O  px         
     8   0.000000 0.217538  1 O  py                 7   0.217537 0.000000  1 O  px         
 
 Vector   17  Occ=0.000000D+00  E=-1.293595D-01
              MO Center=  1.8D-11, -2.1D-11, -1.0D-07, r^2= 1.5D-06
  Bfn.     Coefficient        Function     Bfn.     Coefficient        Function
  ---- -------------------  ------------     ---- -------------------  ------------
    46  -0.179785 0.369901  2 O  px                47  -0.369903-0.179776  2 O  py         
    32   0.179776-0.369883  1 O  px                33   0.369885 0.179767  1 O  py         
    49  -0.121540 0.250064  2 O  px                50  -0.250066-0.121534  2 O  py         
    35   0.121538-0.250059  1 O  px                36   0.250061 0.121531  1 O  py         
 
 Vector   18  Occ=0.000000D+00  E=-1.284136D-01
              MO Center= -1.8D-13, -1.6D-13, -3.1D-13, r^2= 1.5D-12
  Bfn.     Coefficient        Function     Bfn.     Coefficient        Function
  ---- -------------------  ------------     ---- -------------------  ------------
    33  -0.098257-0.398930  1 O  py                32   0.398930-0.098248  1 O  px         
    47   0.098253 0.398912  2 O  py                46  -0.398912 0.098243  2 O  px         
    36  -0.066692-0.270776  1 O  py                35   0.270776-0.066686  1 O  px         
    50   0.066692 0.270773  2 O  py                49  -0.270773 0.066685  2 O  px         
 
 Vector   19  Occ=0.000000D+00  E= 1.474686D-01
              MO Center=  6.0D-08,  2.4D-07, -3.9D-07, r^2= 9.7D-01
  Bfn.     Coefficient        Function     Bfn.     Coefficient        Function
  ---- -------------------  ------------     ---- -------------------  ------------
    17  -0.724698-0.702477  2 O  s                  3   0.724695 0.702474  1 O  s          
    23   0.648498 0.628613  2 O  pz                 9   0.648497 0.628612  1 O  pz         
     6   0.376235 0.364699  1 O  pz                20   0.376235 0.364698  2 O  pz         
     2  -0.164471-0.159428  1 O  s                 16   0.164467 0.159424  2 O  s          
 
 Vector   20  Occ=0.000000D+00  E= 1.845035D-01
              MO Center=  4.7D-11, -2.7D-10, -1.8D-07, r^2= 3.9D-06
  Bfn.     Coefficient        Function     Bfn.     Coefficient        Function
  ---- -------------------  ------------     ---- -------------------  ------------
    45  -0.038374-1.131298  2 O  s                 31   0.038374 1.131294  1 O  s          
    51   0.033661 0.992337  2 O  pz                37   0.033661 0.992335  1 O  pz         
    34   0.016315 0.480982  1 O  pz                48   0.016315 0.480982  2 O  pz         
    30  -0.007554-0.222690  1 O  s                 44   0.007554 0.222684  2 O  s          
 
 Vector   21  Occ=0.000000D+00  E= 4.405317D-01
              MO Center=  5.0D-07,  2.0D-06, -7.0D-06, r^2= 1.7D+00
  Bfn.     Coefficient        Function     Bfn.     Coefficient        Function
  ---- -------------------  ------------     ---- -------------------  ------------
     9  -0.954778-0.785566  1 O  pz                23  -0.954772-0.785562  2 O  pz         
    17   0.896382 0.737519  2 O  s                  3  -0.896374-0.737513  1 O  s          
     6   0.475188 0.390972  1 O  pz                20   0.475186 0.390970  2 O  pz         
 
 Vector   22  Occ=0.000000D+00  E= 4.609003D-01
              MO Center= -3.1D-09,  5.5D-09,  8.0D-07, r^2= 6.6D-04
  Bfn.     Coefficient        Function     Bfn.     Coefficient        Function
  ---- -------------------  ------------     ---- -------------------  ------------
    37  -0.539009 1.054901  1 O  pz                51  -0.539007 1.054898  2 O  pz         
    45   0.506521-0.991318  2 O  s                 31  -0.506518 0.991311  1 O  s          
    34   0.292866-0.573172  1 O  pz                48   0.292866-0.573171  2 O  pz         
 
 Vector   23  Occ=0.000000D+00  E= 4.839271D-01
              MO Center=  1.4D-08,  2.5D-07,  2.8D-05, r^2= 1.1D+00
  Bfn.     Coefficient        Function     Bfn.     Coefficient        Function
  ---- -------------------  ------------     ---- -------------------  ------------
    22  -0.447700 0.019434  2 O  py                21  -0.019461-0.447697  2 O  px         
     8  -0.447637 0.019431  1 O  py                 7  -0.019458-0.447634  1 O  px         
    19   0.400590-0.017389  2 O  py                18   0.017413 0.400588  2 O  px         
     5   0.400566-0.017387  1 O  py                 4   0.017412 0.400563  1 O  px         
 
 Vector   24  Occ=0.000000D+00  E= 4.846463D-01
              MO Center= -2.3D-08, -6.8D-09, -3.4D-05, r^2= 1.1D+00
  Bfn.     Coefficient        Function     Bfn.     Coefficient        Function
  ---- -------------------  ------------     ---- -------------------  ------------
     7   0.448174-0.000013  1 O  px                 8  -0.000013 0.448173  1 O  py         
    21   0.448097-0.000014  2 O  px                22  -0.000014 0.448095  2 O  py         
     4  -0.401362 0.000012  1 O  px                 5   0.000012-0.401361  1 O  py         
    18  -0.401334 0.000012  2 O  px                19   0.000012-0.401332  2 O  py         
 
 Vector   25  Occ=0.000000D+00  E= 5.266056D-01
              MO Center=  2.2D-09,  4.8D-10,  1.8D-06, r^2= 4.5D-05
  Bfn.     Coefficient        Function     Bfn.     Coefficient        Function
  ---- -------------------  ------------     ---- -------------------  ------------
    50   0.339694 0.281148  2 O  py                49   0.281161-0.339680  2 O  px         
    36   0.339651 0.281112  1 O  py                35   0.281126-0.339637  1 O  px         
    47  -0.323702-0.267912  2 O  py                46  -0.267925 0.323690  2 O  px         
    33  -0.323684-0.267896  1 O  py                32  -0.267910 0.323670  1 O  px         
 
 Vector   26  Occ=0.000000D+00  E= 5.274003D-01
              MO Center=  1.1D-12,  1.5D-13, -3.6D-12, r^2= 1.6D-11
  Bfn.     Coefficient        Function     Bfn.     Coefficient        Function
  ---- -------------------  ------------     ---- -------------------  ------------
    35   0.383459 0.217505  1 O  px                36   0.217488-0.383468  1 O  py         
    49   0.383398 0.217471  2 O  px                50   0.217453-0.383407  2 O  py         
    32  -0.365722-0.207444  1 O  px                33  -0.207427 0.365730  1 O  py         
    46  -0.365696-0.207430  2 O  px                47  -0.207413 0.365704  2 O  py         
 

   alpha - beta orbital overlaps 
   ----------------------------- 


   alpha      1      2      3      4      5      6      7      8      9     10
    beta      1      2      3      4      5      6      4      5      6     18
 overlap   1.060  0.313  0.295  0.275  0.275  0.337  0.086  0.086  0.087  0.000


   alpha     11     12     13     14     15     16     17     18     19     20
    beta     19      6     18     19     15     16     17     18     19     20
 overlap   0.015  0.022  0.015  0.000  1.060  0.313  0.295  0.275  0.275  0.337


   alpha     21     22     23     24     25     26     27     28
    beta     18     19     20     18     19     20     18      5
 overlap   0.086  0.086  0.087  0.000  0.015  0.022  0.015  0.000

     --------------------------
     Expectation value of S2:  
     --------------------------
      <S2> =      2.0086 (Exact =     2.0000)
 
 
     Multipole analysis of the density
     ---------------------------------
 
     L   x y z        total         alpha         beta         nuclear
     -   - - -        -----         -----         ----         -------
     0   0 0 0      0.000000     -8.999996     -7.000004     16.000000
 
     1   1 0 0      0.000000      0.000000      0.000000      0.000000
     1   0 1 0      0.000001      0.000000      0.000000      0.000000
     1   0 0 1      0.000013      0.000001      0.000012      0.000000
 
     2   2 0 0     -7.492634     -4.323219     -3.169414      0.000000
     2   1 1 0      0.000000      0.000000      0.000000      0.000000
     2   1 0 1     -0.000002      0.000000     -0.000001      0.000000
     2   0 2 0     -7.492634     -4.323219     -3.169414      0.000000
     2   0 1 1      0.000000      0.000000      0.000000      0.000000
     2   0 0 2     -7.791707    -16.553440    -12.648092     21.409825
 

 Parallel integral file used       4 records with       0 large values

  WARNING: CD fitting not compatible with spinorbit
  WARNING: disabling CD fitting
 
 
                            NWChem DFT Gradient Module
                            --------------------------
 
 

  charge          =   0.00
  wavefunction    = open shell


 Read molecular orbitals from ./o2_zora_so.movecs

  Using symmetry

 Read molecular orbitals from ./o2_zora_so.movecs


 Read molecular orbitals from ./o2_zora_so.movecs



                         sodft ENERGY GRADIENTS

    atom               coordinates                        gradient
                 x          y          z           x          y          z
   1 O       0.000000   0.000000  -1.156769    0.000000   0.000000  -0.003302
   2 O       0.000000   0.000000   1.156769    0.000000   0.000000   0.003302
 
                 ----------------------------------------
                 |  Time  |  1-e(secs)   |  2-e(secs)   |
                 ----------------------------------------
                 |  CPU   |       0.00   |       0.04   |
                 ----------------------------------------
                 |  WALL  |       0.00   |       0.05   |
                 ----------------------------------------

  Step       Energy      Delta E   Gmax     Grms     Xrms     Xmax   Walltime
  ---- ---------------- -------- -------- -------- -------- -------- --------
@    1    -150.50832881 -7.2D-04  0.00330  0.00191  0.01324  0.02293     29.8
                                                                    

 
                                 NWChem DFT Module
                                 -----------------
 
 
  WARNING: CD fitting not compatible with spinorbit
  WARNING: disabling CD fitting
                                  Spin-Orbit DFT
                                  --------------
 
 
  Caching 1-el integrals 
 
            General Information
            -------------------
          SCF calculation type: DFT
          Wavefunction type:  spin polarized.
          No. of atoms     :     2
          No. of electrons :    16
           Alpha electrons :     9
            Beta electrons :     7
          Charge           :     0
          Spin multiplicity:     3
          Use of symmetry is: off; symmetry adaption is: off
          Maximum number of iterations: 100
          AO basis - number of functions:    28
                     number of shells:    12
          Convergence on energy requested: 1.00D-06
          Convergence on density requested: 1.00D-05
          Convergence on gradient requested: 5.00D-04
 
              XC Information
              --------------
                         B3LYP Method XC Potential
                     Hartree-Fock (Exact) Exchange  0.200          
                        Slater Exchange Functional  0.800 local    
                    Becke 1988 Exchange Functional  0.720 non-local
              Lee-Yang-Parr Correlation Functional  0.810          
                  VWN I RPA Correlation Functional  0.190 local    
 
             Grid Information
             ----------------
          Grid used for XC integration:  xfine     
          Radial quadrature: Mura-Knowles        
          Angular quadrature: Lebedev. 
          Tag              B.-S. Rad. Rad. Pts. Rad. Cut. Ang. Pts.
          ---              ---------- --------- --------- ---------
          O                   0.60      100           6.0      1454
          Grid pruning is: on 
          Number of quadrature shells:   200
          Spatial weights used:  Erf1
 
          Convergence Information
          -----------------------
          Convergence aids based upon iterative change in 
          total energy or number of iterations. 
          Levelshifting, if invoked, occurs when the 
          HOMO/LUMO gap drops below (HL_TOL): 1.00D-02
          DIIS, if invoked, will attempt to extrapolate 
          using up to (NFOCK): 10 stored Fock matrices.

                    Damping( 0%)  Levelshifting(0.5)       DIIS
                  --------------- ------------------- ---------------
[...]
                 x          y          z           x          y          z
   1 O       0.000000   0.000000  -1.154657    0.000000   0.000000   0.000001
   2 O      -0.001000   0.000000   1.154657    0.000000   0.000000  -0.000001
 
 atom:   2 xyz: 2(+) wall time:      49.7      date:  Mon Mar 15 16:38:55 2010

 
                                 NWChem DFT Module
                                 -----------------
 
 
  WARNING: CD fitting not compatible with spinorbit
  WARNING: disabling CD fitting
                                  Spin-Orbit DFT
                                  --------------
 
 
  Caching 1-el integrals 
 
 ===============================
  Performing SODFT calculations 
 ===============================
 
 
 Performing ZORA calculations
 

 Read atomic ZORA corrections from ./o2_zora_so.zora_so

   Time prior to 1st pass:     41.5


         Total DFT energy =   -150.508335812449
      One electron energy =   -261.345098745112
           Coulomb energy =    100.105076409714
    Exchange-Corr. energy =    -16.982167554285
 Nuclear repulsion energy =     27.713854077233

       Scaling correction =      0.059669385464

 Numeric. integr. density =     16.000000010503

     Total iterative time =      2.3s



   alpha - beta orbital overlaps 
   ----------------------------- 


   alpha      1      2      3      4      5      6      7      8      9     10
    beta      1      2      3      4      5      6      4      5      6      4
 overlap   1.060  0.313  0.295  0.275  0.275  0.338  0.086  0.086  0.086  0.000


   alpha     11     12     13     14     15     16     17     18     19     20
    beta      5      6      4      5     15     16     17     18     19     20
 overlap   0.015  0.022  0.015  0.000  1.060  0.313  0.295  0.275  0.275  0.337


   alpha     21     22     23     24     25     26     27     28
    beta     18     19     20      4      5     20      4      5
 overlap   0.086  0.086  0.086  0.000  0.015  0.022  0.015  0.000

     --------------------------
     Expectation value of S2:  
     --------------------------
      <S2> =      2.0086 (Exact =     2.0000)
 
  WARNING: CD fitting not compatible with spinorbit
  WARNING: disabling CD fitting


                         sodft ENERGY GRADIENTS

    atom               coordinates                        gradient
                 x          y          z           x          y          z
   1 O       0.000000   0.000000  -1.154657    0.000000  -0.000001   0.000001
   2 O       0.000000   0.001000   1.154657    0.000000   0.000001  -0.000001
 
 atom:   2 xyz: 2(-) wall time:      53.8      date:  Mon Mar 15 16:38:59 2010

 
                                 NWChem DFT Module
                                 -----------------
 
 
  WARNING: CD fitting not compatible with spinorbit
  WARNING: disabling CD fitting
                                  Spin-Orbit DFT
                                  --------------
 
 
  Caching 1-el integrals 
 
 ===============================
  Performing SODFT calculations 
 ===============================
 
 
 Performing ZORA calculations
 

 Read atomic ZORA corrections from ./o2_zora_so.zora_so

   Time prior to 1st pass:     44.5


         Total DFT energy =   -150.508335812424
      One electron energy =   -261.345098829671
           Coulomb energy =    100.105076505840
    Exchange-Corr. energy =    -16.982167565826
 Nuclear repulsion energy =     27.713854077233

       Scaling correction =      0.059669385465

 Numeric. integr. density =     16.000000009336

     Total iterative time =      2.3s



   alpha - beta orbital overlaps 
   ----------------------------- 


   alpha      1      2      3      4      5      6      7      8      9     10
    beta      1      2      3      4      5      6      4      5      6      4
 overlap   1.060  0.313  0.295  0.275  0.275  0.338  0.086  0.086  0.086  0.000


   alpha     11     12     13     14     15     16     17     18     19     20
    beta      5      6      4      5     15     16     17     18     19     20
 overlap   0.015  0.022  0.015  0.000  1.060  0.313  0.295  0.275  0.275  0.337


   alpha     21     22     23     24     25     26     27     28
    beta     18     19     20      4      5     20      4      5
 overlap   0.086  0.086  0.086  0.000  0.015  0.022  0.015  0.000

     --------------------------
     Expectation value of S2:  
     --------------------------
      <S2> =      2.0086 (Exact =     2.0000)
 
  WARNING: CD fitting not compatible with spinorbit
  WARNING: disabling CD fitting


                         sodft ENERGY GRADIENTS

    atom               coordinates                        gradient
                 x          y          z           x          y          z
   1 O       0.000000   0.000000  -1.154657    0.000000   0.000001   0.000001
   2 O       0.000000  -0.001000   1.154657    0.000000  -0.000001  -0.000001
 
 atom:   2 xyz: 3(+) wall time:      57.8      date:  Mon Mar 15 16:39:03 2010

 
                                 NWChem DFT Module
                                 -----------------
 
 
  WARNING: CD fitting not compatible with spinorbit
  WARNING: disabling CD fitting
                                  Spin-Orbit DFT
                                  --------------
 
 
  Caching 1-el integrals 
 
 ===============================
  Performing SODFT calculations 
 ===============================
 
 
 Performing ZORA calculations
 

 Read atomic ZORA corrections from ./o2_zora_so.zora_so

   Time prior to 1st pass:     47.5


         Total DFT energy =   -150.508335429308
      One electron energy =   -261.322075472313
           Coulomb energy =    100.093554442520
    Exchange-Corr. energy =    -16.981675365673
 Nuclear repulsion energy =     27.701860966158

       Scaling correction =      0.059669509710

 Numeric. integr. density =     16.000000007522

     Total iterative time =      2.3s



   alpha - beta orbital overlaps 
   ----------------------------- 


   alpha      1      2      3      4      5      6      7      8      9     10
    beta      1      2      3      4      5      6      4      5      6     18
 overlap   1.060  0.313  0.295  0.275  0.275  0.337  0.086  0.086  0.086  0.000


   alpha     11     12     13     14     15     16     17     18     19     20
    beta      5      6      4     19     15     16     17     18     19     20
 overlap   0.015  0.022  0.015  0.000  1.060  0.313  0.295  0.275  0.275  0.337


   alpha     21     22     23     24     25     26     27     28
    beta     18     19     20      4      5     20      4      5
 overlap   0.086  0.086  0.086  0.000  0.015  0.022  0.015  0.000

     --------------------------
     Expectation value of S2:  
     --------------------------
      <S2> =      2.0086 (Exact =     2.0000)
 
  WARNING: CD fitting not compatible with spinorbit
  WARNING: disabling CD fitting


                         sodft ENERGY GRADIENTS

    atom               coordinates                        gradient
                 x          y          z           x          y          z
   1 O       0.000000   0.000000  -1.154657    0.000000   0.000000  -0.000793
   2 O       0.000000   0.000000   1.155657    0.000000   0.000000   0.000793
 
 atom:   2 xyz: 3(-) wall time:      61.5      date:  Mon Mar 15 16:39:07 2010

 
                                 NWChem DFT Module
                                 -----------------
 
 
  WARNING: CD fitting not compatible with spinorbit
  WARNING: disabling CD fitting
                                  Spin-Orbit DFT
                                  --------------
 
 
  Caching 1-el integrals 
 
 ===============================
  Performing SODFT calculations 
 ===============================
 
 
 Performing ZORA calculations
 

 Read atomic ZORA corrections from ./o2_zora_so.zora_so

   Time prior to 1st pass:     50.5


         Total DFT energy =   -150.508335396705
      One electron energy =   -261.368142521965
           Coulomb energy =    100.116603902499
    Exchange-Corr. energy =    -16.982659555768
 Nuclear repulsion energy =     27.725862778528

       Scaling correction =      0.059669248276

 Numeric. integr. density =     15.999999989007

     Total iterative time =      2.3s



   alpha - beta orbital overlaps 
   ----------------------------- 


   alpha      1      2      3      4      5      6      7      8      9     10
    beta      1      2      3      4      5      6      4      5      6     18
 overlap   1.060  0.313  0.295  0.275  0.275  0.338  0.086  0.086  0.086  0.000


   alpha     11     12     13     14     15     16     17     18     19     20
    beta      5      6      4     19     15     16     17     18     19     20
 overlap   0.015  0.022  0.015  0.000  1.060  0.313  0.295  0.275  0.275  0.338


   alpha     21     22     23     24     25     26     27     28
    beta     18     19     20      4      5     20      4      5
 overlap   0.086  0.086  0.086  0.000  0.015  0.022  0.015  0.000

     --------------------------
     Expectation value of S2:  
     --------------------------
      <S2> =      2.0086 (Exact =     2.0000)
 
  WARNING: CD fitting not compatible with spinorbit
  WARNING: disabling CD fitting


                         sodft ENERGY GRADIENTS

    atom               coordinates                        gradient
                 x          y          z           x          y          z
   1 O       0.000000   0.000000  -1.154657    0.000000   0.000000   0.000797
   2 O       0.000000   0.000000   1.153657    0.000000   0.000000  -0.000797
 
  
  finite difference hessian delta =   1.000000000000000E-003

              1        2        3        4        5        6      
    1    0.0005   0.0000   0.0000  -0.0005   0.0000   0.0000
    2    0.0000   0.0005   0.0000   0.0000  -0.0005   0.0000
    3    0.0000   0.0000   0.7948   0.0000   0.0000  -0.7948
    4   -0.0005   0.0000   0.0000   0.0005   0.0000   0.0000
    5    0.0000  -0.0005   0.0000   0.0000   0.0005   0.0000
    6    0.0000   0.0000  -0.7948   0.0000   0.0000   0.7948
  
  triangle hessian written to ./o2_zora_so.hess

 Deleting state for sodft with suffix hess
        ./o2_zora_so.movecs
 
 
 
  Vibrational analysis via the FX method 
 
  See chapter 2 in "Molecular Vibrations" by Wilson, Decius and Cross
 
  Vib: Default input used 
 
  Nuclear Hessian passed symmetry test 
 


 ---------------------------- Atom information ----------------------------
     atom    #        X              Y              Z            mass
 --------------------------------------------------------------------------
    O        1  0.0000000D+00  0.0000000D+00 -1.1546571D+00  1.5994910D+01
    O        2  0.0000000D+00  0.0000000D+00  1.1546571D+00  1.5994910D+01
 --------------------------------------------------------------------------




          ----------------------------------------------------
          MASS-WEIGHTED NUCLEAR HESSIAN (Hartree/Bohr/Bohr/Kamu)
          ----------------------------------------------------


              1           2           3           4           5           6
   ----- ----- ----- ----- -----
    1   3.30883D-02
    2   0.00000D+00 3.30883D-02
    3   0.00000D+00 0.00000D+00 4.96936D+01
    4  -3.30883D-02 0.00000D+00 0.00000D+00 3.30883D-02
    5   0.00000D+00-3.30883D-02 0.00000D+00 0.00000D+00 3.30883D-02
    6   0.00000D+00 0.00000D+00-4.96936D+01 0.00000D+00 0.00000D+00 4.96936D+01



          -------------------------------------------------
          NORMAL MODE EIGENVECTORS IN CARTESIAN COORDINATES
          -------------------------------------------------
                 (Frequencies expressed in cm-1)

                    1           2           3           4           5           6
 
 Frequency          0.00        0.00        0.00       41.82       41.82     1620.58
 
           1     0.17680     0.00000     0.00000     0.17680     0.00000     0.00000
           2     0.00000     0.17680     0.00000     0.00000     0.17680     0.00000
           3     0.00000     0.00000     0.17680     0.00000     0.00000     0.17680
           4     0.17680     0.00000     0.00000    -0.17680     0.00000     0.00000
           5     0.00000     0.17680     0.00000     0.00000    -0.17680     0.00000
           6     0.00000     0.00000     0.17680     0.00000     0.00000    -0.17680
 
 
        Vibrational analysis via the FX method 
  --- with translations and rotations projected out ---
  --- via the Eckart algorithm                      ---
 Dependent rotation vector no.                     3
  found in ECKART; assuming linear geometry
 Projected Nuclear Hessian trans-rot subspace norm:0.0000D+00
                         (should be close to zero!) 


From the projected analysis 
The Zero-Point Energy (Kcal/mol) =           2.31742381

 center of mass
 --------------
 x =   0.00000000 y =   0.00000000 z =   0.00000000

 moments of inertia (a.u.)
 ------------------
          42.649880606912           0.000000000000           0.000000000000
           0.000000000000          42.649880606912           0.000000000000
           0.000000000000           0.000000000000           0.000000000000

 Rotational Constants
 --------------------
 A=   0.000000 cm-1  (  0.000000 K)
 B=   1.411497 cm-1  (  2.030784 K)
 C=   1.411497 cm-1  (  2.030784 K)


 Temperature                      =   298.15K
 frequency scaling parameter      =   1.0000


 Linear Molecule                   

 Zero-Point correction to Energy  =    2.316 kcal/mol  (  0.003690 au)
 Thermal correction to Energy     =    3.798 kcal/mol  (  0.006053 au)
 Thermal correction to Enthalpy   =    4.390 kcal/mol  (  0.006996 au)

 Total Entropy                    =   46.831 cal/mol-K
   - Translational                =   36.304 cal/mol-K (mol. weight =  31.9898)
   - Rotational                   =   10.520 cal/mol-K (symmetry #  =        2)
   - Vibrational                  =    0.007 cal/mol-K

 Cv (constant volume heat capacity) =    5.015 cal/mol-K
   - Translational                  =    2.979 cal/mol-K
   - Rotational                     =    1.986 cal/mol-K
   - Vibrational                    =    0.049 cal/mol-K



          -------------------------------------------------
          NORMAL MODE EIGENVECTORS IN CARTESIAN COORDINATES
          -------------------------------------------------
             (Projected Frequencies expressed in cm-1)

                    1           2           3           4           5           6
 
 P.Frequency        0.00        0.00        0.00        0.00        0.00     1620.58
 
           1     0.25004     0.00000     0.00000     0.00000     0.00000     0.00000
           2     0.00000     0.25004     0.00000     0.00000     0.00000     0.00000
           3     0.00000     0.00000     0.00000     0.00000     0.17680     0.17680
           4     0.00000     0.00000     0.25004     0.00000     0.00000     0.00000
           5     0.00000     0.00000     0.00000     0.25004     0.00000     0.00000
           6     0.00000     0.00000     0.00000     0.00000     0.17680    -0.17680
 vib:animation  F

 Task  times  cpu:       20.6s     wall:       27.0s
 
 
                                NWChem Input Module
                                -------------------
 
 
 Summary of allocated global arrays
-----------------------------------
  array 0 => double precision Movecs Re(28,28),  handle: -987 
  array 1 => double precision Movecs Re(28,28),  handle: -986 
  array 2 => double precision Movecs Im(28,28),  handle: -985 
  array 3 => double precision Movecs Re(28,28),  handle: -984 
  array 4 => double precision Movecs Im(28,28),  handle: -983 
  array 5 => double precision Movecs Re(28,28),  handle: -982 
  array 6 => double precision Movecs Im(28,28),  handle: -981 
  array 7 => double precision Movecs Re(28,28),  handle: -980 
  array 8 => double precision Movecs Im(28,28),  handle: -979 
  array 9 => double precision Movecs Re(28,28),  handle: -978 
  array 10 => double precision Movecs Im(28,28),  handle: -977 
  array 11 => double precision Movecs Re(28,28),  handle: -976 
  array 12 => double precision Movecs Im(28,28),  handle: -975 
  array 13 => double precision Movecs Re(28,28),  handle: -974 
  array 14 => double precision Movecs Im(28,28),  handle: -973 
  array 15 => double precision Movecs Re(28,28),  handle: -972 
  array 16 => double precision Movecs Im(28,28),  handle: -971 
  array 17 => double precision Movecs Re(28,28),  handle: -970 
  array 18 => double precision Movecs Im(28,28),  handle: -969 
  array 19 => double precision Movecs Re(28,28),  handle: -968 
  array 20 => double precision Movecs Im(28,28),  handle: -967 
  array 21 => double precision Movecs Re(28,28),  handle: -966 
  array 22 => double precision Movecs Im(28,28),  handle: -965 
  array 23 => double precision Movecs Im(28,28),  handle: -963 



                         GA Statistics for process    0
                         ------------------------------

       create   destroy   get      put      acc     scatter   gather  read&inc
calls: 1.22e+04 1.22e+04 8.97e+04 3.01e+04 1.53e+04   10        0        0     
number of processes/call 1.30e+00 2.04e+00 1.01e+00 4.00e+00 0.00e+00
bytes total:             9.67e+07 4.76e+07 1.34e+07 1.28e+03 0.00e+00 0.00e+00
bytes remote:            4.00e+07 3.20e+07 9.04e+06 9.60e+02 0.00e+00 0.00e+00
Max memory consumed for GA by this process: 537824 bytes
 
MA_summarize_allocated_blocks: starting scan ...
MA_summarize_allocated_blocks: scan completed: 0 heap blocks, 0 stack blocks
MA usage statistics:

	allocation statistics:
					      heap	     stack
					      ----	     -----
	current number of blocks	         0	         0
	maximum number of blocks	        25	        62
	current total bytes		         0	         0
	maximum total bytes		   3814936	  28858808
	maximum total K-bytes		      3815	     28859
	maximum total M-bytes		         4	        29



                                  ACKNOWLEDGEMENT
                                  ---------------

            Please use the following acknowledgement where appropriate 
            for results obtained with NWChem:

            High Performance Computational Chemistry Group, "NWChem, A
            Computational Chemistry Package for Parallel Computers, 
            Version 5.1.1" (2008), Pacific Northwest National Laboratory,
            Richland, Washington 99352-0999, USA.


                                     CITATION
                                     --------

          Please use the following citation when publishing results
          obtained with NWChem:

          E. J. Bylaska, W. A. de Jong, N. Govind, K. Kowalski, T. P. Straatsma,
          M. Valiev, H. J. J. Van Dam, D. Wang, E. Apra, T. L. Windus, J. Hammond,
          J. Autschbach, P. Nichols, S. Hirata, M. T. Hackler, Y. Zhao, P.-D. Fan,
          R. J. Harrison, M. Dupuis, D. M. A. Smith, J. Nieplocha, V. Tipparaju,
          M. Krishnan, A. Vazquez-Mayagoitia, L. Jensen, M. Swart, Q. Wu,
          T. Van Voorhis, A. A. Auer, M. Nooijen, L. D. Crosby, E. Brown, 
          G. Cisneros, G. I. Fann, H. Fruchtl, J. Garza, K. Hirao,
          R. Kendall, J. A. Nichols, K. Tsemekhman, K. Wolinski, J. Anchell, 
          D. Bernholdt, P. Borowski, T. Clark, D. Clerc, H. Dachsel, M. Deegan, 
          K. Dyall, D. Elwood, E. Glendening, M. Gutowski, A. Hess, J. Jaffe, 
          B. Johnson, J. Ju, R. Kobayashi, R. Kutteh, Z. Lin, R. Littlefield, 
          X. Long, B. Meng, T. Nakajima, S. Niu, L. Pollack, M. Rosing, 
          G. Sandrone, M. Stave, H. Taylor, G. Thomas, J. van Lenthe, 
          A. Wong, and Z. Zhang,
          "NWChem, A Computational Chemistry Package for Parallel Computers, 
          Version 5.1.1" (2008),
                      Pacific Northwest National Laboratory,
                      Richland, Washington 99352-0999, USA.



 Total times  cpu:       53.4s     wall:       65.4s
