 argument  1 = /home/edo/park/nwchem-6.8/QA/tests/o2_zora_so/o2_zora_so.nw
 


============================== echo of input deck ==============================
echo
start o2_zora_so

geometry noautoz units angstrom
symmetry c1
 O 0 0 -0.60000000
 O 0 0  0.60000000
end

basis spherical
 * library "DZVP (DFT Orbital)"
end

dft
 grid xfine
 iterations 100
 XC b3lyp
 odft
 mult 3
end

driver
 clear
 maxiter 100
end

relativistic
  zora on
  zora:cutoff 1d-30
end

task sodft optimize
task sodft freq
================================================================================


                                         
                                         
 
 
              Northwest Computational Chemistry Package (NWChem) 6.8
              ------------------------------------------------------
 
 
                    Environmental Molecular Sciences Laboratory
                       Pacific Northwest National Laboratory
                                Richland, WA 99352
 
                              Copyright (c) 1994-2017
                       Pacific Northwest National Laboratory
                            Battelle Memorial Institute
 
             NWChem is an open-source computational chemistry package
                        distributed under the terms of the
                      Educational Community License (ECL) 2.0
             A copy of the license is included with this distribution
                              in the LICENSE.TXT file
 
                                  ACKNOWLEDGMENT
                                  --------------

            This software and its documentation were developed at the
            EMSL at Pacific Northwest National Laboratory, a multiprogram
            national laboratory, operated for the U.S. Department of Energy
            by Battelle under Contract Number DE-AC05-76RL01830. Support
            for this work was provided by the Department of Energy Office
            of Biological and Environmental Research, Office of Basic
            Energy Sciences, and the Office of Advanced Scientific Computing.


           Job information
           ---------------

    hostname        = lagrange
    program         = /home/edo/park/nwchem-6.8/bin/LINUX64/nwchem
    date            = Wed Sep 13 19:46:30 2017

    compiled        = Wed_Sep_13_17:54:28_2017
    source          = /home/edo/park/nwchem-6.8
    nwchem branch   = 6.8
    nwchem revision = 29434
    ga revision     = N/A
    input           = /home/edo/park/nwchem-6.8/QA/tests/o2_zora_so/o2_zora_so.nw
    prefix          = o2_zora_so.
    data base       = ./o2_zora_so.db
    status          = startup
    nproc           =        3
    time left       =     -1s



           Memory information
           ------------------

    heap     =   13107198 doubles =    100.0 Mbytes
    stack    =   13107195 doubles =    100.0 Mbytes
    global   =   26214400 doubles =    200.0 Mbytes (distinct from heap & stack)
    total    =   52428793 doubles =    400.0 Mbytes
    verify   = yes
    hardfail = no 


           Directory information
           ---------------------
 
  0 permanent = .
  0 scratch   = .
 
 
 
 
                                NWChem Input Module
                                -------------------
 
 

 Scaling coordinates for geometry "geometry" by  1.889725989
 (inverse scale =  0.529177249)

 Turning off AUTOSYM since
 SYMMETRY directive was detected!
 
 
 
                             Geometry "geometry" -> ""
                             -------------------------
 
 Output coordinates in angstroms (scale by  1.889725989 to convert to a.u.)
 
  No.       Tag          Charge          X              Y              Z
 ---- ---------------- ---------- -------------- -------------- --------------
    1 O                    8.0000     0.00000000     0.00000000    -0.60000000
    2 O                    8.0000     0.00000000     0.00000000     0.60000000
 
      Atomic Mass 
      ----------- 
 
      O                 15.994910
 

 Effective nuclear repulsion energy (a.u.)      28.2227866133

            Nuclear Dipole moment (a.u.) 
            ----------------------------
        X                 Y               Z
 ---------------- ---------------- ----------------
     0.0000000000     0.0000000000     0.0000000000
 
 
            XYZ format geometry
            -------------------
     2
 geometry
 O                     0.00000000     0.00000000    -0.60000000
 O                     0.00000000     0.00000000     0.60000000
 
 ==============================================================================
                                internuclear distances
 ------------------------------------------------------------------------------
       center one      |      center two      | atomic units |  angstroms
 ------------------------------------------------------------------------------
    2 O                |   1 O                |     2.26767  |     1.20000
 ------------------------------------------------------------------------------
                         number of included internuclear distances:          1
 ==============================================================================





 Summary of "ao basis" -> "" (spherical)
 ------------------------------------------------------------------------------
       Tag                 Description            Shells   Functions and Types
 ---------------- ------------------------------  ------  ---------------------
 *                     DZVP (DFT Orbital)             on all atoms 


 
  Deleted DRIVER restart files 
 
 
 
                           NWChem Geometry Optimization
                           ----------------------------
 
 
 maximum gradient threshold         (gmax) =   0.000450
 rms gradient threshold             (grms) =   0.000300
 maximum cartesian step threshold   (xmax) =   0.001800
 rms cartesian step threshold       (xrms) =   0.001200
 fixed trust radius                (trust) =   0.300000
 maximum step size to saddle      (sadstp) =   0.100000
 energy precision                  (eprec) =   1.0D-07
 maximum number of steps          (nptopt) =  100
 initial hessian option           (inhess) =    0
 line search option               (linopt) =    1
 hessian update option            (modupd) =    1
 saddle point option              (modsad) =    0
 initial eigen-mode to follow     (moddir) =    0
 initial variable to follow       (vardir) =    0
 follow first negative mode     (firstneg) =    T
 apply conjugacy                    (opcg) =    F
 source of zmatrix                         =           


          -------------------
          Energy Minimization
          -------------------

 
 Using diagonal initial Hessian 

          --------
          Step   0
          --------
 
 
                         Geometry "geometry" -> "geometry"
                         ---------------------------------
 
 Output coordinates in angstroms (scale by  1.889725989 to convert to a.u.)
 
  No.       Tag          Charge          X              Y              Z
 ---- ---------------- ---------- -------------- -------------- --------------
    1 O                    8.0000     0.00000000     0.00000000    -0.60000000
    2 O                    8.0000     0.00000000     0.00000000     0.60000000
 
      Atomic Mass 
      ----------- 
 
      O                 15.994910
 

 Effective nuclear repulsion energy (a.u.)      28.2227866133

            Nuclear Dipole moment (a.u.) 
            ----------------------------
        X                 Y               Z
 ---------------- ---------------- ----------------
     0.0000000000     0.0000000000     0.0000000000
 
 
                                 NWChem DFT Module
                                 -----------------
 
 
                      Basis "ao basis" -> "ao basis" (spherical)
                      -----
  O (Oxygen)
  ----------
            Exponent  Coefficients 
       -------------- ---------------------------------------------------------
  1 S  5.22290220E+03 -0.001936
  1 S  7.82539940E+02 -0.014851
  1 S  1.77267430E+02 -0.073319
  1 S  4.95166880E+01 -0.245116
  1 S  1.56664400E+01 -0.480285
  1 S  5.17935990E+00 -0.335943
 
  2 S  1.06014410E+01  0.078806
  2 S  9.42317000E-01 -0.567695
 
  3 S  2.77474600E-01  1.000000
 
  4 P  3.34241260E+01  0.017560
  4 P  7.62217140E+00  0.107630
  4 P  2.23820930E+00  0.323526
  4 P  6.86730000E-01  0.483223
 
  5 P  1.93813500E-01  1.000000
 
  6 D  8.00000000E-01  1.000000
 


 Summary of "ao basis" -> "ao basis" (spherical)
 ------------------------------------------------------------------------------
       Tag                 Description            Shells   Functions and Types
 ---------------- ------------------------------  ------  ---------------------
 O                     DZVP (DFT Orbital)            6       14   3s2p1d




 Summary of "ao basis" -> "ao basis" (spherical)
 ------------------------------------------------------------------------------
       Tag                 Description            Shells   Functions and Types
 ---------------- ------------------------------  ------  ---------------------
 O                     DZVP (DFT Orbital)            6       14   3s2p1d


  Caching 1-el integrals 
 
            General Information
            -------------------
          SCF calculation type: DFT
          Wavefunction type:  spin polarized.
          No. of atoms     :     2
          No. of electrons :    16
           Alpha electrons :     9
            Beta electrons :     7
          Charge           :     0
          Spin multiplicity:     3
          Use of symmetry is: off; symmetry adaption is: off
          Maximum number of iterations: 100
          AO basis - number of functions:    28
                     number of shells:    12
          Convergence on energy requested:  1.00D-06
          Convergence on density requested:  1.00D-05
          Convergence on gradient requested:  5.00D-04
 
              XC Information
              --------------
                         B3LYP Method XC Potential
                     Hartree-Fock (Exact) Exchange  0.200          
                        Slater Exchange Functional  0.800 local    
                    Becke 1988 Exchange Functional  0.720 non-local
              Lee-Yang-Parr Correlation Functional  0.810          
                  VWN I RPA Correlation Functional  0.190 local    
 
             Grid Information
             ----------------
          Grid used for XC integration:  xfine     
          Radial quadrature: Mura-Knowles        
          Angular quadrature: Lebedev. 
          Tag              B.-S. Rad. Rad. Pts. Rad. Cut. Ang. Pts.
          ---              ---------- --------- --------- ---------
          O                   0.60      100           6.0      1454
          Grid pruning is: on 
          Number of quadrature shells:   200
          Spatial weights used:  Erf1
 
          Convergence Information
          -----------------------
          Convergence aids based upon iterative change in 
          total energy or number of iterations. 
          Levelshifting, if invoked, occurs when the 
          HOMO/LUMO gap drops below (HL_TOL):  1.00D-02
          DIIS, if invoked, will attempt to extrapolate 
          using up to (NFOCK): 10 stored Fock matrices.

                    Damping( 0%)  Levelshifting(0.5)       DIIS
                  --------------- ------------------- ---------------
          dE  on:    start            ASAP                start   
          dE off:    2 iters        100 iters           100 iters 

 
      Screening Tolerance Information
      -------------------------------
          Density screening/tol_rho:  1.00D-10
          AO Gaussian exp screening on grid/accAOfunc:  14
          CD Gaussian exp screening on grid/accCDfunc:  20
          XC Gaussian exp screening on grid/accXCfunc:  20
          Schwarz screening/accCoul:  1.00D-10

 Performing spin-orbit DFT (SO-DFT) calculations
 -----------------------------------------------
 
          Performing ZORA calculations
          ----------------------------
 
 
      Superposition of Atomic Density Guess
      -------------------------------------
 
 Sum of atomic energies:        -149.52590251

 Read atomic ZORA corrections from ./o2_zora_so.zora_so

 dft_zora_read_so: failed to open ./o2_zora_so.zora_so
 Forcing recalculation of ZORA corrections
       Generating atomic ZORA corrections
       ----------------------------------
 

 Grid_pts file          = ./o2_zora_so.gridpts.0
 Record size in doubles =  12289        No. of grid_pts per rec  =   3070
 Max. records in memory =     36        Max. recs in file   =    305201


 Wrote atomic ZORA corrections to ./o2_zora_so.zora_so

 
      Superposition of Atomic Density Guess
      -------------------------------------
 
 Sum of atomic energies:        -149.52590251
 
      Non-variational initial energy
      ------------------------------

 Total energy =    -149.627439
 1-e energy   =    -262.351113
 2-e energy   =      84.500888
 HOMO         =      -0.200062
 LUMO         =      -0.200062
 
   Time prior to 1st pass:      0.8

 #quartets = 3.080D+03 #integrals = 2.185D+04 #direct =  0.0% #cached =100.0%


 Integral file          = ./o2_zora_so.aoints.0
 Record size in doubles =  65536        No. of integs per rec  =  43688
 Max. records in memory =      2        Max. records in file   =  57227
 No. of bits per label  =      8        No. of bits per value  =     64


File balance: exchanges=     0  moved=     0  time=   0.0


           Memory utilization after 1st SCF pass: 
           Heap Space remaining (MW):       12.53            12531950
          Stack Space remaining (MW):       13.10            13099988

   convergence    iter        energy       DeltaE   RMS-Dens  Diis-err    time
 ---------------- ----- ----------------- --------- --------- ---------  ------
 d= 0,ls=0.0,diis     1   -150.4634219650 -1.79D+02  1.58D-02  1.95D-01     1.0
                                                     6.16D-03  1.95D-01
 d= 0,ls=0.0,diis     2   -150.4860181905 -2.26D-02  5.84D-03  9.21D-02     1.1
                                                     4.44D-03  9.21D-02
 d= 0,ls=0.0,diis     3   -150.5067289227 -2.07D-02  1.00D-03  7.64D-04     1.2
                                                     1.90D-04  7.64D-04
 d= 0,ls=0.0,diis     4   -150.5069524035 -2.23D-04  6.01D-05  3.59D-05     1.3
                                                     1.44D-04  3.59D-05
 d= 0,ls=0.0,diis     5   -150.5069619664 -9.56D-06  3.74D-05  9.15D-07     1.4
                                                     1.79D-05  9.15D-07
 d= 0,ls=0.0,diis     6   -150.5069623069 -3.41D-07  8.07D-07  1.14D-09     1.5
                                                     6.76D-07  1.14D-09
  zoraso: enough mem for repl


      Total SO-DFT energy =     -150.506962307241
      One electron energy =     -262.318779126961
           Coulomb energy =      100.592134917041
    Exchange-Corr. energy =      -17.003104710638
 Nuclear repulsion energy =       28.222786613317

       Scaling correction =        0.059668197581

 Numeric. integr. density =       15.999999997402

     Total iterative time =      0.8s


 
                       DFT Final Molecular Orbital Analysis
                       ------------------------------------
 
 Vector    1  Occ=1.000000D+00  E=-1.932111D+01
              MO Center=  5.2D-14,  5.2D-14, -1.5D-05, r^2= 3.8D-01
  Bfn.         Coefficient        Function           Bfn.         Coefficient        Function  
  ----     -------------------  ------------         ----     -------------------  ------------
     1     0.706032   0.000000  1 O  s                 15     0.706015   0.000000  2 O  s          
 
 Vector    2  Occ=1.000000D+00  E=-1.932088D+01
              MO Center=  8.5D-14,  8.5D-14,  1.5D-05, r^2= 3.8D-01
  Bfn.         Coefficient        Function           Bfn.         Coefficient        Function  
  ----     -------------------  ------------         ----     -------------------  ------------
    15     0.706043   0.000000  2 O  s                  1    -0.706025   0.000000  1 O  s          
 
 Vector    3  Occ=1.000000D+00  E=-1.928945D+01
              MO Center=  4.6D-22,  4.6D-22, -1.7D-19, r^2= 2.1D-14
  Bfn.         Coefficient        Function           Bfn.         Coefficient        Function  
  ----     -------------------  ------------         ----     -------------------  ------------
    29    -0.499162  -0.499649  1 O  s                 43    -0.499155  -0.499641  2 O  s          
 
 Vector    4  Occ=1.000000D+00  E=-1.928908D+01
              MO Center= -2.7D-22, -2.7D-22,  1.7D-19, r^2= 2.2D-14
  Bfn.         Coefficient        Function           Bfn.         Coefficient        Function  
  ----     -------------------  ------------         ----     -------------------  ------------
    43    -0.499177  -0.499671  2 O  s                 29     0.499170   0.499663  1 O  s          
 
 Vector    5  Occ=1.000000D+00  E=-1.325391D+00
              MO Center= -4.1D-10, -4.1D-10, -1.2D-09, r^2= 4.6D-01
  Bfn.         Coefficient        Function           Bfn.         Coefficient        Function  
  ----     -------------------  ------------         ----     -------------------  ------------
     2     0.370901   0.000000  1 O  s                 16     0.370901   0.000000  2 O  s          
     3    -0.228111   0.000000  1 O  s                 17    -0.228111   0.000000  2 O  s          
     6    -0.197518  -0.000000  1 O  pz                20     0.197518  -0.000000  2 O  pz         
     1    -0.167218  -0.000000  1 O  s                 15    -0.167218  -0.000000  2 O  s          
 
 Vector    6  Occ=1.000000D+00  E=-1.268235D+00
              MO Center=  1.2D-18,  1.2D-18, -1.9D-16, r^2= 3.3D-08
  Bfn.         Coefficient        Function           Bfn.         Coefficient        Function  
  ----     -------------------  ------------         ----     -------------------  ------------
    30    -0.246268  -0.246789  1 O  s                 44    -0.246268  -0.246789  2 O  s          
    31     0.164683   0.165032  1 O  s                 45     0.164683   0.165032  2 O  s          
    34     0.149304   0.149621  1 O  pz                48    -0.149304  -0.149621  2 O  pz         
    29     0.115232   0.115476  1 O  s                 43     0.115232   0.115476  2 O  s          
    40     0.022239   0.022286  1 O  d  0              54     0.022239   0.022286  2 O  d  0       
 
 Vector    7  Occ=1.000000D+00  E=-8.424656D-01
              MO Center= -5.5D-11, -5.5D-11, -4.9D-09, r^2= 1.0D+00
  Bfn.         Coefficient        Function           Bfn.         Coefficient        Function  
  ----     -------------------  ------------         ----     -------------------  ------------
     2    -0.417081  -0.000000  1 O  s                 16     0.417081   0.000000  2 O  s          
     3     0.409183  -0.000000  1 O  s                 17    -0.409183   0.000000  2 O  s          
     1     0.178945   0.000000  1 O  s                 15    -0.178945  -0.000000  2 O  s          
     6    -0.147983   0.000000  1 O  pz                20    -0.147983  -0.000000  2 O  pz         
     9    -0.031127   0.000000  1 O  pz                23    -0.031127   0.000000  2 O  pz         
 
 Vector    8  Occ=1.000000D+00  E=-7.541506D-01
              MO Center=  1.2D-16,  1.2D-16, -5.7D-15, r^2= 3.1D-07
  Bfn.         Coefficient        Function           Bfn.         Coefficient        Function  
  ----     -------------------  ------------         ----     -------------------  ------------
    31     0.290643   0.290825  1 O  s                 45    -0.290643  -0.290825  2 O  s          
    30    -0.281423  -0.281599  1 O  s                 44     0.281423   0.281599  2 O  s          
    29     0.123392   0.123469  1 O  s                 43    -0.123392  -0.123469  2 O  s          
    34    -0.112267  -0.112338  1 O  pz                48    -0.112267  -0.112338  2 O  pz         
    37    -0.033575  -0.033596  1 O  pz                51    -0.033575  -0.033596  2 O  pz         
 
 Vector    9  Occ=1.000000D+00  E=-5.750023D-01
              MO Center= -4.7D-10, -4.7D-10, -3.2D-09, r^2= 4.1D-01
  Bfn.         Coefficient        Function           Bfn.         Coefficient        Function  
  ----     -------------------  ------------         ----     -------------------  ------------
     5    -0.271281   0.271233  1 O  py                 4    -0.271233  -0.271281  1 O  px         
    19    -0.271281   0.271233  2 O  py                18    -0.271233  -0.271281  2 O  px         
     8    -0.083327   0.083313  1 O  py                 7    -0.083313  -0.083327  1 O  px         
    22    -0.083327   0.083313  2 O  py                21    -0.083313  -0.083327  2 O  px         
 
 Vector   10  Occ=1.000000D+00  E=-5.741566D-01
              MO Center= -5.1D-10, -5.1D-10, -3.2D-09, r^2= 4.1D-01
  Bfn.         Coefficient        Function           Bfn.         Coefficient        Function  
  ----     -------------------  ------------         ----     -------------------  ------------
     4     0.271011  -0.271055  1 O  px                 5     0.271055   0.271011  1 O  py         
    18     0.271011  -0.271055  2 O  px                19     0.271055   0.271011  2 O  py         
     7     0.083555  -0.083569  1 O  px                 8     0.083569   0.083555  1 O  py         
    21     0.083555  -0.083569  2 O  px                22     0.083569   0.083555  2 O  py         
 
 Vector   11  Occ=1.000000D+00  E=-5.571486D-01
              MO Center=  1.5D-09,  1.5D-09,  4.9D-09, r^2= 1.1D+00
  Bfn.         Coefficient        Function           Bfn.         Coefficient        Function  
  ----     -------------------  ------------         ----     -------------------  ------------
     6    -0.530094  -0.000000  1 O  pz                20     0.530094   0.000000  2 O  pz         
    17     0.263611   0.000000  2 O  s                  3     0.263611  -0.000000  1 O  s          
    23     0.148581   0.000000  2 O  pz                 9    -0.148581  -0.000000  1 O  pz         
    16    -0.124947  -0.000000  2 O  s                  2    -0.124947  -0.000000  1 O  s          
    15     0.063068   0.000000  2 O  s                  1     0.063068   0.000000  1 O  s          
 
 Vector   12  Occ=1.000000D+00  E=-5.164052D-01
              MO Center= -2.7D-15, -2.7D-15,  1.6D-13, r^2= 4.0D-06
  Bfn.         Coefficient        Function           Bfn.         Coefficient        Function  
  ----     -------------------  ------------         ----     -------------------  ------------
    34    -0.367446  -0.367434  1 O  pz                48     0.367446   0.367434  2 O  pz         
    45     0.199620   0.199613  2 O  s                 31     0.199620   0.199613  1 O  s          
    51     0.111559   0.111556  2 O  pz                37    -0.111559  -0.111556  1 O  pz         
    44    -0.088182  -0.088179  2 O  s                 30    -0.088182  -0.088179  1 O  s          
    43     0.047173   0.047171  2 O  s                 29     0.047173   0.047171  1 O  s          
 
 Vector   13  Occ=1.000000D+00  E=-4.730901D-01
              MO Center=  3.4D-15,  3.4D-15,  1.7D-14, r^2= 7.6D-07
  Bfn.         Coefficient        Function           Bfn.         Coefficient        Function  
  ----     -------------------  ------------         ----     -------------------  ------------
    33     0.000000  -0.359526  1 O  py                32    -0.359526   0.000000  1 O  px         
    47     0.000000  -0.359526  2 O  py                46    -0.359526   0.000000  2 O  px         
    36     0.000000  -0.141660  1 O  py                35    -0.141660   0.000000  1 O  px         
    50     0.000000  -0.141660  2 O  py                49    -0.141660   0.000000  2 O  px         
    53    -0.000000   0.027891  2 O  d -1              55    -0.027891   0.000000  2 O  d  1       
 
 Vector   14  Occ=1.000000D+00  E=-4.723484D-01
              MO Center= -9.3D-18, -9.3D-18, -2.6D-20, r^2= 8.5D-12
  Bfn.         Coefficient        Function           Bfn.         Coefficient        Function  
  ----     -------------------  ------------         ----     -------------------  ------------
    32     0.000004   0.359183  1 O  px                33     0.359183  -0.000004  1 O  py         
    46     0.000004   0.359183  2 O  px                47     0.359183  -0.000004  2 O  py         
    35     0.000002   0.142007  1 O  px                36     0.142007  -0.000002  1 O  py         
    49     0.000002   0.142007  2 O  px                50     0.142007  -0.000002  2 O  py         
    55     0.000000   0.027909  2 O  d  1              53    -0.027909   0.000000  2 O  d -1       
 
 Vector   15  Occ=1.000000D+00  E=-3.143025D-01
              MO Center=  1.1D-11,  1.1D-11,  3.1D-09, r^2= 4.8D-01
  Bfn.         Coefficient        Function           Bfn.         Coefficient        Function  
  ----     -------------------  ------------         ----     -------------------  ------------
    19    -0.312131   0.312091  2 O  py                18    -0.312091  -0.312131  2 O  px         
     5     0.312131  -0.312091  1 O  py                 4     0.312091   0.312131  1 O  px         
    22    -0.157033   0.157013  2 O  py                21    -0.157013  -0.157033  2 O  px         
     8     0.157033  -0.157013  1 O  py                 7     0.157013   0.157033  1 O  px         
 
 Vector   16  Occ=1.000000D+00  E=-3.132351D-01
              MO Center=  1.1D-11,  1.1D-11,  3.1D-09, r^2= 4.8D-01
  Bfn.         Coefficient        Function           Bfn.         Coefficient        Function  
  ----     -------------------  ------------         ----     -------------------  ------------
    18     0.311833  -0.311873  2 O  px                19     0.311873   0.311833  2 O  py         
     4    -0.311833   0.311873  1 O  px                 5    -0.311873  -0.311833  1 O  py         
    21     0.157582  -0.157603  2 O  px                22     0.157603   0.157582  2 O  py         
     7    -0.157582   0.157603  1 O  px                 8    -0.157603  -0.157582  1 O  py         
 
 Vector   17  Occ=0.000000D+00  E=-1.209929D-01
              MO Center= -1.6D-16, -1.6D-16, -4.9D-15, r^2= 7.4D-06
  Bfn.         Coefficient        Function           Bfn.         Coefficient        Function  
  ----     -------------------  ------------         ----     -------------------  ------------
    47     0.000000   0.411866  2 O  py                46     0.411866   0.000000  2 O  px         
    33    -0.000000  -0.411866  1 O  py                32    -0.411866  -0.000000  1 O  px         
    50     0.000000   0.284893  2 O  py                49     0.284893   0.000000  2 O  px         
    36    -0.000000  -0.284893  1 O  py                35    -0.284893  -0.000000  1 O  px         
 
 Vector   18  Occ=0.000000D+00  E=-1.200837D-01
              MO Center=  2.4D-20,  2.4D-20,  4.0D-21, r^2= 2.0D-13
  Bfn.         Coefficient        Function           Bfn.         Coefficient        Function  
  ----     -------------------  ------------         ----     -------------------  ------------
    46    -0.000010   0.411424  2 O  px                47     0.411424   0.000010  2 O  py         
    32     0.000010  -0.411424  1 O  px                33    -0.411424  -0.000010  1 O  py         
    49    -0.000007   0.285776  2 O  px                50     0.285776   0.000007  2 O  py         
    35     0.000007  -0.285776  1 O  px                36    -0.285776  -0.000007  1 O  py         
 
 Vector   19  Occ=0.000000D+00  E= 1.726467D-01
              MO Center= -1.8D-10, -1.8D-10,  3.1D-09, r^2= 2.1D+00
  Bfn.         Coefficient        Function           Bfn.         Coefficient        Function  
  ----     -------------------  ------------         ----     -------------------  ------------
    17    -1.133289   0.000000  2 O  s                  3     1.133289  -0.000000  1 O  s          
    23     0.988696  -0.000000  2 O  pz                 9     0.988696  -0.000000  1 O  pz         
     6     0.487832  -0.000000  1 O  pz                20     0.487832  -0.000000  2 O  pz         
     2    -0.229553  -0.000000  1 O  s                 16     0.229553   0.000000  2 O  s          
     1     0.102532  -0.000000  1 O  s                 15    -0.102532  -0.000000  2 O  s          
 
 Vector   20  Occ=0.000000D+00  E= 2.078311D-01
              MO Center=  8.4D-15,  8.4D-15, -4.8D-15, r^2= 3.0D-06
  Bfn.         Coefficient        Function           Bfn.         Coefficient        Function  
  ----     -------------------  ------------         ----     -------------------  ------------
    45    -0.894094  -0.894011  2 O  s                 31     0.894094   0.894011  1 O  s          
    51     0.766007   0.765936  2 O  pz                37     0.766007   0.765936  1 O  pz         
    34     0.310349   0.310320  1 O  pz                48     0.310349   0.310320  2 O  pz         
    30    -0.155674  -0.155660  1 O  s                 44     0.155674   0.155660  2 O  s          
    29     0.076422   0.076415  1 O  s                 43    -0.076422  -0.076415  2 O  s          
 
 Vector   21  Occ=0.000000D+00  E= 4.519707D-01
              MO Center= -9.0D-10, -9.0D-10, -2.4D-08, r^2= 2.6D+00
  Bfn.         Coefficient        Function           Bfn.         Coefficient        Function  
  ----     -------------------  ------------         ----     -------------------  ------------
     9     1.180065   0.000000  1 O  pz                23     1.180065   0.000000  2 O  pz         
    17    -1.134507  -0.000000  2 O  s                  3     1.134507   0.000000  1 O  s          
     6    -0.644477  -0.000000  1 O  pz                20    -0.644477  -0.000000  2 O  pz         
    26    -0.141726  -0.000000  2 O  d  0              12     0.141726   0.000000  1 O  d  0       
    16    -0.114758  -0.000000  2 O  s                  2     0.114758   0.000000  1 O  s          
 
 Vector   22  Occ=0.000000D+00  E= 4.748787D-01
              MO Center=  2.9D-11,  2.9D-11, -4.0D-11, r^2= 6.9D-03
  Bfn.         Coefficient        Function           Bfn.         Coefficient        Function  
  ----     -------------------  ------------         ----     -------------------  ------------
    37     0.785875   0.785836  1 O  pz                51     0.785875   0.785836  2 O  pz         
    45    -0.752386  -0.752349  2 O  s                 31     0.752386   0.752349  1 O  s          
    34    -0.474549  -0.474526  1 O  pz                48    -0.474549  -0.474526  2 O  pz         
    54    -0.103786  -0.103781  2 O  d  0              40     0.103786   0.103781  1 O  d  0       
    44    -0.096540  -0.096536  2 O  s                 30     0.096540   0.096536  1 O  s          
 
 Vector   23  Occ=0.000000D+00  E= 4.824142D-01
              MO Center=  4.4D-09,  4.4D-09, -6.0D-09, r^2= 1.0D+00
  Bfn.         Coefficient        Function           Bfn.         Coefficient        Function  
  ----     -------------------  ------------         ----     -------------------  ------------
     8    -0.315264   0.315270  1 O  py                 7    -0.315270  -0.315265  1 O  px         
    22    -0.315264   0.315270  2 O  py                21    -0.315270  -0.315265  2 O  px         
     5     0.280590  -0.280595  1 O  py                 4     0.280595   0.280590  1 O  px         
    19     0.280590  -0.280595  2 O  py                18     0.280595   0.280590  2 O  px         
    37    -0.062937  -0.062936  1 O  pz                51    -0.062937  -0.062936  2 O  pz         
 
 Vector   24  Occ=0.000000D+00  E= 4.830498D-01
              MO Center=  4.4D-09,  4.4D-09, -6.1D-09, r^2= 1.1D+00
  Bfn.         Coefficient        Function           Bfn.         Coefficient        Function  
  ----     -------------------  ------------         ----     -------------------  ------------
     7    -0.316249   0.316244  1 O  px                 8    -0.316244  -0.316249  1 O  py         
    21    -0.316249   0.316244  2 O  px                22    -0.316244  -0.316249  2 O  py         
     4     0.281694  -0.281689  1 O  px                 5     0.281689   0.281694  1 O  py         
    18     0.281694  -0.281689  2 O  px                19     0.281689   0.281694  2 O  py         
    27     0.024099  -0.024099  2 O  d  1              25    -0.024099  -0.024099  2 O  d -1       
 
 Vector   25  Occ=0.000000D+00  E= 5.242783D-01
              MO Center= -7.6D-14, -7.6D-14, -6.5D-12, r^2= 1.7D-04
  Bfn.         Coefficient        Function           Bfn.         Coefficient        Function  
  ----     -------------------  ------------         ----     -------------------  ------------
    36     0.000000  -0.440303  1 O  py                35    -0.440303   0.000000  1 O  px         
    50     0.000000  -0.440303  2 O  py                49    -0.440303   0.000000  2 O  px         
    33    -0.000000   0.416530  1 O  py                32     0.416530  -0.000000  1 O  px         
    47    -0.000000   0.416530  2 O  py                46     0.416530  -0.000000  2 O  px         
    39    -0.000000   0.039941  1 O  d -1              41    -0.039941   0.000000  1 O  d  1       
 
 Vector   26  Occ=0.000000D+00  E= 5.250196D-01
              MO Center=  5.6D-18,  5.6D-18, -2.0D-19, r^2= 7.9D-12
  Bfn.         Coefficient        Function           Bfn.         Coefficient        Function  
  ----     -------------------  ------------         ----     -------------------  ------------
    35    -0.000004  -0.440209  1 O  px                36    -0.440209   0.000004  1 O  py         
    49    -0.000004  -0.440209  2 O  px                50    -0.440209   0.000004  2 O  py         
    32     0.000004   0.416796  1 O  px                33     0.416796  -0.000004  1 O  py         
    46     0.000004   0.416796  2 O  px                47     0.416796  -0.000004  2 O  py         
    41    -0.000000  -0.040061  1 O  d  1              39     0.040061  -0.000000  1 O  d -1       
 
 Vector   27  Occ=0.000000D+00  E= 5.442182D-01
              MO Center=  1.9D-10,  1.9D-10,  1.9D-08, r^2= 2.8D+00
  Bfn.         Coefficient        Function           Bfn.         Coefficient        Function  
  ----     -------------------  ------------         ----     -------------------  ------------
    23     0.935797  -0.000000  2 O  pz                 9    -0.935797  -0.000000  1 O  pz         
    20    -0.446678  -0.000000  2 O  pz                 6     0.446678   0.000000  1 O  pz         
     3     0.313516  -0.000000  1 O  s                 17     0.313516   0.000000  2 O  s          
    12     0.066010  -0.000000  1 O  d  0              26     0.066010   0.000000  2 O  d  0       
 
 Vector   28  Occ=0.000000D+00  E= 5.520484D-01
              MO Center=  5.9D-14,  5.9D-14, -2.0D-13, r^2= 1.5D-04
  Bfn.         Coefficient        Function           Bfn.         Coefficient        Function  
  ----     -------------------  ------------         ----     -------------------  ------------
    51    -0.660958  -0.660986  2 O  pz                37     0.660958   0.660985  1 O  pz         
    48     0.319862   0.319876  2 O  pz                34    -0.319862  -0.319875  1 O  pz         
    31    -0.205497  -0.205505  1 O  s                 45    -0.205497  -0.205505  2 O  s          
    40    -0.046433  -0.046435  1 O  d  0              54    -0.046433  -0.046435  2 O  d  0       
 
 Vector   29  Occ=0.000000D+00  E= 5.864249D-01
              MO Center=  6.2D-10,  6.2D-10,  6.0D-09, r^2= 1.3D+00
  Bfn.         Coefficient        Function           Bfn.         Coefficient        Function  
  ----     -------------------  ------------         ----     -------------------  ------------
    21     0.610738   0.610689  2 O  px                22     0.610691  -0.610737  2 O  py         
     7    -0.610738  -0.610689  1 O  px                 8    -0.610691   0.610737  1 O  py         
    18    -0.267946  -0.267925  2 O  px                19    -0.267925   0.267946  2 O  py         
     4     0.267946   0.267925  1 O  px                 5     0.267925  -0.267946  1 O  py         
 
 Vector   30  Occ=0.000000D+00  E= 5.870349D-01
              MO Center=  6.2D-10,  6.2D-10,  6.0D-09, r^2= 1.3D+00
  Bfn.         Coefficient        Function           Bfn.         Coefficient        Function  
  ----     -------------------  ------------         ----     -------------------  ------------
    22     0.610588   0.610638  2 O  py                21     0.610636  -0.610590  2 O  px         
     8    -0.610588  -0.610638  1 O  py                 7    -0.610636   0.610590  1 O  px         
    19    -0.268231  -0.268252  2 O  py                18    -0.268252   0.268231  2 O  px         
     5     0.268231   0.268252  1 O  py                 4     0.268252  -0.268231  1 O  px         
 
 Vector   31  Occ=0.000000D+00  E= 6.326217D-01
              MO Center= -2.7D-15, -2.7D-15,  3.1D-13, r^2= 5.3D-05
  Bfn.         Coefficient        Function           Bfn.         Coefficient        Function  
  ----     -------------------  ------------         ----     -------------------  ------------
    49    -0.846553  -0.000000  2 O  px                50    -0.000000  -0.846553  2 O  py         
    35     0.846553   0.000000  1 O  px                36     0.000000   0.846553  1 O  py         
    46     0.410128   0.000000  2 O  px                47     0.000000   0.410128  2 O  py         
    32    -0.410128  -0.000000  1 O  px                33    -0.000000  -0.410128  1 O  py         
 
 Vector   32  Occ=0.000000D+00  E= 6.333303D-01
              MO Center= -1.4D-19, -1.4D-19,  2.0D-20, r^2= 6.5D-13
  Bfn.         Coefficient        Function           Bfn.         Coefficient        Function  
  ----     -------------------  ------------         ----     -------------------  ------------
    50     0.846283  -0.000001  2 O  py                49     0.000001   0.846283  2 O  px         
    36    -0.846283   0.000001  1 O  py                35    -0.000001  -0.846283  1 O  px         
    47    -0.410562   0.000001  2 O  py                46    -0.000000  -0.410562  2 O  px         
    33     0.410562  -0.000001  1 O  py                32     0.000000   0.410562  1 O  px         
 
 Vector   33  Occ=0.000000D+00  E= 8.844167D-01
              MO Center= -8.9D-09, -8.9D-09, -1.0D-09, r^2= 1.4D+00
  Bfn.         Coefficient        Function           Bfn.         Coefficient        Function  
  ----     -------------------  ------------         ----     -------------------  ------------
     2     1.026400  -0.000000  1 O  s                 16     1.026400  -0.000000  2 O  s          
     3     0.911455  -0.000000  1 O  s                 17     0.911455  -0.000000  2 O  s          
    12    -0.149034   0.000000  1 O  d  0              26    -0.149034   0.000000  2 O  d  0       
    15    -0.098764   0.000000  2 O  s                  1    -0.098764   0.000000  1 O  s          
    20    -0.093896  -0.000000  2 O  pz                 6     0.093896   0.000000  1 O  pz         
 
 Vector   34  Occ=0.000000D+00  E= 9.155133D-01
              MO Center=  5.0D-16,  5.0D-16,  1.9D-16, r^2= 8.5D-08
  Bfn.         Coefficient        Function           Bfn.         Coefficient        Function  
  ----     -------------------  ------------         ----     -------------------  ------------
    30    -0.725962  -0.725997  1 O  s                 44    -0.725962  -0.725997  2 O  s          
    31    -0.644385  -0.644416  1 O  s                 45    -0.644385  -0.644416  2 O  s          
    40     0.108272   0.108277  1 O  d  0              54     0.108272   0.108277  2 O  d  0       
    34    -0.075361  -0.075365  1 O  pz                48     0.075361   0.075365  2 O  pz         
    43     0.071055   0.071059  2 O  s                 29     0.071055   0.071059  1 O  s          
 
 Vector   35  Occ=0.000000D+00  E= 1.484830D+00
              MO Center= -3.0D-12, -3.0D-12, -4.6D-10, r^2= 4.7D-01
  Bfn.         Coefficient        Function           Bfn.         Coefficient        Function  
  ----     -------------------  ------------         ----     -------------------  ------------
    11     0.302597  -0.302799  1 O  d -1              13    -0.302799  -0.302598  1 O  d  1       
    25    -0.302597   0.302799  2 O  d -1              27     0.302799   0.302598  2 O  d  1       
    19    -0.086569   0.086627  2 O  py                18    -0.086627  -0.086569  2 O  px         
     5    -0.086569   0.086627  1 O  py                 4    -0.086627  -0.086569  1 O  px         
 
 Vector   36  Occ=0.000000D+00  E= 1.484948D+00
              MO Center= -3.0D-12, -3.0D-12, -4.6D-10, r^2= 4.7D-01
  Bfn.         Coefficient        Function           Bfn.         Coefficient        Function  
  ----     -------------------  ------------         ----     -------------------  ------------
    13    -0.302791   0.302592  1 O  d  1              11     0.302592   0.302791  1 O  d -1       
    27     0.302791  -0.302592  2 O  d  1              25    -0.302592  -0.302791  2 O  d -1       
    18    -0.086714   0.086657  2 O  px                19    -0.086657  -0.086714  2 O  py         
     4    -0.086714   0.086657  1 O  px                 5    -0.086657  -0.086714  1 O  py         
 
 Vector   37  Occ=0.000000D+00  E= 1.499118D+00
              MO Center=  1.0D-11,  1.0D-11, -1.5D-09, r^2= 4.7D-01
  Bfn.         Coefficient        Function           Bfn.         Coefficient        Function  
  ----     -------------------  ------------         ----     -------------------  ------------
    14    -0.000002   0.470812  1 O  d  2              28    -0.000002   0.470812  2 O  d  2       
    10     0.470807   0.000002  1 O  d -2              24     0.470807   0.000002  2 O  d -2       
 
 Vector   38  Occ=0.000000D+00  E= 1.499221D+00
              MO Center=  1.0D-11,  1.0D-11, -1.5D-09, r^2= 4.7D-01
  Bfn.         Coefficient        Function           Bfn.         Coefficient        Function  
  ----     -------------------  ------------         ----     -------------------  ------------
    10     0.470812  -0.000002  1 O  d -2              24     0.470812  -0.000002  2 O  d -2       
    14    -0.000002  -0.470807  1 O  d  2              28    -0.000002  -0.470807  2 O  d  2       
 
 Vector   39  Occ=0.000000D+00  E= 1.518710D+00
              MO Center= -6.4D-17, -6.4D-17,  7.1D-16, r^2= 9.2D-07
  Bfn.         Coefficient        Function           Bfn.         Coefficient        Function  
  ----     -------------------  ------------         ----     -------------------  ------------
    39     0.000000  -0.427221  1 O  d -1              41     0.427221  -0.000000  1 O  d  1       
    53    -0.000000   0.427221  2 O  d -1              55    -0.427221   0.000000  2 O  d  1       
    47    -0.000000   0.133711  2 O  py                46     0.133711  -0.000000  2 O  px         
    33    -0.000000   0.133711  1 O  py                32     0.133711  -0.000000  1 O  px         
 
 Vector   40  Occ=0.000000D+00  E= 1.518843D+00
              MO Center=  2.7D-19,  2.7D-19,  8.3D-16, r^2= 9.9D-09
  Bfn.         Coefficient        Function           Bfn.         Coefficient        Function  
  ----     -------------------  ------------         ----     -------------------  ------------
    41     0.000126   0.427209  1 O  d  1              39    -0.427209   0.000126  1 O  d -1       
    55    -0.000126  -0.427209  2 O  d  1              53     0.427209  -0.000126  2 O  d -1       
    46     0.000040   0.133849  2 O  px                47     0.133849  -0.000040  2 O  py         
    32     0.000040   0.133849  1 O  px                33     0.133849  -0.000040  1 O  py         
 
 Vector   41  Occ=0.000000D+00  E= 1.554172D+00
              MO Center=  1.4D-18,  1.4D-18,  1.7D-16, r^2= 4.8D-09
  Bfn.         Coefficient        Function           Bfn.         Coefficient        Function  
  ----     -------------------  ------------         ----     -------------------  ------------
    38     0.333803   0.332020  1 O  d -2              52     0.333803   0.332020  2 O  d -2       
    42     0.332020  -0.333803  1 O  d  2              56     0.332020  -0.333803  2 O  d  2       
 
 Vector   42  Occ=0.000000D+00  E= 1.554276D+00
              MO Center= -3.4D-26, -3.3D-26,  5.0D-24, r^2= 5.1D-22
  Bfn.         Coefficient        Function           Bfn.         Coefficient        Function  
  ----     -------------------  ------------         ----     -------------------  ------------
    42     0.334288  -0.331531  1 O  d  2              56     0.334288  -0.331531  2 O  d  2       
    38    -0.331531  -0.334288  1 O  d -2              52    -0.331531  -0.334288  2 O  d -2       
 
 Vector   43  Occ=0.000000D+00  E= 1.595427D+00
              MO Center= -1.5D-10, -1.5D-10,  3.3D-09, r^2= 1.8D+00
  Bfn.         Coefficient        Function           Bfn.         Coefficient        Function  
  ----     -------------------  ------------         ----     -------------------  ------------
    17     3.249170  -0.000000  2 O  s                  3    -3.249170   0.000000  1 O  s          
    16     1.383712  -0.000000  2 O  s                  2    -1.383712   0.000000  1 O  s          
    23    -1.257671   0.000000  2 O  pz                 9    -1.257671   0.000000  1 O  pz         
    20    -0.109058   0.000000  2 O  pz                 6    -0.109058   0.000000  1 O  pz         
    26    -0.076360  -0.000000  2 O  d  0              12     0.076360   0.000000  1 O  d  0       
 
 Vector   44  Occ=0.000000D+00  E= 1.637797D+00
              MO Center= -3.6D-19, -3.7D-19, -7.7D-17, r^2= 3.6D-08
  Bfn.         Coefficient        Function           Bfn.         Coefficient        Function  
  ----     -------------------  ------------         ----     -------------------  ------------
    45    -2.287317  -2.286493  2 O  s                 31     2.287317   2.286493  1 O  s          
    44    -0.981957  -0.981603  2 O  s                 30     0.981957   0.981603  1 O  s          
    51     0.880518   0.880201  2 O  pz                37     0.880518   0.880201  1 O  pz         
    48     0.076480   0.076453  2 O  pz                34     0.076480   0.076453  1 O  pz         
    54     0.052994   0.052975  2 O  d  0              40    -0.052994  -0.052975  1 O  d  0       
 
 Vector   45  Occ=0.000000D+00  E= 1.892024D+00
              MO Center=  3.2D-12,  3.3D-12,  1.5D-09, r^2= 5.1D-01
  Bfn.         Coefficient        Function           Bfn.         Coefficient        Function  
  ----     -------------------  ------------         ----     -------------------  ------------
    28    -0.000004   0.535395  2 O  d  2              14     0.000004  -0.535395  1 O  d  2       
    24     0.535392   0.000004  2 O  d -2              10    -0.535392  -0.000004  1 O  d -2       
 
 Vector   46  Occ=0.000000D+00  E= 1.892140D+00
              MO Center=  3.2D-12,  3.3D-12,  1.5D-09, r^2= 5.1D-01
  Bfn.         Coefficient        Function           Bfn.         Coefficient        Function  
  ----     -------------------  ------------         ----     -------------------  ------------
    24    -0.535395   0.000004  2 O  d -2              10     0.535395  -0.000004  1 O  d -2       
    28     0.000004   0.535392  2 O  d  2              14    -0.000004  -0.535392  1 O  d  2       
 
 Vector   47  Occ=0.000000D+00  E= 1.963150D+00
              MO Center=  1.4D-19,  1.4D-19, -6.7D-17, r^2= 1.5D-08
  Bfn.         Coefficient        Function           Bfn.         Coefficient        Function  
  ----     -------------------  ------------         ----     -------------------  ------------
    56    -0.378532   0.378629  2 O  d  2              42     0.378532  -0.378629  1 O  d  2       
    52    -0.378629  -0.378532  2 O  d -2              38     0.378629   0.378532  1 O  d -2       
 
 Vector   48  Occ=0.000000D+00  E= 1.963267D+00
              MO Center= -6.6D-27, -6.6D-27, -4.5D-25, r^2= 2.0D-21
  Bfn.         Coefficient        Function           Bfn.         Coefficient        Function  
  ----     -------------------  ------------         ----     -------------------  ------------
    52    -0.378732  -0.378430  2 O  d -2              38     0.378732   0.378430  1 O  d -2       
    56     0.378429  -0.378731  2 O  d  2              42    -0.378429   0.378731  1 O  d  2       
 
 Vector   49  Occ=0.000000D+00  E= 2.350351D+00
              MO Center= -2.6D-10, -2.6D-10, -1.5D-08, r^2= 1.1D+00
  Bfn.         Coefficient        Function           Bfn.         Coefficient        Function  
  ----     -------------------  ------------         ----     -------------------  ------------
    12     0.734573  -0.000000  1 O  d  0              26     0.734572  -0.000000  2 O  d  0       
    16     0.608755  -0.000000  2 O  s                  2     0.608755  -0.000000  1 O  s          
     9     0.420964  -0.000000  1 O  pz                23    -0.420964   0.000000  2 O  pz         
    20     0.344555  -0.000000  2 O  pz                 6    -0.344555   0.000000  1 O  pz         
     3     0.241751  -0.000000  1 O  s                 17     0.241751   0.000000  2 O  s          
 
 Vector   50  Occ=0.000000D+00  E= 2.388789D+00
              MO Center=  6.8D-16,  6.8D-16, -3.2D-17, r^2= 1.1D-07
  Bfn.         Coefficient        Function           Bfn.         Coefficient        Function  
  ----     -------------------  ------------         ----     -------------------  ------------
    40     0.518744   0.518739  1 O  d  0              54     0.518744   0.518739  2 O  d  0       
    44     0.439664   0.439660  2 O  s                 30     0.439664   0.439660  1 O  s          
    37     0.294776   0.294774  1 O  pz                51    -0.294776  -0.294774  2 O  pz         
    48     0.241202   0.241199  2 O  pz                34    -0.241202  -0.241199  1 O  pz         
    31     0.173191   0.173189  1 O  s                 45     0.173191   0.173189  2 O  s          
 
 Vector   51  Occ=0.000000D+00  E= 2.434477D+00
              MO Center= -2.2D-10, -2.2D-10,  1.6D-08, r^2= 1.6D+00
  Bfn.         Coefficient        Function           Bfn.         Coefficient        Function  
  ----     -------------------  ------------         ----     -------------------  ------------
    17     2.291975  -0.000000  2 O  s                  3    -2.291975   0.000000  1 O  s          
    26     1.072801  -0.000000  2 O  d  0              12    -1.072801   0.000000  1 O  d  0       
    23    -0.979291   0.000000  2 O  pz                 9    -0.979291   0.000000  1 O  pz         
     6    -0.748030   0.000000  1 O  pz                20    -0.748030   0.000000  2 O  pz         
    16     0.247115  -0.000000  2 O  s                  2    -0.247115   0.000000  1 O  s          
 
 Vector   52  Occ=0.000000D+00  E= 2.460045D+00
              MO Center= -2.9D-16, -2.9D-16,  1.7D-15, r^2= 7.8D-08
  Bfn.         Coefficient        Function           Bfn.         Coefficient        Function  
  ----     -------------------  ------------         ----     -------------------  ------------
    45     1.609700   1.609687  2 O  s                 31    -1.609700  -1.609687  1 O  s          
    54     0.758412   0.758406  2 O  d  0              40    -0.758412  -0.758406  1 O  d  0       
    51    -0.686687  -0.686682  2 O  pz                37    -0.686687  -0.686682  1 O  pz         
    34    -0.530938  -0.530934  1 O  pz                48    -0.530938  -0.530934  2 O  pz         
    44     0.176124   0.176122  2 O  s                 30    -0.176124  -0.176122  1 O  s          
 
 Vector   53  Occ=0.000000D+00  E= 2.485020D+00
              MO Center=  1.2D-10,  1.2D-10,  5.6D-10, r^2= 6.3D-01
  Bfn.         Coefficient        Function           Bfn.         Coefficient        Function  
  ----     -------------------  ------------         ----     -------------------  ------------
    27     0.503885   0.503596  2 O  d  1              25    -0.503596   0.503885  2 O  d -1       
    13     0.503885   0.503596  1 O  d  1              11    -0.503596   0.503885  1 O  d -1       
     7    -0.210159  -0.210038  1 O  px                 8    -0.210039   0.210159  1 O  py         
    21     0.210159   0.210038  2 O  px                22     0.210039  -0.210159  2 O  py         
     4    -0.061792  -0.061757  1 O  px                 5    -0.061757   0.061792  1 O  py         
 
 Vector   54  Occ=0.000000D+00  E= 2.485123D+00
              MO Center=  1.2D-10,  1.2D-10,  5.6D-10, r^2= 6.3D-01
  Bfn.         Coefficient        Function           Bfn.         Coefficient        Function  
  ----     -------------------  ------------         ----     -------------------  ------------
    25     0.503595   0.503885  2 O  d -1              27    -0.503884   0.503595  2 O  d  1       
    11     0.503595   0.503885  1 O  d -1              13    -0.503884   0.503595  1 O  d  1       
     8     0.210003   0.210124  1 O  py                 7     0.210124  -0.210003  1 O  px         
    22    -0.210003  -0.210124  2 O  py                21    -0.210124   0.210003  2 O  px         
     5     0.061798   0.061834  1 O  py                 4     0.061834  -0.061798  1 O  px         
 
 Vector   55  Occ=0.000000D+00  E= 2.527709D+00
              MO Center= -2.0D-17, -2.0D-17,  1.0D-15, r^2= 7.2D-08
  Bfn.         Coefficient        Function           Bfn.         Coefficient        Function  
  ----     -------------------  ------------         ----     -------------------  ------------
    55     0.712323   0.000000  2 O  d  1              53    -0.000000  -0.712323  2 O  d -1       
    41     0.712323   0.000000  1 O  d  1              39    -0.000000  -0.712323  1 O  d -1       
    35    -0.292897  -0.000000  1 O  px                36    -0.000000  -0.292897  1 O  py         
    49     0.292897   0.000000  2 O  px                50     0.000000   0.292897  2 O  py         
    32    -0.090618  -0.000000  1 O  px                33    -0.000000  -0.090618  1 O  py         
 
 Vector   56  Occ=0.000000D+00  E= 2.527813D+00
              MO Center= -4.3D-19, -4.3D-19,  3.4D-18, r^2= 1.4D-09
  Bfn.         Coefficient        Function           Bfn.         Coefficient        Function  
  ----     -------------------  ------------         ----     -------------------  ------------
    53    -0.712321   0.000103  2 O  d -1              55     0.000102   0.712321  2 O  d  1       
    39    -0.712321   0.000103  1 O  d -1              41     0.000102   0.712321  1 O  d  1       
    36    -0.292845   0.000042  1 O  py                35    -0.000042  -0.292845  1 O  px         
    50     0.292845  -0.000042  2 O  py                49     0.000042   0.292845  2 O  px         
    33    -0.090679   0.000013  1 O  py                32    -0.000013  -0.090679  1 O  px         
 

   alpha - beta orbital overlaps 
   ----------------------------- 


   alpha      1      2      3      4      5      6      7      8      9     10
    beta      1      2      3      4      5      6      4      5      6      1
 overlap   1.060  0.311  0.296  0.275  0.275  0.341  0.085  0.085  0.085  0.000


   alpha     11     12     13     14     15     16     17     18     19     20
    beta     19      6     18      4     15     16     17     18     19     20
 overlap   0.016  0.023  0.016  0.000  1.060  0.311  0.296  0.275  0.275  0.341


   alpha     21     22     23     24     25     26     27     28
    beta     18     19     20     15      5     20      4     19
 overlap   0.085  0.085  0.085  0.000  0.016  0.023  0.016  0.000

     --------------------------
     Expectation value of S2:  
     --------------------------
      <S2> =      2.0083 (Exact =     2.0000)
 
 
     Multipole analysis of the density
     ---------------------------------
 
     L   x y z        total         alpha         beta         nuclear
     -   - - -        -----         -----         ----         -------
     0   0 0 0     -0.000000     -8.999996     -7.000004     16.000000
 
     1   1 0 0     -0.000000     -0.000000     -0.000000      0.000000
     1   0 1 0     -0.000000     -0.000000     -0.000000      0.000000
     1   0 0 1      0.000000      0.000000      0.000000      0.000000
 
     2   2 0 0     -7.455452     -4.310438     -3.145014      0.000000
     2   1 1 0      0.000000      0.000000      0.000000      0.000000
     2   1 0 1     -0.000000     -0.000000     -0.000000      0.000000
     2   0 2 0     -7.455452     -4.310438     -3.145014      0.000000
     2   0 1 1     -0.000000     -0.000000     -0.000000      0.000000
     2   0 0 2     -7.824548    -16.110996    -12.282882     20.569330
 

 Parallel integral file used       3 records with       0 large values

 
            General Information
            -------------------
          SCF calculation type: DFT
          Wavefunction type:  spin polarized.
          No. of atoms     :     2
          No. of electrons :    16
           Alpha electrons :     9
            Beta electrons :     7
          Charge           :     0
          Spin multiplicity:     3
          Use of symmetry is: off; symmetry adaption is: off
          Maximum number of iterations: 100
          AO basis - number of functions:    28
                     number of shells:    12
          Convergence on energy requested:  1.00D-06
          Convergence on density requested:  1.00D-05
          Convergence on gradient requested:  5.00D-04
 
              XC Information
              --------------
                         B3LYP Method XC Potential
                     Hartree-Fock (Exact) Exchange  0.200          
                        Slater Exchange Functional  0.800 local    
                    Becke 1988 Exchange Functional  0.720 non-local
              Lee-Yang-Parr Correlation Functional  0.810          
                  VWN I RPA Correlation Functional  0.190 local    
 
             Grid Information
             ----------------
          Grid used for XC integration:  xfine     
          Radial quadrature: Mura-Knowles        
          Angular quadrature: Lebedev. 
          Tag              B.-S. Rad. Rad. Pts. Rad. Cut. Ang. Pts.
          ---              ---------- --------- --------- ---------
          O                   0.60      100           6.0      1454
          Grid pruning is: on 
          Number of quadrature shells:   200
          Spatial weights used:  Erf1
 
          Convergence Information
          -----------------------
          Convergence aids based upon iterative change in 
          total energy or number of iterations. 
          Levelshifting, if invoked, occurs when the 
          HOMO/LUMO gap drops below (HL_TOL):  1.00D-02
          DIIS, if invoked, will attempt to extrapolate 
          using up to (NFOCK): 10 stored Fock matrices.

                    Damping( 0%)  Levelshifting(0.5)       DIIS
                  --------------- ------------------- ---------------
          dE  on:    start            ASAP                start   
          dE off:    2 iters        100 iters           100 iters 

 
      Screening Tolerance Information
      -------------------------------
          Density screening/tol_rho:  1.00D-10
          AO Gaussian exp screening on grid/accAOfunc:  14
          CD Gaussian exp screening on grid/accCDfunc:  20
          XC Gaussian exp screening on grid/accXCfunc:  20
          Schwarz screening/accCoul:  1.00D-10

 
 
                            NWChem DFT Gradient Module
                            --------------------------
 
 

  charge          =   0.00
  wavefunction    = open shell


 Read molecular orbitals from ./o2_zora_so.movecs


 Read molecular orbitals from ./o2_zora_so.movecs


 Read molecular orbitals from ./o2_zora_so.movecs



                         sodft ENERGY GRADIENTS

    atom               coordinates                        gradient
                 x          y          z           x          y          z
   1 O       0.000000   0.000000  -1.133836    0.000000   0.000000   0.035823
   2 O       0.000000   0.000000   1.133836   -0.000000  -0.000000  -0.035823
 
                 ----------------------------------------
                 |  Time  |  1-e(secs)   |  2-e(secs)   |
                 ----------------------------------------
                 |  CPU   |       0.00   |       0.02   |
                 ----------------------------------------
                 |  WALL  |       0.00   |       0.03   |
                 ----------------------------------------

@ Step       Energy      Delta E   Gmax     Grms     Xrms     Xmax   Walltime
@ ---- ---------------- -------- -------- -------- -------- -------- --------
@    0    -150.50696231  0.0D+00  0.03582  0.02068  0.00000  0.00000      3.0
                                                                    

 
                                 NWChem DFT Module
                                 -----------------
 
 


 Summary of "ao basis" -> "ao basis" (spherical)
 ------------------------------------------------------------------------------
       Tag                 Description            Shells   Functions and Types
 ---------------- ------------------------------  ------  ---------------------
 O                     DZVP (DFT Orbital)            6       14   3s2p1d


                                  Spin-Orbit DFT
                                  --------------
 
 
  Caching 1-el integrals 
 
            General Information
            -------------------
          SCF calculation type: DFT
          Wavefunction type:  spin polarized.
          No. of atoms     :     2
          No. of electrons :    16
           Alpha electrons :     9
            Beta electrons :     7
          Charge           :     0
          Spin multiplicity:     3
          Use of symmetry is: off; symmetry adaption is: off
          Maximum number of iterations: 100
          AO basis - number of functions:    28
                     number of shells:    12
          Convergence on energy requested:  1.00D-06
          Convergence on density requested:  1.00D-05
          Convergence on gradient requested:  5.00D-04
 
              XC Information
              --------------
                         B3LYP Method XC Potential
                     Hartree-Fock (Exact) Exchange  0.200          
                        Slater Exchange Functional  0.800 local    
                    Becke 1988 Exchange Functional  0.720 non-local
              Lee-Yang-Parr Correlation Functional  0.810          
                  VWN I RPA Correlation Functional  0.190 local    
 
             Grid Information
             ----------------
          Grid used for XC integration:  xfine     
          Radial quadrature: Mura-Knowles        
          Angular quadrature: Lebedev. 
          Tag              B.-S. Rad. Rad. Pts. Rad. Cut. Ang. Pts.
          ---              ---------- --------- --------- ---------
          O                   0.60      100           6.0      1454
          Grid pruning is: on 
          Number of quadrature shells:   200
          Spatial weights used:  Erf1
 
          Convergence Information
          -----------------------
          Convergence aids based upon iterative change in 
          total energy or number of iterations. 
          Levelshifting, if invoked, occurs when the 
          HOMO/LUMO gap drops below (HL_TOL):  1.00D-02
          DIIS, if invoked, will attempt to extrapolate 
          using up to (NFOCK): 10 stored Fock matrices.

                    Damping( 0%)  Levelshifting(0.5)       DIIS
                  --------------- ------------------- ---------------
          dE  on:    start            ASAP                start   
          dE off:    2 iters        100 iters           100 iters 

 
      Screening Tolerance Information
      -------------------------------
          Density screening/tol_rho:  1.00D-10
          AO Gaussian exp screening on grid/accAOfunc:  14
          CD Gaussian exp screening on grid/accCDfunc:  20
          XC Gaussian exp screening on grid/accXCfunc:  20
          Schwarz screening/accCoul:  1.00D-10

 Performing spin-orbit DFT (SO-DFT) calculations
 -----------------------------------------------
 
          Performing ZORA calculations
          ----------------------------
 
 
      Superposition of Atomic Density Guess
      -------------------------------------
 
 Sum of atomic energies:        -149.52590251

 Read atomic ZORA corrections from ./o2_zora_so.zora_so

 Forcing recalculation of ZORA corrections
       Generating atomic ZORA corrections
       ----------------------------------
 

 Grid_pts file          = ./o2_zora_so.gridpts.0
 Record size in doubles =  12289        No. of grid_pts per rec  =   3070
 Max. records in memory =     36        Max. recs in file   =    305201


 Wrote atomic ZORA corrections to ./o2_zora_so.zora_so


 Read molecular orbitals from ./o2_zora_so.movecs

   Time prior to 1st pass:      2.3

 #quartets = 3.080D+03 #integrals = 2.185D+04 #direct =  0.0% #cached =100.0%


 Integral file          = ./o2_zora_so.aoints.0
 Record size in doubles =  65536        No. of integs per rec  =  43688
 Max. records in memory =      2        Max. records in file   =  57227
 No. of bits per label  =      8        No. of bits per value  =     64


File balance: exchanges=     0  moved=     0  time=   0.0


           Memory utilization after 1st SCF pass: 
           Heap Space remaining (MW):       12.53            12531950
          Stack Space remaining (MW):       13.10            13099988

   convergence    iter        energy       DeltaE   RMS-Dens  Diis-err    time
 ---------------- ----- ----------------- --------- --------- ---------  ------
 d= 0,ls=0.0,diis     1   -150.5055737170 -1.78D+02  1.51D-03  3.76D-03     2.4
                                                     1.38D-03  3.76D-03
 d= 0,ls=0.0,diis     2   -150.5069593511 -1.39D-03  5.39D-04  1.73D-04     2.5
                                                     2.65D-04  1.73D-04
 d= 0,ls=0.0,diis     3   -150.5069839039 -2.46D-05  1.67D-04  8.64D-05     2.7
                                                     1.36D-04  8.64D-05
 d= 0,ls=0.0,diis     4   -150.5070037418 -1.98D-05  1.04D-05  1.61D-07     2.8
                                                     5.74D-06  1.61D-07
 d= 0,ls=0.0,diis     5   -150.5070037888 -4.71D-08  2.56D-06  1.22D-08     2.9
                                                     1.87D-06  1.22D-08
  zoraso: enough mem for repl


      Total SO-DFT energy =     -150.507003792299
      One electron energy =     -260.408224055742
           Coulomb energy =       99.636458778559
    Exchange-Corr. energy =      -16.962323338253
 Nuclear repulsion energy =       27.227084823136

       Scaling correction =        0.059676736794

 Numeric. integr. density =       15.999999962563

     Total iterative time =      0.6s


 
                       DFT Final Molecular Orbital Analysis
                       ------------------------------------
 
 Vector    1  Occ=1.000000D+00  E=-1.932575D+01
              MO Center= -3.6D-14, -3.6D-14,  1.5D-03, r^2= 4.0D-01
  Bfn.         Coefficient        Function           Bfn.         Coefficient        Function  
  ----     -------------------  ------------         ----     -------------------  ------------
    15     0.706868   0.000000  2 O  s                  1     0.705220   0.000000  1 O  s          
 
 Vector    2  Occ=1.000000D+00  E=-1.932557D+01
              MO Center=  1.5D-13,  1.5D-13, -1.5D-03, r^2= 4.0D-01
  Bfn.         Coefficient        Function           Bfn.         Coefficient        Function  
  ----     -------------------  ------------         ----     -------------------  ------------
     1    -0.706862   0.000000  1 O  s                 15     0.705213   0.000000  2 O  s          
 
 Vector    3  Occ=1.000000D+00  E=-1.929413D+01
              MO Center=  2.1D-23,  2.3D-23,  1.8D-17, r^2= 2.6D-14
  Bfn.         Coefficient        Function           Bfn.         Coefficient        Function  
  ----     -------------------  ------------         ----     -------------------  ------------
    43     0.499989   0.499516  2 O  s                 29     0.499322   0.498848  1 O  s          
 
 Vector    4  Occ=1.000000D+00  E=-1.929383D+01
              MO Center= -1.3D-23, -2.1D-23, -1.8D-17, r^2= 2.5D-14
  Bfn.         Coefficient        Function           Bfn.         Coefficient        Function  
  ----     -------------------  ------------         ----     -------------------  ------------
    29     0.499989   0.499518  1 O  s                 43    -0.499322  -0.498851  2 O  s          
 
 Vector    5  Occ=1.000000D+00  E=-1.291795D+00
              MO Center= -1.4D-11, -1.4D-11,  1.8D-07, r^2= 5.0D-01
  Bfn.         Coefficient        Function           Bfn.         Coefficient        Function  
  ----     -------------------  ------------         ----     -------------------  ------------
    16     0.373207  -0.000000  2 O  s                  2     0.373207  -0.000000  1 O  s          
    17    -0.239671   0.000000  2 O  s                  3    -0.239671   0.000000  1 O  s          
    20     0.185007   0.000000  2 O  pz                 6    -0.185007  -0.000000  1 O  pz         
    15    -0.167214   0.000000  2 O  s                  1    -0.167214   0.000000  1 O  s          
 
 Vector    6  Occ=1.000000D+00  E=-1.232744D+00
              MO Center= -4.7D-19, -5.0D-19,  1.3D-14, r^2= 3.4D-08
  Bfn.         Coefficient        Function           Bfn.         Coefficient        Function  
  ----     -------------------  ------------         ----     -------------------  ------------
    44    -0.248888  -0.247030  2 O  s                 30    -0.248888  -0.247030  1 O  s          
    45     0.174164   0.172864  2 O  s                 31     0.174164   0.172864  1 O  s          
    48    -0.141170  -0.140116  2 O  pz                34     0.141170   0.140116  1 O  pz         
    43     0.115688   0.114824  2 O  s                 29     0.115688   0.114824  1 O  s          
    54     0.021284   0.021125  2 O  d  0              40     0.021284   0.021125  1 O  d  0       
 
 Vector    7  Occ=1.000000D+00  E=-8.567018D-01
              MO Center= -1.7D-11, -1.7D-11,  1.7D-07, r^2= 1.1D+00
  Bfn.         Coefficient        Function           Bfn.         Coefficient        Function  
  ----     -------------------  ------------         ----     -------------------  ------------
     2    -0.421393   0.000000  1 O  s                 16     0.421393  -0.000000  2 O  s          
     3     0.407002   0.000000  1 O  s                 17    -0.407002  -0.000000  2 O  s          
     1     0.180452   0.000000  1 O  s                 15    -0.180452  -0.000000  2 O  s          
    20    -0.133998   0.000000  2 O  pz                 6    -0.133998   0.000000  1 O  pz         
    23    -0.027767  -0.000000  2 O  pz                 9    -0.027767  -0.000000  1 O  pz         
 
 Vector    8  Occ=1.000000D+00  E=-7.679651D-01
              MO Center=  7.6D-18,  7.6D-18,  3.3D-13, r^2= 2.0D-07
  Bfn.         Coefficient        Function           Bfn.         Coefficient        Function  
  ----     -------------------  ------------         ----     -------------------  ------------
    45    -0.291629  -0.290531  2 O  s                 31     0.291629   0.290531  1 O  s          
    44     0.284874   0.283801  2 O  s                 30    -0.284874  -0.283801  1 O  s          
    29     0.124856   0.124386  1 O  s                 43    -0.124856  -0.124386  2 O  s          
    48    -0.102852  -0.102465  2 O  pz                34    -0.102852  -0.102465  1 O  pz         
    51    -0.030485  -0.030370  2 O  pz                37    -0.030485  -0.030370  1 O  pz         
 
 Vector    9  Occ=1.000000D+00  E=-5.613515D-01
              MO Center= -4.5D-11, -4.5D-11,  2.7D-07, r^2= 4.3D-01
  Bfn.         Coefficient        Function           Bfn.         Coefficient        Function  
  ----     -------------------  ------------         ----     -------------------  ------------
    18     0.271513   0.271617  2 O  px                 4     0.271513   0.271617  1 O  px         
    19     0.271617  -0.271512  2 O  py                 5     0.271617  -0.271512  1 O  py         
    21     0.086106   0.086139  2 O  px                 7     0.086105   0.086139  1 O  px         
    22     0.086139  -0.086105  2 O  py                 8     0.086138  -0.086105  1 O  py         
 
 Vector   10  Occ=1.000000D+00  E=-5.605067D-01
              MO Center= -5.0D-11, -5.0D-11,  2.7D-07, r^2= 4.3D-01
  Bfn.         Coefficient        Function           Bfn.         Coefficient        Function  
  ----     -------------------  ------------         ----     -------------------  ------------
    19     0.271388   0.271282  2 O  py                 5     0.271388   0.271281  1 O  py         
    18     0.271281  -0.271388  2 O  px                 4     0.271281  -0.271388  1 O  px         
    22     0.086387   0.086353  2 O  py                 8     0.086387   0.086353  1 O  py         
    21     0.086353  -0.086387  2 O  px                 7     0.086353  -0.086387  1 O  px         
 
 Vector   11  Occ=1.000000D+00  E=-5.516168D-01
              MO Center=  1.1D-10,  1.1D-10, -2.4D-07, r^2= 1.1D+00
  Bfn.         Coefficient        Function           Bfn.         Coefficient        Function  
  ----     -------------------  ------------         ----     -------------------  ------------
    20     0.532508   0.000000  2 O  pz                 6    -0.532508  -0.000000  1 O  pz         
     3     0.251311   0.000000  1 O  s                 17     0.251310   0.000000  2 O  s          
    23     0.153333   0.000000  2 O  pz                 9    -0.153333  -0.000000  1 O  pz         
     2    -0.121946  -0.000000  1 O  s                 16    -0.121946  -0.000000  2 O  s          
     1     0.061314   0.000000  1 O  s                 15     0.061313   0.000000  2 O  s          
 
 Vector   12  Occ=1.000000D+00  E=-5.123476D-01
              MO Center=  4.0D-18,  3.9D-18, -1.8D-11, r^2= 5.1D-06
  Bfn.         Coefficient        Function           Bfn.         Coefficient        Function  
  ----     -------------------  ------------         ----     -------------------  ------------
    48    -0.369342  -0.368953  2 O  pz                34     0.369342   0.368953  1 O  pz         
    31    -0.190952  -0.190751  1 O  s                 45    -0.190952  -0.190751  2 O  s          
    37     0.115089   0.114967  1 O  pz                51    -0.115089  -0.114967  2 O  pz         
    30     0.086919   0.086827  1 O  s                 44     0.086918   0.086827  2 O  s          
    29    -0.046031  -0.045982  1 O  s                 43    -0.046031  -0.045982  2 O  s          
 
 Vector   13  Occ=1.000000D+00  E=-4.583429D-01
              MO Center=  1.0D-16,  1.0D-16, -2.9D-12, r^2= 9.7D-07
  Bfn.         Coefficient        Function           Bfn.         Coefficient        Function  
  ----     -------------------  ------------         ----     -------------------  ------------
    46    -0.358946   0.000000  2 O  px                32    -0.358946   0.000000  1 O  px         
    47     0.000000  -0.358945  2 O  py                33     0.000000  -0.358945  1 O  py         
    49    -0.146744   0.000000  2 O  px                35    -0.146744   0.000000  1 O  px         
    50     0.000000  -0.146744  2 O  py                36     0.000000  -0.146744  1 O  py         
    41     0.026296  -0.000000  1 O  d  1              55    -0.026296   0.000000  2 O  d  1       
 
 Vector   14  Occ=1.000000D+00  E=-4.576053D-01
              MO Center= -4.5D-19, -4.5D-19,  2.6D-18, r^2= 8.4D-12
  Bfn.         Coefficient        Function           Bfn.         Coefficient        Function  
  ----     -------------------  ------------         ----     -------------------  ------------
    47     0.010045   0.358453  2 O  py                33     0.010045   0.358453  1 O  py         
    46    -0.358452   0.010045  2 O  px                32    -0.358452   0.010045  1 O  px         
    50     0.004121   0.147042  2 O  py                36     0.004121   0.147042  1 O  py         
    49    -0.147042   0.004121  2 O  px                35    -0.147042   0.004121  1 O  px         
    39     0.000737   0.026302  1 O  d -1              53    -0.000737  -0.026302  2 O  d -1       
 
 Vector   15  Occ=1.000000D+00  E=-3.285107D-01
              MO Center=  7.9D-12,  7.9D-12, -2.6D-07, r^2= 4.9D-01
  Bfn.         Coefficient        Function           Bfn.         Coefficient        Function  
  ----     -------------------  ------------         ----     -------------------  ------------
     4    -0.310766  -0.310805  1 O  px                18     0.310765   0.310805  2 O  px         
     5    -0.310804   0.310765  1 O  py                19     0.310804  -0.310765  2 O  py         
     7    -0.150478  -0.150497  1 O  px                21     0.150478   0.150497  2 O  px         
     8    -0.150496   0.150477  1 O  py                22     0.150496  -0.150477  2 O  py         
 
 Vector   16  Occ=1.000000D+00  E=-3.274498D-01
              MO Center=  7.9D-12,  7.9D-12, -2.6D-07, r^2= 4.9D-01
  Bfn.         Coefficient        Function           Bfn.         Coefficient        Function  
  ----     -------------------  ------------         ----     -------------------  ------------
     5    -0.310555  -0.310514  1 O  py                19     0.310555   0.310514  2 O  py         
     4    -0.310514   0.310554  1 O  px                18     0.310513  -0.310554  2 O  px         
     8    -0.151045  -0.151025  1 O  py                22     0.151045   0.151025  2 O  py         
     7    -0.151025   0.151045  1 O  px                21     0.151025  -0.151045  2 O  px         
 
 Vector   17  Occ=0.000000D+00  E=-1.357811D-01
              MO Center= -4.0D-18, -4.7D-18,  2.5D-12, r^2= 8.4D-06
  Bfn.         Coefficient        Function           Bfn.         Coefficient        Function  
  ----     -------------------  ------------         ----     -------------------  ------------
    32     0.410770  -0.000000  1 O  px                46    -0.410770   0.000000  2 O  px         
    33    -0.000000   0.410769  1 O  py                47     0.000000  -0.410769  2 O  py         
    35     0.272860  -0.000000  1 O  px                49    -0.272860   0.000000  2 O  px         
    36    -0.000000   0.272859  1 O  py                50     0.000000  -0.272859  2 O  py         
 
 Vector   18  Occ=0.000000D+00  E=-1.348731D-01
              MO Center=  1.5D-20,  1.5D-20, -5.7D-19, r^2= 8.3D-13
  Bfn.         Coefficient        Function           Bfn.         Coefficient        Function  
  ----     -------------------  ------------         ----     -------------------  ------------
    33    -0.008989  -0.410243  1 O  py                47     0.008989   0.410243  2 O  py         
    32     0.410242  -0.008989  1 O  px                46    -0.410242   0.008989  2 O  px         
    36    -0.005996  -0.273643  1 O  py                50     0.005996   0.273643  2 O  py         
    35     0.273642  -0.005996  1 O  px                49    -0.273642   0.005996  2 O  px         
 
 Vector   19  Occ=0.000000D+00  E= 1.268948D-01
              MO Center=  7.1D-12,  7.1D-12, -9.6D-08, r^2= 1.7D+00
  Bfn.         Coefficient        Function           Bfn.         Coefficient        Function  
  ----     -------------------  ------------         ----     -------------------  ------------
[...]

     Total iterative time =      0.4s



   alpha - beta orbital overlaps 
   ----------------------------- 


   alpha      1      2      3      4      5      6      7      8      9     10
    beta      1      2      3      4      5      6      4      5      6      5
 overlap   1.060  0.313  0.295  0.275  0.275  0.338  0.086  0.086  0.086  0.000


   alpha     11     12     13     14     15     16     17     18     19     20
    beta      5      6      4      4     15     16     17     18     19     20
 overlap   0.015  0.022  0.015  0.000  1.060  0.313  0.295  0.275  0.275  0.338


   alpha     21     22     23     24     25     26     27     28
    beta     18     19     20      5      5     20      4      4
 overlap   0.086  0.086  0.086  0.000  0.015  0.022  0.015  0.000

     --------------------------
     Expectation value of S2:  
     --------------------------
      <S2> =      2.0086 (Exact =     2.0000)
 


                         sodft ENERGY GRADIENTS

    atom               coordinates                        gradient
                 x          y          z           x          y          z
   1 O      -0.000000  -0.000000  -1.154486    0.000009  -0.000001   0.000271
   2 O      -0.001000   0.000000   1.154486   -0.000009   0.000001  -0.000271
 
 atom:   2 xyz: 2(+) wall time:      12.7      date:  Wed Sep 13 19:46:42 2017

 
                                 NWChem DFT Module
                                 -----------------
 
 
 
                                  Spin-Orbit DFT
                                  --------------
 
 
  Caching 1-el integrals 
 Performing spin-orbit DFT (SO-DFT) calculations
 -----------------------------------------------
 
          Performing ZORA calculations
          ----------------------------
 

 Read atomic ZORA corrections from ./o2_zora_so.zora_so

   Time prior to 1st pass:     11.1
  zoraso: enough mem for repl


      Total SO-DFT energy =     -150.507667054905
      One electron energy =     -261.352018081512
           Coulomb energy =      100.108680436957
    Exchange-Corr. energy =      -16.982292282532
 Nuclear repulsion energy =       27.717962872183

       Scaling correction =        0.059672283972

 Numeric. integr. density =       15.999999958060

     Total iterative time =      0.4s



   alpha - beta orbital overlaps 
   ----------------------------- 


   alpha      1      2      3      4      5      6      7      8      9     10
    beta      1      2      3      4      5      6      4      5      6      4
 overlap   1.060  0.313  0.295  0.275  0.275  0.338  0.086  0.086  0.086  0.000


   alpha     11     12     13     14     15     16     17     18     19     20
    beta      5      6      4      5     15     16     17     18     19     20
 overlap   0.015  0.022  0.015  0.000  1.060  0.313  0.295  0.275  0.275  0.338


   alpha     21     22     23     24     25     26     27     28
    beta     18     19     20      4      5     20      4      5
 overlap   0.086  0.086  0.086  0.000  0.015  0.022  0.015  0.000

     --------------------------
     Expectation value of S2:  
     --------------------------
      <S2> =      2.0086 (Exact =     2.0000)
 


                         sodft ENERGY GRADIENTS

    atom               coordinates                        gradient
                 x          y          z           x          y          z
   1 O      -0.000000  -0.000000  -1.154486    0.000001  -0.000009   0.000271
   2 O       0.000000   0.001000   1.154486   -0.000001   0.000009  -0.000271
 
 atom:   2 xyz: 2(-) wall time:      13.3      date:  Wed Sep 13 19:46:42 2017

 
                                 NWChem DFT Module
                                 -----------------
 
 
 
                                  Spin-Orbit DFT
                                  --------------
 
 
  Caching 1-el integrals 
 Performing spin-orbit DFT (SO-DFT) calculations
 -----------------------------------------------
 
          Performing ZORA calculations
          ----------------------------
 

 Read atomic ZORA corrections from ./o2_zora_so.zora_so

   Time prior to 1st pass:     11.6
  zoraso: enough mem for repl


      Total SO-DFT energy =     -150.507667062441
      One electron energy =     -261.352018073117
           Coulomb energy =      100.108680427411
    Exchange-Corr. energy =      -16.982292288918
 Nuclear repulsion energy =       27.717962872183

       Scaling correction =        0.059672283993

 Numeric. integr. density =       16.000000000864

     Total iterative time =      0.4s



   alpha - beta orbital overlaps 
   ----------------------------- 


   alpha      1      2      3      4      5      6      7      8      9     10
    beta      1      2      3      4      5      6      4      5      6      4
 overlap   1.060  0.313  0.295  0.275  0.275  0.338  0.086  0.086  0.086  0.000


   alpha     11     12     13     14     15     16     17     18     19     20
    beta      5      6      4      5     15     16     17     18     19     20
 overlap   0.015  0.022  0.015  0.000  1.060  0.313  0.295  0.275  0.275  0.338


   alpha     21     22     23     24     25     26     27     28
    beta     18     19     20      4      5     20      4      5
 overlap   0.086  0.086  0.086  0.000  0.015  0.022  0.015  0.000

     --------------------------
     Expectation value of S2:  
     --------------------------
      <S2> =      2.0086 (Exact =     2.0000)
 


                         sodft ENERGY GRADIENTS

    atom               coordinates                        gradient
                 x          y          z           x          y          z
   1 O      -0.000000  -0.000000  -1.154486   -0.000001   0.000009   0.000271
   2 O       0.000000  -0.001000   1.154486    0.000001  -0.000009  -0.000271
 
 atom:   2 xyz: 3(+) wall time:      13.9      date:  Wed Sep 13 19:46:43 2017

 
                                 NWChem DFT Module
                                 -----------------
 
 
 
                                  Spin-Orbit DFT
                                  --------------
 
 
  Caching 1-el integrals 
 Performing spin-orbit DFT (SO-DFT) calculations
 -----------------------------------------------
 
          Performing ZORA calculations
          ----------------------------
 

 Read atomic ZORA corrections from ./o2_zora_so.zora_so

   Time prior to 1st pass:     12.2
  zoraso: enough mem for repl


      Total SO-DFT energy =     -150.507666951697
      One electron energy =     -261.329548558797
           Coulomb energy =      100.097790147138
    Exchange-Corr. energy =      -16.981874745892
 Nuclear repulsion energy =       27.705966205854

       Scaling correction =        0.059672707517

 Numeric. integr. density =       16.000000000954

     Total iterative time =      0.4s



   alpha - beta orbital overlaps 
   ----------------------------- 


   alpha      1      2      3      4      5      6      7      8      9     10
    beta      1      2      3      4      5      6      4      5      6      1
 overlap   1.060  0.313  0.295  0.275  0.275  0.337  0.086  0.086  0.086  0.000


   alpha     11     12     13     14     15     16     17     18     19     20
    beta      5      6      4      3     15     16     17     18     19     20
 overlap   0.015  0.022  0.015  0.000  1.060  0.313  0.295  0.275  0.275  0.337


   alpha     21     22     23     24     25     26     27     28
    beta     18     19     20     15      5     20      4     17
 overlap   0.086  0.086  0.086  0.000  0.015  0.022  0.015  0.000

     --------------------------
     Expectation value of S2:  
     --------------------------
      <S2> =      2.0086 (Exact =     2.0000)
 


                         sodft ENERGY GRADIENTS

    atom               coordinates                        gradient
                 x          y          z           x          y          z
   1 O      -0.000000  -0.000000  -1.154486    0.000000  -0.000000  -0.000511
   2 O       0.000000   0.000000   1.155486   -0.000000   0.000000   0.000511
 
 atom:   2 xyz: 3(-) wall time:      14.6      date:  Wed Sep 13 19:46:43 2017

 
                                 NWChem DFT Module
                                 -----------------
 
 
 
                                  Spin-Orbit DFT
                                  --------------
 
 
  Caching 1-el integrals 
 Performing spin-orbit DFT (SO-DFT) calculations
 -----------------------------------------------
 
          Performing ZORA calculations
          ----------------------------
 

 Read atomic ZORA corrections from ./o2_zora_so.zora_so

   Time prior to 1st pass:     12.8
  zoraso: enough mem for repl


      Total SO-DFT energy =     -150.507666372565
      One electron energy =     -261.374595434868
           Coulomb energy =      100.119675625265
    Exchange-Corr. energy =      -16.982721698629
 Nuclear repulsion energy =       27.729975135667

       Scaling correction =        0.059671898973

 Numeric. integr. density =       16.000000000762

     Total iterative time =      0.4s



   alpha - beta orbital overlaps 
   ----------------------------- 


   alpha      1      2      3      4      5      6      7      8      9     10
    beta      1      2      3      4      5      6      4      5      6      1
 overlap   1.060  0.313  0.295  0.275  0.275  0.338  0.086  0.086  0.086  0.000


   alpha     11     12     13     14     15     16     17     18     19     20
    beta      5      6      4      3     15     16     17     18     19     20
 overlap   0.015  0.022  0.015  0.000  1.060  0.313  0.295  0.275  0.275  0.338


   alpha     21     22     23     24     25     26     27     28
    beta     18     19     20     15      5     20      4     17
 overlap   0.086  0.086  0.086  0.000  0.015  0.022  0.015  0.000

     --------------------------
     Expectation value of S2:  
     --------------------------
      <S2> =      2.0086 (Exact =     2.0000)
 


                         sodft ENERGY GRADIENTS

    atom               coordinates                        gradient
                 x          y          z           x          y          z
   1 O      -0.000000  -0.000000  -1.154486   -0.000000  -0.000000   0.001059
   2 O       0.000000   0.000000   1.153486    0.000000   0.000000  -0.001059
 
  
  finite difference hessian delta =   1.000000000000000E-003

              1        2        3        4        5        6      
    1    0.0088  -0.0007  -0.0000  -0.0088   0.0007   0.0000
    2   -0.0007   0.0087   0.0000   0.0007  -0.0087  -0.0000
    3   -0.0000   0.0000   0.7849   0.0000  -0.0000  -0.7849
    4   -0.0088   0.0007   0.0000   0.0088  -0.0007  -0.0000
    5    0.0007  -0.0087  -0.0000  -0.0007   0.0087   0.0000
    6    0.0000  -0.0000  -0.7849  -0.0000   0.0000   0.7849
  
  triangle hessian written to ./o2_zora_so.hess

 Deleting state for sodft with suffix hess
        ./o2_zora_so.movecs
 
 
 
  Vibrational analysis via the FX method 
 
  See chapter 2 in "Molecular Vibrations" by Wilson, Decius and Cross
 
  Vib: Default input used 
 
  Nuclear Hessian passed symmetry test 
 


 ---------------------------- Atom information ----------------------------
     atom    #        X              Y              Z            mass
 --------------------------------------------------------------------------
    O        1 -7.3731822D-29 -7.3733649D-29 -1.1544859D+00  1.5994910D+01
    O        2  7.3731822D-29  7.3733649D-29  1.1544859D+00  1.5994910D+01
 --------------------------------------------------------------------------




          ----------------------------------------------------
          MASS-WEIGHTED NUCLEAR HESSIAN (Hartree/Bohr/Bohr/Kamu)
          ----------------------------------------------------


               1            2            3            4            5            6
   ----- ----- ----- ----- -----
    1    5.51010D-01
    2   -4.39133D-02  5.44765D-01
    3   -4.59805D-06  1.01499D-06  4.90739D+01
    4   -5.51010D-01  4.43903D-02  9.66108D-06  5.51010D-01
    5    4.34662D-02 -5.44736D-01 -7.24229D-05 -4.39282D-02  5.44736D-01
    6    2.88185D-06 -4.44004D-08 -4.90739D+01 -6.27096D-06  3.62333D-05  4.90739D+01



          -------------------------------------------------
          NORMAL MODE EIGENVECTORS IN CARTESIAN COORDINATES
          -------------------------------------------------
                 (Frequencies expressed in cm-1)

                    1           2           3           4           5           6
 
 Frequency         -0.62        0.08        0.85      163.18      176.87     1610.44
 
           1     0.05979     0.16206    -0.03767     0.12055    -0.12934     0.00000
           2    -0.09829     0.00210    -0.14696     0.12934     0.12054    -0.00000
           3    -0.13426     0.07064     0.09080     0.00000     0.00000    -0.17680
           4     0.05988     0.16207    -0.03755    -0.12043     0.12944    -0.00000
           5    -0.09824     0.00224    -0.14698    -0.12944    -0.12044     0.00000
           6    -0.13426     0.07064     0.09080     0.00000     0.00000     0.17680
 
 
        Vibrational analysis via the FX method 
  --- with translations and rotations projected out ---
  --- via the Eckart algorithm                      ---
 Dependent rotation vector no.                     3
  found in ECKART; assuming linear geometry
 Projected Nuclear Hessian trans-rot subspace norm:3.9008D-45
                         (should be close to zero!) 

          --------------------------------------------------------
          MASS-WEIGHTED PROJECTED HESSIAN (Hartree/Bohr/Bohr/Kamu)
          --------------------------------------------------------


               1            2            3            4            5            6
   ----- ----- ----- ----- -----
    1    0.00000D+00
    2    0.00000D+00  0.00000D+00
    3    0.00000D+00  1.07568D-20  4.90739D+01
    4    0.00000D+00  0.00000D+00  8.27444D-22  0.00000D+00
    5    0.00000D+00  0.00000D+00 -3.30978D-21  0.00000D+00  0.00000D+00
    6    1.24117D-21 -1.08731D-20 -4.90739D+01 -2.48233D-21  0.00000D+00  4.90739D+01

 center of mass
 --------------
 x =   0.00000000 y =  -0.00000000 z =   0.00000000

 moments of inertia (a.u.)
 ------------------
          42.637237061690          -0.000000000000          -0.000000000000
          -0.000000000000          42.637237061690          -0.000000000000
          -0.000000000000          -0.000000000000           0.000000000000

 Rotational Constants
 --------------------
 A=   0.000000 cm-1  (  0.000000 K)
 B=   1.411915 cm-1  (  2.031386 K)
 C=   1.411915 cm-1  (  2.031386 K)


 Temperature                      =   298.15K
 frequency scaling parameter      =   1.0000


 Linear Molecule                   

 Zero-Point correction to Energy  =    2.301 kcal/mol  (  0.003667 au)
 Thermal correction to Energy     =    3.784 kcal/mol  (  0.006030 au)
 Thermal correction to Enthalpy   =    4.376 kcal/mol  (  0.006973 au)

 Total Entropy                    =   48.208 cal/mol-K
   - Translational                =   36.304 cal/mol-K (mol. weight =  31.9898)
   - Rotational                   =   11.896 cal/mol-K (symmetry #  =        1)
   - Vibrational                  =    0.007 cal/mol-K

 Cv (constant volume heat capacity) =    5.016 cal/mol-K
   - Translational                  =    2.979 cal/mol-K
   - Rotational                     =    1.986 cal/mol-K
   - Vibrational                    =    0.051 cal/mol-K



          -------------------------------------------------
          NORMAL MODE EIGENVECTORS IN CARTESIAN COORDINATES
          -------------------------------------------------
             (Projected Frequencies expressed in cm-1)

                    1           2           3           4           5           6
 
 P.Frequency       -0.00        0.00        0.00        0.00        0.00     1610.44
 
           1     0.00000    -0.25004     0.00000     0.00000     0.00000     0.00000
           2     0.00000     0.00000    -0.25004     0.00000     0.00000     0.00000
           3     0.17680     0.00000     0.00000     0.00000     0.00000    -0.17680
           4     0.00000     0.00000     0.00000     0.25004     0.00000     0.00000
           5     0.00000     0.00000     0.00000     0.00000     0.25004     0.00000
           6     0.17680     0.00000     0.00000     0.00000     0.00000     0.17680
 vib:animation  F

 Task  times  cpu:        6.9s     wall:        7.3s
 
 
                                NWChem Input Module
                                -------------------
 
 
 Summary of allocated global arrays
-----------------------------------
  No active global arrays



                         GA Statistics for process    0
                         ------------------------------

       create   destroy   get      put      acc     scatter   gather  read&inc
calls: 1.22e+04 1.22e+04 9.75e+04 3.28e+04 1.18e+04   15        0     4783     
number of processes/call 1.57e+00 1.84e+00 1.91e+00 3.00e+00 0.00e+00
bytes total:             8.69e+07 7.04e+07 2.25e+07 1.92e+03 0.00e+00 3.83e+04
bytes remote:            4.96e+07 2.64e+07 1.35e+07 1.20e+03 0.00e+00 0.00e+00
Max memory consumed for GA by this process: 758016 bytes
 
MA_summarize_allocated_blocks: starting scan ...
MA_summarize_allocated_blocks: scan completed: 0 heap blocks, 0 stack blocks
MA usage statistics:

	allocation statistics:
					      heap	     stack
					      ----	     -----
	current number of blocks	         0	         0
	maximum number of blocks	        24	        62
	current total bytes		         0	         0
	maximum total bytes		   4601272	  29533624
	maximum total K-bytes		      4602	     29534
	maximum total M-bytes		         5	        30
 
 
                                     CITATION
                                     --------
                Please cite the following reference when publishing
                           results obtained with NWChem:
 
                 M. Valiev, E.J. Bylaska, N. Govind, K. Kowalski,
              T.P. Straatsma, H.J.J. van Dam, D. Wang, J. Nieplocha,
                        E. Apra, T.L. Windus, W.A. de Jong
                 "NWChem: a comprehensive and scalable open-source
                  solution for large scale molecular simulations"
                      Comput. Phys. Commun. 181, 1477 (2010)
                           doi:10.1016/j.cpc.2010.04.018
 
                                      AUTHORS
                                      -------
          E. Apra, E. J. Bylaska, W. A. de Jong, N. Govind, K. Kowalski,
       T. P. Straatsma, M. Valiev, H. J. J. van Dam, D. Wang, T. L. Windus,
        J. Hammond, J. Autschbach, K. Bhaskaran-Nair, J. Brabec, K. Lopata,
       S. A. Fischer, S. Krishnamoorthy, W. Ma, M. Klemm, O. Villa, Y. Chen,
    V. Anisimov, F. Aquino, S. Hirata, M. T. Hackler, V. Konjkov, T. Risthaus,
       M. Malagoli, A. Marenich, A. Otero-de-la-Roza, J. Mullin, P. Nichols,
      R. Peverati, J. Pittner, Y. Zhao, P.-D. Fan, A. Fonari, M. Williamson,
      R. J. Harrison, J. R. Rehr, M. Dupuis, D. Silverstein, D. M. A. Smith,
            J. Nieplocha, V. Tipparaju, M. Krishnan, B. E. Van Kuiken,
        A. Vazquez-Mayagoitia, L. Jensen, M. Swart, Q. Wu, T. Van Voorhis,
     A. A. Auer, M. Nooijen, L. D. Crosby, E. Brown, G. Cisneros, G. I. Fann,
   H. Fruchtl, J. Garza, K. Hirao, R. A. Kendall, J. A. Nichols, K. Tsemekhman,
    K. Wolinski, J. Anchell, D. E. Bernholdt, P. Borowski, T. Clark, D. Clerc,
   H. Dachsel, M. J. O. Deegan, K. Dyall, D. Elwood, E. Glendening, M. Gutowski,
   A. C. Hess, J. Jaffe, B. G. Johnson, J. Ju, R. Kobayashi, R. Kutteh, Z. Lin,
   R. Littlefield, X. Long, B. Meng, T. Nakajima, S. Niu, L. Pollack, M. Rosing,
   K. Glaesemann, G. Sandrone, M. Stave, H. Taylor, G. Thomas, J. H. van Lenthe,
                               A. T. Wong, Z. Zhang.

 Total times  cpu:       13.4s     wall:       15.2s
