 argument  1 = o2_zora_so.nw
mpiexec_curie (handle_stdin_input 1064): stdin problem; if pgm is run in background, redirect from /dev/null
mpiexec_curie (handle_stdin_input 1065):     e.g.: mpiexec -n 4 a.out < /dev/null &
                                         
                                         
 
 
              Northwest Computational Chemistry Package (NWChem) 5.1
              ------------------------------------------------------
 
 
                    Environmental Molecular Sciences Laboratory
                       Pacific Northwest National Laboratory
                                Richland, WA 99352
 
                                         
                                         
 
 
                  COPYRIGHT (C) 1994, 1995, 1996, 1997, 1998, 1999
                   2000, 2001, 2002, 2003, 2004, 2005, 2006, 2007
                        Pacific Northwest National Laboratory,
                             Battelle Memorial Institute.
 
                            >>> All Rights Reserved <<<
 
 
                                    DISCLAIMER
                                    ----------

            This material was prepared as an account of work sponsored
            by an agency of the United States Government.  Neither the
            United States Government nor the United States Department
            of Energy, nor Battelle, nor any of their employees, MAKES
            ANY WARRANTY, EXPRESS OR IMPLIED, OR ASSUMES ANY LEGAL
            LIABILITY OR RESPONSIBILITY FOR THE ACCURACY, COMPLETENESS,
            OR USEFULNESS OF ANY INFORMATION, APPARATUS, PRODUCT,
            SOFTWARE, OR PROCESS DISCLOSED, OR REPRESENTS THAT ITS USE
            WOULD NOT INFRINGE PRIVATELY OWNED RIGHTS.


                                    LIMITED USE
                                    -----------

            This software (including any documentation) is being made
            available to you for your internal use only, solely for use
            in performance of work directly for the U.S. Federal
            Government or work under contracts with the U.S. Department
            of Energy or other U.S. Federal Government agencies.  This
            software is a version which has not yet been evaluated and
            cleared for commercialization.  Adherence to this notice
            may be necessary for the author, Battelle Memorial
            Institute, to successfully assert copyright in and
            commercialize this software. This software is not intended
            for duplication or distribution to third parties without
            the permission of the Manager of Software Products at
            Pacific Northwest National Laboratory, Richland,
            Washington, 99352.


                                  ACKNOWLEDGMENT
                                  --------------

            This software and its documentation were produced with
            Government support under Contract Number DE-AC05-76RL01830
            awarded by the United States Department of Energy.  The
            Government retains a paid-up non-exclusive, irrevocable
            worldwide license to reproduce, prepare derivative works,
            perform publicly and display publicly by or for the
            Government, including the right to distribute to other
            Government contractors.


           Job information
           ---------------

    hostname      = curie
    program       = ../../../bin/LINUX64/nwchem
    date          = Wed Apr  9 15:44:18 2008

    compiled      = Fri_Mar_28_12:08:01_2008
    source        = /home/niri/nwchem/nwchem-dev
    nwchem branch = Development
    input         = o2_zora_so.nw
    prefix        = o2_zora_so.
    data base     = ./o2_zora_so.db
    status        = startup
    nproc         =    4
    time left     =     -1s



           Memory information
           ------------------

    heap      =   13107201 doubles =    100.0 Mbytes
    stack     =   13107201 doubles =    100.0 Mbytes
    global    =   26214400 doubles =    200.0 Mbytes (distinct from heap & stack)
    total     =   52428802 doubles =    400.0 Mbytes
    verify    = yes
    hardfail  = no 


           Directory information
           ---------------------
 
  0 permanent = .
  0 scratch   = .
 
 
 
 
                                NWChem Input Module
                                -------------------
 
 

 Scaling coordinates for geometry "geometry" by  1.889725989
 (inverse scale =  0.529177249)

 ORDER OF PRIMARY AXIS IS BEING SET TO 4
 D4H symmetry detected
 
 
                             Geometry "geometry" -> ""
                             -------------------------
 
 Output coordinates in angstroms (scale by  1.889725989 to convert to a.u.)
 
  No.       Tag          Charge          X              Y              Z
 ---- ---------------- ---------- -------------- -------------- --------------
    1 O                    8.0000     0.00000000     0.00000000    -0.60000000
    2 O                    8.0000     0.00000000     0.00000000     0.60000000
 
      Atomic Mass 
      ----------- 
 
      O                 15.994910
 

 Effective nuclear repulsion energy (a.u.)      28.2227866133

            Nuclear Dipole moment (a.u.) 
            ----------------------------
        X                 Y               Z
 ---------------- ---------------- ----------------
     0.0000000000     0.0000000000     0.0000000000
 
      Symmetry information
      --------------------
 
 Group name             D4h       
 Group number             28
 Group order              16
 No. of unique centers     1
 
      Symmetry unique atoms
 
     1
 
 
            XYZ format geometry
            -------------------
     2
 geometry
 O                     0.00000000     0.00000000    -0.60000000
 O                     0.00000000     0.00000000     0.60000000
 
 ==============================================================================
                                internuclear distances
 ------------------------------------------------------------------------------
       center one      |      center two      | atomic units |  angstroms
 ------------------------------------------------------------------------------
    2 O                |   1 O                |     2.26767  |     1.20000
 ------------------------------------------------------------------------------
                         number of included internuclear distances:          1
 ==============================================================================



  library name resolved from: environment
  library file name is: </home/niri/nwchem/nwchem-dev/src/basis/libraries/>
  


 Summary of "ao basis" -> "" (spherical)
 ------------------------------------------------------------------------------
       Tag                 Description            Shells   Functions and Types
 ---------------- ------------------------------  ------  ---------------------
 *                     DZVP (DFT Orbital)             on all atoms 


 
 
                           NWChem Geometry Optimization
                           ----------------------------
 
 
 maximum gradient threshold         (gmax) =   0.000450
 rms gradient threshold             (grms) =   0.000300
 maximum cartesian step threshold   (xmax) =   0.001800
 rms cartesian step threshold       (xrms) =   0.001200
 fixed trust radius                (trust) =   0.300000
 maximum step size to saddle      (sadstp) =   0.100000
 energy precision                  (eprec) =   1.0D-07
 maximum number of steps          (nptopt) =  100
 initial hessian option           (inhess) =    0
 line search option               (linopt) =    1
 hessian update option            (modupd) =    1
 saddle point option              (modsad) =    0
 initial eigen-mode to follow     (moddir) =    0
 initial variable to follow       (vardir) =    0
 follow first negative mode     (firstneg) =    T
 apply conjugacy                    (opcg) =    F
 source of zmatrix                         =           


          -------------------
          Energy Minimization
          -------------------

 
 Using diagonal initial Hessian 

          --------
          Step   0
          --------
 
 
                         Geometry "geometry" -> "geometry"
                         ---------------------------------
 
 Output coordinates in angstroms (scale by  1.889725989 to convert to a.u.)
 
  No.       Tag          Charge          X              Y              Z
 ---- ---------------- ---------- -------------- -------------- --------------
    1 O                    8.0000     0.00000000     0.00000000    -0.60000000
    2 O                    8.0000     0.00000000     0.00000000     0.60000000
 
      Atomic Mass 
      ----------- 
 
      O                 15.994910
 

 Effective nuclear repulsion energy (a.u.)      28.2227866133

            Nuclear Dipole moment (a.u.) 
            ----------------------------
        X                 Y               Z
 ---------------- ---------------- ----------------
     0.0000000000     0.0000000000     0.0000000000
 
      Symmetry information
      --------------------
 
 Group name             D4h       
 Group number             28
 Group order              16
 No. of unique centers     1
 
      Symmetry unique atoms
 
     1
 
                                 NWChem DFT Module
                                 -----------------
 
 
                      Basis "ao basis" -> "ao basis" (spherical)
                      -----
  O (Oxygen)
  ----------
            Exponent  Coefficients 
       -------------- ---------------------------------------------------------
  1 S  5.22290220E+03 -0.001936
  1 S  7.82539940E+02 -0.014851
  1 S  1.77267430E+02 -0.073319
  1 S  4.95166880E+01 -0.245116
  1 S  1.56664400E+01 -0.480285
  1 S  5.17935990E+00 -0.335943
 
  2 S  1.06014410E+01  0.078806
  2 S  9.42317000E-01 -0.567695
 
  3 S  2.77474600E-01  1.000000
 
  4 P  3.34241260E+01  0.017560
  4 P  7.62217140E+00  0.107630
  4 P  2.23820930E+00  0.323526
  4 P  6.86730000E-01  0.483223
 
  5 P  1.93813500E-01  1.000000
 
  6 D  8.00000000E-01  1.000000
 


 Summary of "ao basis" -> "ao basis" (spherical)
 ------------------------------------------------------------------------------
       Tag                 Description            Shells   Functions and Types
 ---------------- ------------------------------  ------  ---------------------
 O                     DZVP (DFT Orbital)            6       14   3s2p1d


  WARNING: CD fitting not compatible with spinorbit
  WARNING: disabling CD fitting
  Caching 1-el integrals 
 
            General Information
            -------------------
          SCF calculation type: DFT
          Wavefunction type:  spin polarized.
          No. of atoms     :     2
          No. of electrons :    16
           Alpha electrons :     9
            Beta electrons :     7
          Charge           :     0
          Spin multiplicity:     3
          Use of symmetry is: off; symmetry adaption is: off
          Maximum number of iterations: 100
          AO basis - number of functions:    28
                     number of shells:    12
          Convergence on energy requested: 1.00D-06
          Convergence on density requested: 1.00D-05
          Convergence on gradient requested: 5.00D-04
 
              XC Information
              --------------
                         B3LYP Method XC Potential
                     Hartree-Fock (Exact) Exchange  0.200          
                        Slater Exchange Functional  0.800 local    
                    Becke 1988 Exchange Functional  0.720 non-local
              Lee-Yang-Parr Correlation Functional  0.810          
                  VWN I RPA Correlation Functional  0.190 local    
  WARNING: Sum of nonlocal correlation is   0.810000000000000     
  Sum of components do not equal unity or 0. 
  WARNING: Sum of nonlocal exchange is   0.920000000000000     
  Sum of components do not equal unity or 0. 
 
             Grid Information
             ----------------
          Grid used for XC integration:  xfine     
          Radial quadrature: Mura-Knowles        
          Angular quadrature: Lebedev. 
          Tag              B.-S. Rad. Rad. Pts. Rad. Cut. Ang. Pts.
          ---              ---------- --------- --------- ---------
          O                   0.60      100           6.0      1454
          Grid pruning is: on 
          Number of quadrature shells:   200
          Spatial weights used:  Erf1
 
          Convergence Information
          -----------------------
          Convergence aids based upon iterative change in 
          total energy or number of iterations. 
          Levelshifting, if invoked, occurs when the 
          HOMO/LUMO gap drops below (HL_TOL): 1.00D-02
          DIIS, if invoked, will attempt to extrapolate 
          using up to (NFOCK): 10 stored Fock matrices.

                    Damping( 0%)  Levelshifting(0.5)       DIIS
                  --------------- ------------------- ---------------
          dE  on:    start            ASAP                start   
          dE off:    2 iters        100 iters           100 iters 

 
      Screening Tolerance Information
      -------------------------------
          Density screening/tol_rho: 1.00D-10
          AO Gaussian exp screening on grid/accAOfunc:  14
          CD Gaussian exp screening on grid/accCDfunc:  20
          XC Gaussian exp screening on grid/accXCfunc:  20
          Schwarz screening/accCoul: 1.00D-10

 
 Performing spin-orbit zora calculations
 
 
      Superposition of Atomic Density Guess
      -------------------------------------
 
 Sum of atomic energies:        -149.52590251
mpiexec_curie (handle_stdin_input 1064): stdin problem; if pgm is run in background, redirect from /dev/null
mpiexec_curie (handle_stdin_input 1065):     e.g.: mpiexec -n 4 a.out < /dev/null &
mpiexec_curie (handle_stdin_input 1064): stdin problem; if pgm is run in background, redirect from /dev/null
mpiexec_curie (handle_stdin_input 1065):     e.g.: mpiexec -n 4 a.out < /dev/null &
mpiexec_curie (handle_stdin_input 1064): stdin problem; if pgm is run in background, redirect from /dev/null
mpiexec_curie (handle_stdin_input 1065):     e.g.: mpiexec -n 4 a.out < /dev/null &
mpiexec_curie (handle_stdin_input 1064): stdin problem; if pgm is run in background, redirect from /dev/null
mpiexec_curie (handle_stdin_input 1065):     e.g.: mpiexec -n 4 a.out < /dev/null &
mpiexec_curie (handle_stdin_input 1064): stdin problem; if pgm is run in background, redirect from /dev/null
mpiexec_curie (handle_stdin_input 1065):     e.g.: mpiexec -n 4 a.out < /dev/null &
mpiexec_curie (handle_stdin_input 1064): stdin problem; if pgm is run in background, redirect from /dev/null
mpiexec_curie (handle_stdin_input 1065):     e.g.: mpiexec -n 4 a.out < /dev/null &
 
      Non-variational initial energy
      ------------------------------

 Total energy =    -149.627439
 1-e energy   =    -262.351113
 2-e energy   =      84.500888
 HOMO         =      -0.200062
 LUMO         =      -0.200062
 

 Read atomic ZORA corrections from ./o2_zora_so.zora_so

 dft_zora_read_so: failed to open ./o2_zora_so.zora_so
mpiexec_curie (handle_stdin_input 1064): stdin problem; if pgm is run in background, redirect from /dev/null
mpiexec_curie (handle_stdin_input 1065):     e.g.: mpiexec -n 4 a.out < /dev/null &

 Grid_pts file          = ./o2_zora_so.gridpts.0
 Record size in doubles =  12289        No. of grid_pts per rec  =   3070
 Max. records in memory =     28        Max. recs in file   =    440136

mpiexec_curie (handle_stdin_input 1064): stdin problem; if pgm is run in background, redirect from /dev/null
mpiexec_curie (handle_stdin_input 1065):     e.g.: mpiexec -n 4 a.out < /dev/null &
mpiexec_curie (handle_stdin_input 1064): stdin problem; if pgm is run in background, redirect from /dev/null
mpiexec_curie (handle_stdin_input 1065):     e.g.: mpiexec -n 4 a.out < /dev/null &
mpiexec_curie (handle_stdin_input 1064): stdin problem; if pgm is run in background, redirect from /dev/null
mpiexec_curie (handle_stdin_input 1065):     e.g.: mpiexec -n 4 a.out < /dev/null &
mpiexec_curie (handle_stdin_input 1064): stdin problem; if pgm is run in background, redirect from /dev/null
mpiexec_curie (handle_stdin_input 1065):     e.g.: mpiexec -n 4 a.out < /dev/null &
mpiexec_curie (handle_stdin_input 1064): stdin problem; if pgm is run in background, redirect from /dev/null
mpiexec_curie (handle_stdin_input 1065):     e.g.: mpiexec -n 4 a.out < /dev/null &
mpiexec_curie (handle_stdin_input 1064): stdin problem; if pgm is run in background, redirect from /dev/null
mpiexec_curie (handle_stdin_input 1065):     e.g.: mpiexec -n 4 a.out < /dev/null &
mpiexec_curie (handle_stdin_input 1064): stdin problem; if pgm is run in background, redirect from /dev/null
mpiexec_curie (handle_stdin_input 1065):     e.g.: mpiexec -n 4 a.out < /dev/null &
mpiexec_curie (handle_stdin_input 1064): stdin problem; if pgm is run in background, redirect from /dev/null
mpiexec_curie (handle_stdin_input 1065):     e.g.: mpiexec -n 4 a.out < /dev/null &
mpiexec_curie (handle_stdin_input 1064): stdin problem; if pgm is run in background, redirect from /dev/null
mpiexec_curie (handle_stdin_input 1065):     e.g.: mpiexec -n 4 a.out < /dev/null &
mpiexec_curie (handle_stdin_input 1064): stdin problem; if pgm is run in background, redirect from /dev/null
mpiexec_curie (handle_stdin_input 1065):     e.g.: mpiexec -n 4 a.out < /dev/null &
mpiexec_curie (handle_stdin_input 1064): stdin problem; if pgm is run in background, redirect from /dev/null
mpiexec_curie (handle_stdin_input 1065):     e.g.: mpiexec -n 4 a.out < /dev/null &
mpiexec_curie (handle_stdin_input 1064): stdin problem; if pgm is run in background, redirect from /dev/null
mpiexec_curie (handle_stdin_input 1065):     e.g.: mpiexec -n 4 a.out < /dev/null &
mpiexec_curie (handle_stdin_input 1064): stdin problem; if pgm is run in background, redirect from /dev/null
mpiexec_curie (handle_stdin_input 1065):     e.g.: mpiexec -n 4 a.out < /dev/null &
mpiexec_curie (handle_stdin_input 1064): stdin problem; if pgm is run in background, redirect from /dev/null
mpiexec_curie (handle_stdin_input 1065):     e.g.: mpiexec -n 4 a.out < /dev/null &
mpiexec_curie (handle_stdin_input 1064): stdin problem; if pgm is run in background, redirect from /dev/null
mpiexec_curie (handle_stdin_input 1065):     e.g.: mpiexec -n 4 a.out < /dev/null &
mpiexec_curie (handle_stdin_input 1064): stdin problem; if pgm is run in background, redirect from /dev/null
mpiexec_curie (handle_stdin_input 1065):     e.g.: mpiexec -n 4 a.out < /dev/null &
mpiexec_curie (handle_stdin_input 1064): stdin problem; if pgm is run in background, redirect from /dev/null
mpiexec_curie (handle_stdin_input 1065):     e.g.: mpiexec -n 4 a.out < /dev/null &
mpiexec_curie (handle_stdin_input 1064): stdin problem; if pgm is run in background, redirect from /dev/null
mpiexec_curie (handle_stdin_input 1065):     e.g.: mpiexec -n 4 a.out < /dev/null &
mpiexec_curie (handle_stdin_input 1064): stdin problem; if pgm is run in background, redirect from /dev/null
mpiexec_curie (handle_stdin_input 1065):     e.g.: mpiexec -n 4 a.out < /dev/null &
mpiexec_curie (handle_stdin_input 1064): stdin problem; if pgm is run in background, redirect from /dev/null
mpiexec_curie (handle_stdin_input 1065):     e.g.: mpiexec -n 4 a.out < /dev/null &
mpiexec_curie (handle_stdin_input 1064): stdin problem; if pgm is run in background, redirect from /dev/null
mpiexec_curie (handle_stdin_input 1065):     e.g.: mpiexec -n 4 a.out < /dev/null &
mpiexec_curie (handle_stdin_input 1064): stdin problem; if pgm is run in background, redirect from /dev/null
mpiexec_curie (handle_stdin_input 1065):     e.g.: mpiexec -n 4 a.out < /dev/null &
mpiexec_curie (handle_stdin_input 1064): stdin problem; if pgm is run in background, redirect from /dev/null
mpiexec_curie (handle_stdin_input 1065):     e.g.: mpiexec -n 4 a.out < /dev/null &
mpiexec_curie (handle_stdin_input 1064): stdin problem; if pgm is run in background, redirect from /dev/null
mpiexec_curie (handle_stdin_input 1065):     e.g.: mpiexec -n 4 a.out < /dev/null &
mpiexec_curie (handle_stdin_input 1064): stdin problem; if pgm is run in background, redirect from /dev/null
mpiexec_curie (handle_stdin_input 1065):     e.g.: mpiexec -n 4 a.out < /dev/null &
mpiexec_curie (handle_stdin_input 1064): stdin problem; if pgm is run in background, redirect from /dev/null
mpiexec_curie (handle_stdin_input 1065):     e.g.: mpiexec -n 4 a.out < /dev/null &
mpiexec_curie (handle_stdin_input 1064): stdin problem; if pgm is run in background, redirect from /dev/null
mpiexec_curie (handle_stdin_input 1065):     e.g.: mpiexec -n 4 a.out < /dev/null &
mpiexec_curie (handle_stdin_input 1064): stdin problem; if pgm is run in background, redirect from /dev/null
mpiexec_curie (handle_stdin_input 1065):     e.g.: mpiexec -n 4 a.out < /dev/null &
mpiexec_curie (handle_stdin_input 1064): stdin problem; if pgm is run in background, redirect from /dev/null
mpiexec_curie (handle_stdin_input 1065):     e.g.: mpiexec -n 4 a.out < /dev/null &
mpiexec_curie (handle_stdin_input 1064): stdin problem; if pgm is run in background, redirect from /dev/null
mpiexec_curie (handle_stdin_input 1065):     e.g.: mpiexec -n 4 a.out < /dev/null &
mpiexec_curie (handle_stdin_input 1064): stdin problem; if pgm is run in background, redirect from /dev/null
mpiexec_curie (handle_stdin_input 1065):     e.g.: mpiexec -n 4 a.out < /dev/null &
mpiexec_curie (handle_stdin_input 1064): stdin problem; if pgm is run in background, redirect from /dev/null
mpiexec_curie (handle_stdin_input 1065):     e.g.: mpiexec -n 4 a.out < /dev/null &
mpiexec_curie (handle_stdin_input 1064): stdin problem; if pgm is run in background, redirect from /dev/null
mpiexec_curie (handle_stdin_input 1065):     e.g.: mpiexec -n 4 a.out < /dev/null &
mpiexec_curie (handle_stdin_input 1064): stdin problem; if pgm is run in background, redirect from /dev/null
mpiexec_curie (handle_stdin_input 1065):     e.g.: mpiexec -n 4 a.out < /dev/null &
mpiexec_curie (handle_stdin_input 1064): stdin problem; if pgm is run in background, redirect from /dev/null
mpiexec_curie (handle_stdin_input 1065):     e.g.: mpiexec -n 4 a.out < /dev/null &
mpiexec_curie (handle_stdin_input 1064): stdin problem; if pgm is run in background, redirect from /dev/null
mpiexec_curie (handle_stdin_input 1065):     e.g.: mpiexec -n 4 a.out < /dev/null &
mpiexec_curie (handle_stdin_input 1064): stdin problem; if pgm is run in background, redirect from /dev/null
mpiexec_curie (handle_stdin_input 1065):     e.g.: mpiexec -n 4 a.out < /dev/null &
mpiexec_curie (handle_stdin_input 1064): stdin problem; if pgm is run in background, redirect from /dev/null
mpiexec_curie (handle_stdin_input 1065):     e.g.: mpiexec -n 4 a.out < /dev/null &
mpiexec_curie (handle_stdin_input 1064): stdin problem; if pgm is run in background, redirect from /dev/null
mpiexec_curie (handle_stdin_input 1065):     e.g.: mpiexec -n 4 a.out < /dev/null &
mpiexec_curie (handle_stdin_input 1064): stdin problem; if pgm is run in background, redirect from /dev/null
mpiexec_curie (handle_stdin_input 1065):     e.g.: mpiexec -n 4 a.out < /dev/null &
mpiexec_curie (handle_stdin_input 1064): stdin problem; if pgm is run in background, redirect from /dev/null
mpiexec_curie (handle_stdin_input 1065):     e.g.: mpiexec -n 4 a.out < /dev/null &
mpiexec_curie (handle_stdin_input 1064): stdin problem; if pgm is run in background, redirect from /dev/null
mpiexec_curie (handle_stdin_input 1065):     e.g.: mpiexec -n 4 a.out < /dev/null &
mpiexec_curie (handle_stdin_input 1064): stdin problem; if pgm is run in background, redirect from /dev/null
mpiexec_curie (handle_stdin_input 1065):     e.g.: mpiexec -n 4 a.out < /dev/null &
mpiexec_curie (handle_stdin_input 1064): stdin problem; if pgm is run in background, redirect from /dev/null
mpiexec_curie (handle_stdin_input 1065):     e.g.: mpiexec -n 4 a.out < /dev/null &
mpiexec_curie (handle_stdin_input 1064): stdin problem; if pgm is run in background, redirect from /dev/null
mpiexec_curie (handle_stdin_input 1065):     e.g.: mpiexec -n 4 a.out < /dev/null &
mpiexec_curie (handle_stdin_input 1064): stdin problem; if pgm is run in background, redirect from /dev/null
mpiexec_curie (handle_stdin_input 1065):     e.g.: mpiexec -n 4 a.out < /dev/null &
mpiexec_curie (handle_stdin_input 1064): stdin problem; if pgm is run in background, redirect from /dev/null
mpiexec_curie (handle_stdin_input 1065):     e.g.: mpiexec -n 4 a.out < /dev/null &
mpiexec_curie (handle_stdin_input 1064): stdin problem; if pgm is run in background, redirect from /dev/null
mpiexec_curie (handle_stdin_input 1065):     e.g.: mpiexec -n 4 a.out < /dev/null &
mpiexec_curie (handle_stdin_input 1064): stdin problem; if pgm is run in background, redirect from /dev/null
mpiexec_curie (handle_stdin_input 1065):     e.g.: mpiexec -n 4 a.out < /dev/null &
mpiexec_curie (handle_stdin_input 1064): stdin problem; if pgm is run in background, redirect from /dev/null
mpiexec_curie (handle_stdin_input 1065):     e.g.: mpiexec -n 4 a.out < /dev/null &
mpiexec_curie (handle_stdin_input 1064): stdin problem; if pgm is run in background, redirect from /dev/null
mpiexec_curie (handle_stdin_input 1065):     e.g.: mpiexec -n 4 a.out < /dev/null &
mpiexec_curie (handle_stdin_input 1064): stdin problem; if pgm is run in background, redirect from /dev/null
mpiexec_curie (handle_stdin_input 1065):     e.g.: mpiexec -n 4 a.out < /dev/null &

 Wrote atomic ZORA corrections to ./o2_zora_so.zora_so

   Time prior to 1st pass:     15.8

 #quartets = 3.080D+03 #integrals = 2.184D+04 #direct =  0.0% #cached =100.0%


 Integral file          = ./o2_zora_so.aoints.0
 Record size in doubles =  65536        No. of integs per rec  =  43688
 Max. records in memory =      2        Max. records in file   =  82529
 No. of bits per label  =      8        No. of bits per value  =     64


File balance: exchanges=     0  moved=     0  time=   0.0


           Memory utilization after 1st SCF pass: 
           Heap Space remaining (MW):       12.63            12630280
          Stack Space remaining (MW):       13.10            13099972

   convergence    iter        energy       DeltaE   RMS-Dens  Diis-err    time
 ---------------- ----- ----------------- --------- --------- ---------  ------
 d= 0,ls=0.0,diis     1   -150.4640613491 -1.79D+02  1.58D-02  1.95D-01    16.2
                                                     6.16D-03  1.95D-01
 d= 0,ls=0.0,diis     2   -150.4866583647 -2.26D-02  5.84D-03  9.21D-02    16.6
                                                     4.44D-03  9.21D-02
 d= 0,ls=0.0,diis     3   -150.5073731672 -2.07D-02  1.00D-03  7.64D-04    17.1
                                                     1.89D-04  7.64D-04
 d= 0,ls=0.0,diis     4   -150.5075965043 -2.23D-04  6.01D-05  3.59D-05    17.5
                                                     1.44D-04  3.59D-05
 d= 0,ls=0.0,diis     5   -150.5076084086 -1.19D-05  3.72D-05  9.28D-07    17.9
                                                     1.79D-05  9.28D-07
 d= 0,ls=0.0,diis     6   -150.5076087473 -3.39D-07  9.73D-07  1.96D-08    18.4
                                                     1.03D-06  1.96D-08


         Total DFT energy =   -150.507608747219
       Scaling correction =      0.059663776439
      One electron energy =   -262.319607907336
           Coulomb energy =    100.592346083184
    Exchange-Corr. energy =    -17.003133536385
 Nuclear repulsion energy =     28.222786613317

 Numeric. integr. density =     16.000000008298

     Total iterative time =      3.1s


 
                       DFT Final Molecular Orbital Analysis
                       ------------------------------------
 
 Vector    5  Occ=1.000000D+00  E=-1.325393D+00
              MO Center=  6.1D-09, -2.2D-08, -3.3D-06, r^2= 2.3D-01
  Bfn.     Coefficient        Function     Bfn.     Coefficient        Function
  ---- -------------------  ------------     ---- -------------------  ------------
     2  -0.262274-0.262272  1 O  s                 16  -0.262269-0.262266  2 O  s          
     3   0.161300 0.161299  1 O  s                 17   0.161295 0.161294  2 O  s          
     6   0.139667 0.139665  1 O  pz                20  -0.139666-0.139665  2 O  pz         
     1   0.118242 0.118241  1 O  s                 15   0.118240 0.118239  2 O  s          
 
 Vector    6  Occ=1.000000D+00  E=-1.268236D+00
              MO Center=  1.5D-12, -5.6D-14,  2.6D-09, r^2= 3.1D-08
  Bfn.     Coefficient        Function     Bfn.     Coefficient        Function
  ---- -------------------  ------------     ---- -------------------  ------------
    30  -0.000214-0.348652  1 O  s                 44  -0.000214-0.348646  2 O  s          
    31   0.000143 0.233145  1 O  s                 45   0.000143 0.233139  2 O  s          
    34   0.000130 0.211371  1 O  pz                48  -0.000130-0.211371  2 O  pz         
    29   0.000100 0.163135  1 O  s                 43   0.000100 0.163133  2 O  s          
 
 Vector    7  Occ=1.000000D+00  E=-8.424700D-01
              MO Center=  2.5D-08, -3.9D-08, -6.0D-06, r^2= 5.2D-01
  Bfn.     Coefficient        Function     Bfn.     Coefficient        Function
  ---- -------------------  ------------     ---- -------------------  ------------
     2   0.294924 0.294923  1 O  s                 16  -0.294924-0.294922  2 O  s          
     3  -0.289343-0.289341  1 O  s                 17   0.289342 0.289341  2 O  s          
    15   0.126533 0.126533  2 O  s                  1  -0.126533-0.126533  1 O  s          
 
 Vector    8  Occ=1.000000D+00  E=-7.541548D-01
              MO Center=  1.6D-12, -4.5D-11,  1.2D-08, r^2= 2.9D-07
  Bfn.     Coefficient        Function     Bfn.     Coefficient        Function
  ---- -------------------  ------------     ---- -------------------  ------------
    31   0.000338 0.411169  1 O  s                 45  -0.000338-0.411165  2 O  s          
    30  -0.000328-0.398122  1 O  s                 44   0.000328 0.398119  2 O  s          
    29   0.000144 0.174557  1 O  s                 43  -0.000144-0.174557  2 O  s          
    34  -0.000131-0.158825  1 O  pz                48  -0.000131-0.158807  2 O  pz         
 
 Vector    9  Occ=1.000000D+00  E=-5.749823D-01
              MO Center=  1.1D-09, -1.7D-07, -2.1D-05, r^2= 4.1D-01
  Bfn.     Coefficient        Function     Bfn.     Coefficient        Function
  ---- -------------------  ------------     ---- -------------------  ------------
     4   0.000003-0.383635  1 O  px                 5  -0.383635-0.000007  1 O  py         
    18   0.000003-0.383605  2 O  px                19  -0.383605-0.000007  2 O  py         
 
 Vector   10  Occ=1.000000D+00  E=-5.741750D-01
              MO Center=  6.7D-07, -5.6D-09, -3.3D-07, r^2= 4.1D-01
  Bfn.     Coefficient        Function     Bfn.     Coefficient        Function
  ---- -------------------  ------------     ---- -------------------  ------------
     5   0.000002-0.383299  1 O  py                 4  -0.383299 0.000002  1 O  px         
    19   0.000002-0.383296  2 O  py                18  -0.383296 0.000002  2 O  px         
 
 Vector   11  Occ=1.000000D+00  E=-5.571480D-01
              MO Center= -6.9D-07,  1.7D-07,  7.4D-06, r^2= 5.5D-01
  Bfn.     Coefficient        Function     Bfn.     Coefficient        Function
  ---- -------------------  ------------     ---- -------------------  ------------
     6  -0.374838-0.374831  1 O  pz                20   0.374836 0.374829  2 O  pz         
    17   0.186406 0.186402  2 O  s                  3   0.186397 0.186393  1 O  s          
 
 Vector   12  Occ=1.000000D+00  E=-5.164048D-01
              MO Center=  1.7D-11,  1.1D-10, -7.6D-08, r^2= 4.0D-06
  Bfn.     Coefficient        Function     Bfn.     Coefficient        Function
  ---- -------------------  ------------     ---- -------------------  ------------
    34   0.000733-0.519640  1 O  pz                48  -0.000733 0.519638  2 O  pz         
    45  -0.000398 0.282307  2 O  s                 31  -0.000398 0.282289  1 O  s          
    37   0.000222-0.157765  1 O  pz                51  -0.000222 0.157764  2 O  pz         
 
 Vector   13  Occ=1.000000D+00  E=-4.730689D-01
              MO Center=  9.4D-11, -9.5D-12,  1.8D-08, r^2= 4.1D-07
  Bfn.     Coefficient        Function     Bfn.     Coefficient        Function
  ---- -------------------  ------------     ---- -------------------  ------------
    32   0.254395 0.254075  1 O  px                33  -0.254071 0.254398  1 O  py         
    46   0.254376 0.254056  2 O  px                47  -0.254053 0.254379  2 O  py         
 
 Vector   14  Occ=1.000000D+00  E=-4.723669D-01
              MO Center=  1.9D-13,  2.1D-13,  1.1D-12, r^2= 3.0D-12
  Bfn.     Coefficient        Function     Bfn.     Coefficient        Function
  ---- -------------------  ------------     ---- -------------------  ------------
    47   0.254267 0.253699  2 O  py                46  -0.253703 0.254264  2 O  px         
    33   0.254261 0.253693  1 O  py                32  -0.253697 0.254258  1 O  px         
 
 Vector   15  Occ=1.000000D+00  E=-3.143212D-01
              MO Center=  6.3D-10,  3.4D-08,  2.1D-05, r^2= 4.8D-01
  Bfn.     Coefficient        Function     Bfn.     Coefficient        Function
  ---- -------------------  ------------     ---- -------------------  ------------
    18   0.000017-0.441402  2 O  px                19  -0.441402 0.000005  2 O  py         
     4  -0.000017 0.441374  1 O  px                 5   0.441374-0.000005  1 O  py         
    21   0.000009-0.222083  2 O  px                22  -0.222083 0.000002  2 O  py         
     7  -0.000009 0.222076  1 O  px                 8   0.222076-0.000002  1 O  py         
 
 Vector   16  Occ=1.000000D+00  E=-3.132185D-01
              MO Center= -3.0D-08, -5.4D-09, -5.7D-08, r^2= 4.8D-01
  Bfn.     Coefficient        Function     Bfn.     Coefficient        Function
  ---- -------------------  ------------     ---- -------------------  ------------
     5  -0.000011-0.441036  1 O  py                 4  -0.441036-0.000011  1 O  px         
    19   0.000011 0.441030  2 O  py                18   0.441030 0.000011  2 O  px         
    22   0.000005 0.222852  2 O  py                21   0.222852 0.000005  2 O  px         
     8  -0.000005-0.222845  1 O  py                 7  -0.222845-0.000005  1 O  px         
 
 Vector   17  Occ=0.000000D+00  E=-1.210137D-01
              MO Center=  1.7D-12,  2.4D-11, -2.6D-07, r^2= 3.7D-06
  Bfn.     Coefficient        Function     Bfn.     Coefficient        Function
  ---- -------------------  ------------     ---- -------------------  ------------
    46   0.291088 0.291389  2 O  px                47  -0.291408 0.291069  2 O  py         
    32  -0.291072-0.291373  1 O  px                33   0.291392-0.291053  1 O  py         
    49   0.201359 0.201567  2 O  px                50  -0.201580 0.201346  2 O  py         
    35  -0.201352-0.201561  1 O  px                36   0.201574-0.201339  1 O  py         
 
 Vector   18  Occ=0.000000D+00  E=-1.200644D-01
              MO Center= -2.0D-13, -2.4D-13, -2.2D-13, r^2= 1.9D-12
  Bfn.     Coefficient        Function     Bfn.     Coefficient        Function
  ---- -------------------  ------------     ---- -------------------  ------------
    33   0.291024 0.290838  1 O  py                32  -0.290819 0.291042  1 O  px         
    47  -0.291013-0.290827  2 O  py                46   0.290809-0.291032  2 O  px         
    50  -0.202126-0.201997  2 O  py                49   0.201984-0.202139  2 O  px         
    36   0.202125 0.201996  1 O  py                35  -0.201983 0.202138  1 O  px         
 
 Vector   19  Occ=0.000000D+00  E= 1.726380D-01
              MO Center=  7.1D-08,  5.3D-08,  2.6D-07, r^2= 1.0D+00
  Bfn.     Coefficient        Function     Bfn.     Coefficient        Function
  ---- -------------------  ------------     ---- -------------------  ------------
    17  -0.801345-0.801349  2 O  s                  3   0.801341 0.801345  1 O  s          
    23   0.699108 0.699111  2 O  pz                 9   0.699106 0.699109  1 O  pz         
    20   0.344953 0.344955  2 O  pz                 6   0.344951 0.344953  1 O  pz         
     2  -0.162323-0.162324  1 O  s                 16   0.162317 0.162318  2 O  s          
 
 Vector   20  Occ=0.000000D+00  E= 2.078223D-01
              MO Center=  5.3D-11,  3.8D-10, -1.8D-07, r^2= 3.7D-06
  Bfn.     Coefficient        Function     Bfn.     Coefficient        Function
  ---- -------------------  ------------     ---- -------------------  ------------
    45  -0.000888 1.264365  2 O  s                 31   0.000888-1.264358  1 O  s          
    51   0.000761-1.083239  2 O  pz                37   0.000761-1.083237  1 O  pz         
    48   0.000308-0.438886  2 O  pz                34   0.000308-0.438883  1 O  pz         
    30  -0.000155 0.220154  1 O  s                 44   0.000155-0.220145  2 O  s          
 
 Vector   21  Occ=0.000000D+00  E= 4.519666D-01
              MO Center=  5.0D-07,  4.3D-07, -2.4D-05, r^2= 1.3D+00
  Bfn.     Coefficient        Function     Bfn.     Coefficient        Function
  ---- -------------------  ------------     ---- -------------------  ------------
     9   0.834452 0.834438  1 O  pz                23   0.834423 0.834409  2 O  pz         
    17  -0.802223-0.802210  2 O  s                  3   0.802205 0.802191  1 O  s          
     6  -0.455727-0.455719  1 O  pz                20  -0.455715-0.455708  2 O  pz         
 
 Vector   22  Occ=0.000000D+00  E= 4.748762D-01
              MO Center= -1.6D-09, -4.1D-08,  1.5D-06, r^2= 6.7D-03
  Bfn.     Coefficient        Function     Bfn.     Coefficient        Function
  ---- -------------------  ------------     ---- -------------------  ------------
    37  -0.007640 1.111490  1 O  pz                51  -0.007640 1.111456  2 O  pz         
    45   0.007315-1.064099  2 O  s                 31  -0.007315 1.064080  1 O  s          
    34   0.004614-0.671169  1 O  pz                48   0.004614-0.671154  2 O  pz         
 
 Vector   23  Occ=0.000000D+00  E= 4.823919D-01
              MO Center=  3.8D-09,  9.3D-08,  1.4D-05, r^2= 1.0D+00
  Bfn.     Coefficient        Function     Bfn.     Coefficient        Function
  ---- -------------------  ------------     ---- -------------------  ------------
    22  -0.445925 0.000250  2 O  py                21  -0.000209-0.445925  2 O  px         
     8  -0.445893 0.000250  1 O  py                 7  -0.000209-0.445893  1 O  px         
    19   0.396869-0.000222  2 O  py                18   0.000186 0.396869  2 O  px         
     5   0.396855-0.000222  1 O  py                 4   0.000186 0.396855  1 O  px         
 
 Vector   24  Occ=0.000000D+00  E= 4.830664D-01
              MO Center= -1.8D-08, -1.6D-09, -4.8D-05, r^2= 1.1D+00
  Bfn.     Coefficient        Function     Bfn.     Coefficient        Function
  ---- -------------------  ------------     ---- -------------------  ------------
     7  -0.447295-0.000020  1 O  px                 8  -0.000020-0.447295  1 O  py         
    21  -0.447184-0.000020  2 O  px                22  -0.000020-0.447184  2 O  py         
     4   0.398391 0.000018  1 O  px                 5   0.000018 0.398390  1 O  py         
    18   0.398351 0.000018  2 O  px                19   0.000018 0.398351  2 O  py         
 
 Vector   25  Occ=0.000000D+00  E= 5.242571D-01
              MO Center= -1.7D-09,  3.3D-09,  2.8D-06, r^2= 8.0D-05
  Bfn.     Coefficient        Function     Bfn.     Coefficient        Function
  ---- -------------------  ------------     ---- -------------------  ------------
    50   0.310968-0.311737  2 O  py                49  -0.311763-0.310941  2 O  px         
    36   0.310948-0.311717  1 O  py                35  -0.311743-0.310921  1 O  px         
    47  -0.294172 0.294900  2 O  py                46   0.294925 0.294147  2 O  px         
    33  -0.294163 0.294891  1 O  py                32   0.294916 0.294138  1 O  px         
 
 Vector   26  Occ=0.000000D+00  E= 5.250362D-01
              MO Center=  3.9D-13,  1.6D-12, -3.2D-12, r^2= 1.6D-11
  Bfn.     Coefficient        Function     Bfn.     Coefficient        Function
  ---- -------------------  ------------     ---- -------------------  ------------
    35  -0.311531 0.311089  1 O  px                36   0.311062 0.311558  1 O  py         
    49  -0.311460 0.311018  2 O  px                50   0.310991 0.311486  2 O  py         
    32   0.294941-0.294523  1 O  px                33  -0.294497-0.294966  1 O  py         
    46   0.294912-0.294493  2 O  px                47  -0.294468-0.294937  2 O  py         
 

   alpha - beta orbital overlaps 
   ----------------------------- 


   alpha      1      2      3      4      5      6      7      8      9     10
    beta      1      2      3     18     19      6      4      5      6     18
 overlap   1.060  0.311  0.296  0.275  0.275  0.341  0.085  0.085  0.085  0.000


   alpha     11     12     13     14     15     16     17     18     19     20
    beta     19      6     18     18     15     16     17     18     19     20
 overlap   0.016  0.023  0.016  0.000  1.060  0.311  0.296  0.275  0.275  0.341


   alpha     21     22     23     24     25     26     27     28
    beta     18     19     20     16     19     20     18      4
 overlap   0.085  0.085  0.085  0.000  0.016  0.023  0.016  0.000

     --------------------------
     Expectation value of S2:  
     --------------------------
      <S2> =      2.0083 (Exact =     2.0000)
 
 
     Multipole analysis of the density
     ---------------------------------
 
     L   x y z        total         alpha         beta         nuclear
     -   - - -        -----         -----         ----         -------
     0   0 0 0      0.000000     -8.999996     -7.000004     16.000000
 
     1   1 0 0      0.000000      0.000000      0.000000      0.000000
     1   0 1 0      0.000000      0.000000      0.000000      0.000000
     1   0 0 1      0.000057      0.000008      0.000050      0.000000
 
     2   2 0 0     -7.455397     -4.310406     -3.144991      0.000000
     2   1 1 0      0.000000      0.000000      0.000000      0.000000
     2   1 0 1     -0.000001      0.000000     -0.000001      0.000000
     2   0 2 0     -7.455397     -4.310406     -3.144991      0.000000
     2   0 1 1     -0.000001      0.000000     -0.000001      0.000000
     2   0 0 2     -7.824455    -16.110940    -12.282845     20.569330
 

 Parallel integral file used       4 records with       0 large values

  WARNING: CD fitting not compatible with spinorbit
  WARNING: disabling CD fitting
 
 
                            NWChem DFT Gradient Module
                            --------------------------
 
 

  charge          =   0.00
  wavefunction    = open shell


 Read molecular orbitals from ./o2_zora_so.movecs

  Using symmetry

 Read molecular orbitals from ./o2_zora_so.movecs


 Read molecular orbitals from ./o2_zora_so.movecs



                         sodft ENERGY GRADIENTS

    atom               coordinates                        gradient
                 x          y          z           x          y          z
   1 O       0.000000   0.000000  -1.133836    0.000000   0.000000   0.035907
   2 O       0.000000   0.000000   1.133836    0.000000   0.000000  -0.035907
 
                 ----------------------------------------
                 |  Time  |  1-e(secs)   |  2-e(secs)   |
                 ----------------------------------------
                 |  CPU   |       0.00   |       0.05   |
                 ----------------------------------------
                 |  WALL  |       0.00   |       0.06   |
                 ----------------------------------------

@ Step       Energy      Delta E   Gmax     Grms     Xrms     Xmax   Walltime
@ ---- ---------------- -------- -------- -------- -------- -------- --------
@    0    -150.50760875  0.0D+00  0.03591  0.02073  0.00000  0.00000     22.2
                                                       ok       ok  

                                 NWChem DFT Module
                                 -----------------
 
 
  WARNING: CD fitting not compatible with spinorbit
  WARNING: disabling CD fitting
  Caching 1-el integrals 
 
            General Information
            -------------------
          SCF calculation type: DFT
          Wavefunction type:  spin polarized.
          No. of atoms     :     2
          No. of electrons :    16
           Alpha electrons :     9
            Beta electrons :     7
          Charge           :     0
          Spin multiplicity:     3
          Use of symmetry is: off; symmetry adaption is: off
          Maximum number of iterations: 100
          AO basis - number of functions:    28
                     number of shells:    12
          Convergence on energy requested: 1.00D-06
          Convergence on density requested: 1.00D-05
          Convergence on gradient requested: 5.00D-04
 
              XC Information
              --------------
                         B3LYP Method XC Potential
                     Hartree-Fock (Exact) Exchange  0.200          
                        Slater Exchange Functional  0.800 local    
                    Becke 1988 Exchange Functional  0.720 non-local
              Lee-Yang-Parr Correlation Functional  0.810          
                  VWN I RPA Correlation Functional  0.190 local    
  WARNING: Sum of nonlocal correlation is   0.810000000000000     
  Sum of components do not equal unity or 0. 
  WARNING: Sum of nonlocal exchange is   0.920000000000000     
  Sum of components do not equal unity or 0. 
 
             Grid Information
             ----------------
          Grid used for XC integration:  xfine     
          Radial quadrature: Mura-Knowles        
          Angular quadrature: Lebedev. 
          Tag              B.-S. Rad. Rad. Pts. Rad. Cut. Ang. Pts.
          ---              ---------- --------- --------- ---------
          O                   0.60      100           6.0      1454
          Grid pruning is: on 
          Number of quadrature shells:   200
          Spatial weights used:  Erf1
 
          Convergence Information
          -----------------------
          Convergence aids based upon iterative change in 
          total energy or number of iterations. 
          Levelshifting, if invoked, occurs when the 
          HOMO/LUMO gap drops below (HL_TOL): 1.00D-02
          DIIS, if invoked, will attempt to extrapolate 
          using up to (NFOCK): 10 stored Fock matrices.

                    Damping( 0%)  Levelshifting(0.5)       DIIS
                  --------------- ------------------- ---------------
          dE  on:    start            ASAP                start   
          dE off:    2 iters        100 iters           100 iters 

 
      Screening Tolerance Information
      -------------------------------
          Density screening/tol_rho: 1.00D-10
          AO Gaussian exp screening on grid/accAOfunc:  14
          CD Gaussian exp screening on grid/accCDfunc:  20
          XC Gaussian exp screening on grid/accXCfunc:  20
          Schwarz screening/accCoul: 1.00D-10

 
 Performing spin-orbit zora calculations
 

 Read molecular orbitals from ./o2_zora_so.movecs


 Read atomic ZORA corrections from ./o2_zora_so.zora_so

   Time prior to 1st pass:     19.6

 #quartets = 3.080D+03 #integrals = 2.178D+04 #direct =  0.0% #cached =100.0%


 Integral file          = ./o2_zora_so.aoints.0
 Record size in doubles =  65536        No. of integs per rec  =  43688
 Max. records in memory =      2        Max. records in file   =  82531
 No. of bits per label  =      8        No. of bits per value  =     64


File balance: exchanges=     0  moved=     0  time=   0.0


 Grid_pts file          = ./o2_zora_so.gridpts.0
 Record size in doubles =  12289        No. of grid_pts per rec  =   3070
 Max. records in memory =     28        Max. recs in file   =    440136

 WARNING: error on integrated density =  0.21D-02
 greater than required accuracy of  0.10D-07

           Memory utilization after 1st SCF pass: 
           Heap Space remaining (MW):       12.63            12630280
          Stack Space remaining (MW):       13.10            13099972

   convergence    iter        energy       DeltaE   RMS-Dens  Diis-err    time
 ---------------- ----- ----------------- --------- --------- ---------  ------
 d= 0,ls=0.0,diis     1   -150.4368449022 -1.77D+02  3.66D-03  1.28D-01    20.1
                                                     2.48D-03  1.28D-01
 d= 0,ls=0.0,diis     2   -150.5037189478 -6.69D-02  1.22D-03  5.09D-03    20.5
                                                     9.86D-04  5.09D-03
 d= 0,ls=0.0,diis     3   -150.5044394037 -7.20D-04  6.13D-04  1.19D-03    21.0
                                                     4.30D-04  1.19D-03
 d= 0,ls=0.0,diis     4   -150.5046820086 -2.43D-04  1.26D-04  3.96D-05    21.4
                                                     9.43D-05  3.96D-05
 d= 0,ls=0.0,diis     5   -150.5046906900 -8.68D-06  1.71D-05  2.12D-06    21.9
                                                     2.82D-05  2.12D-06
 d= 0,ls=0.0,diis     6   -150.5046909191 -2.29D-07  7.32D-06  8.85D-07    22.3
                                                     1.11D-05  8.85D-07
 d= 0,ls=0.0,diis     7   -150.5046910807 -1.62D-07  1.23D-07  1.66D-08    22.8
                                                     1.45D-07  1.66D-08


         Total DFT energy =   -150.504691080669
       Scaling correction =      0.059682864683
      One electron energy =   -259.085170898699
           Coulomb energy =     98.973678108607
    Exchange-Corr. energy =    -16.934909811943
 Nuclear repulsion energy =     26.541711521366

 Numeric. integr. density =     16.000000011437

     Total iterative time =      3.8s


 
                       DFT Final Molecular Orbital Analysis
                       ------------------------------------
 
 Vector    5  Occ=1.000000D+00  E=-1.269216D+00
              MO Center=  4.7D-09, -2.1D-08,  1.9D-08, r^2= 2.6D-01
  Bfn.     Coefficient        Function     Bfn.     Coefficient        Function
  ---- -------------------  ------------     ---- -------------------  ------------
    16  -0.265066-0.265059  2 O  s                  2  -0.265066-0.265058  1 O  s          
     3   0.175249 0.175244  1 O  s                 17   0.175248 0.175243  2 O  s          
    20  -0.124325-0.124321  2 O  pz                 6   0.124325 0.124321  1 O  pz         
    15   0.118369 0.118366  2 O  s                  1   0.118369 0.118366  1 O  s          
 
 Vector    6  Occ=1.000000D+00  E=-1.208843D+00
              MO Center=  1.6D-12, -4.7D-14,  2.9D-09, r^2= 3.3D-08
  Bfn.     Coefficient        Function     Bfn.     Coefficient        Function
  ---- -------------------  ------------     ---- -------------------  ------------
    44   0.010664-0.351994  2 O  s                 30   0.010664-0.351994  1 O  s          
    31  -0.007695 0.253978  1 O  s                 45  -0.007695 0.253977  2 O  s          
    48   0.005744-0.189599  2 O  pz                34  -0.005744 0.189599  1 O  pz         
    43  -0.004939 0.163037  2 O  s                 29  -0.004939 0.163037  1 O  s          
 
 Vector    7  Occ=1.000000D+00  E=-8.667807D-01
              MO Center=  2.2D-08, -3.4D-08, -2.1D-07, r^2= 5.4D-01
  Bfn.     Coefficient        Function     Bfn.     Coefficient        Function
  ---- -------------------  ------------     ---- -------------------  ------------
     2   0.299845 0.299835  1 O  s                 16  -0.299845-0.299835  2 O  s          
    17   0.286588 0.286578  2 O  s                  3  -0.286588-0.286578  1 O  s          
     1  -0.128297-0.128293  1 O  s                 15   0.128297 0.128293  2 O  s          
 
 Vector    8  Occ=1.000000D+00  E=-7.777806D-01
              MO Center=  2.2D-12, -2.7D-11,  8.6D-09, r^2= 1.4D-07
  Bfn.     Coefficient        Function     Bfn.     Coefficient        Function
  ---- -------------------  ------------     ---- -------------------  ------------
    45   0.015411-0.411393  2 O  s                 31  -0.015411 0.411393  1 O  s          
    30   0.015146-0.404319  1 O  s                 44  -0.015146 0.404319  2 O  s          
    29  -0.006639 0.177236  1 O  s                 43   0.006639-0.177236  2 O  s          
 
 Vector    9  Occ=1.000000D+00  E=-5.523033D-01
              MO Center=  6.2D-10, -4.2D-07, -1.2D-05, r^2= 4.4D-01
  Bfn.     Coefficient        Function     Bfn.     Coefficient        Function
  ---- -------------------  ------------     ---- -------------------  ------------
     5   0.384456-0.000017  1 O  py                 4   0.000021 0.384456  1 O  px         
    18   0.000021 0.384441  2 O  px                19   0.384441-0.000017  2 O  py         
 
 Vector   10  Occ=1.000000D+00  E=-5.514877D-01
              MO Center=  2.3D-06, -5.4D-09,  1.2D-05, r^2= 4.4D-01
  Bfn.     Coefficient        Function     Bfn.     Coefficient        Function
  ---- -------------------  ------------     ---- -------------------  ------------
    18   0.384118-0.000002  2 O  px                19  -0.000002 0.384118  2 O  py         
     5  -0.000002 0.384103  1 O  py                 4   0.384103-0.000002  1 O  px         
 
 Vector   11  Occ=1.000000D+00  E=-5.475564D-01
              MO Center= -2.4D-06,  4.1D-07,  4.4D-07, r^2= 5.8D-01
  Bfn.     Coefficient        Function     Bfn.     Coefficient        Function
  ---- -------------------  ------------     ---- -------------------  ------------
    20   0.377677 0.377658  2 O  pz                 6  -0.377677-0.377658  1 O  pz         
     3   0.171160 0.171152  1 O  s                 17   0.171159 0.171151  2 O  s          
    23   0.110792 0.110786  2 O  pz                 9  -0.110791-0.110785  1 O  pz         
 
 Vector   12  Occ=1.000000D+00  E=-5.093136D-01
              MO Center=  2.7D-11,  1.4D-10, -1.4D-07, r^2= 6.1D-06
  Bfn.     Coefficient        Function     Bfn.     Coefficient        Function
  ---- -------------------  ------------     ---- -------------------  ------------
    34   0.020377 0.523271  1 O  pz                48  -0.020377-0.523270  2 O  pz         
    45  -0.010138-0.260335  2 O  s                 31  -0.010138-0.260333  1 O  s          
    37   0.006464 0.165981  1 O  pz                51  -0.006464-0.165980  2 O  pz         
 
 Vector   13  Occ=1.000000D+00  E=-4.485241D-01
              MO Center=  1.2D-10, -1.9D-12,  3.5D-08, r^2= 6.8D-07
  Bfn.     Coefficient        Function     Bfn.     Coefficient        Function
  ---- -------------------  ------------     ---- -------------------  ------------
    33   0.253545-0.253691  1 O  py                32  -0.253687-0.253549  1 O  px         
    47   0.253530-0.253676  2 O  py                46  -0.253672-0.253534  2 O  px         
    36   0.106152-0.106214  1 O  py                35  -0.106212-0.106154  1 O  px         
    50   0.106141-0.106202  2 O  py                49  -0.106201-0.106143  2 O  px         
 
 Vector   14  Occ=1.000000D+00  E=-4.478191D-01
              MO Center=  2.4D-13,  2.7D-13,  1.1D-12, r^2= 3.0D-12
  Bfn.     Coefficient        Function     Bfn.     Coefficient        Function
  ---- -------------------  ------------     ---- -------------------  ------------
    46   0.253207-0.253514  2 O  px                47  -0.253518-0.253203  2 O  py         
    32   0.253192-0.253499  1 O  px                33  -0.253503-0.253188  1 O  py         
    49   0.106377-0.106506  2 O  px                50  -0.106507-0.106375  2 O  py         
    35   0.106366-0.106495  1 O  px                36  -0.106497-0.106364  1 O  py         
 
 Vector   15  Occ=1.000000D+00  E=-3.379531D-01
              MO Center=  2.2D-10,  3.0D-08,  1.3D-05, r^2= 5.0D-01
  Bfn.     Coefficient        Function     Bfn.     Coefficient        Function
  ---- -------------------  ------------     ---- -------------------  ------------
    19  -0.438173 0.000020  2 O  py                18   0.000001-0.438173  2 O  px         
     4  -0.000001 0.438155  1 O  px                 5   0.438155-0.000020  1 O  py         
    22  -0.206932 0.000009  2 O  py                21   0.000001-0.206932  2 O  px         
     7  -0.000001 0.206931  1 O  px                 8   0.206931-0.000009  1 O  py         
 
 Vector   16  Occ=1.000000D+00  E=-3.368691D-01
              MO Center= -2.3D-08, -5.1D-09, -1.2D-05, r^2= 5.0D-01
  Bfn.     Coefficient        Function     Bfn.     Coefficient        Function
  ---- -------------------  ------------     ---- -------------------  ------------
     4  -0.437835-0.000011  1 O  px                 5  -0.000011-0.437835  1 O  py         
    19   0.000011 0.437816  2 O  py                18   0.437816 0.000011  2 O  px         
     7  -0.207658-0.000005  1 O  px                 8  -0.000005-0.207658  1 O  py         
    22   0.000005 0.207657  2 O  py                21   0.207657 0.000005  2 O  px         
 
 Vector   17  Occ=0.000000D+00  E=-1.457489D-01
              MO Center=  2.7D-12,  2.3D-11, -2.9D-07, r^2= 4.6D-06
  Bfn.     Coefficient        Function     Bfn.     Coefficient        Function
  ---- -------------------  ------------     ---- -------------------  ------------
    47   0.289989-0.289732  2 O  py                46  -0.289750-0.289971  2 O  px         
    33  -0.289974 0.289717  1 O  py                32   0.289735 0.289956  1 O  px         
    50   0.187554-0.187388  2 O  py                49  -0.187399-0.187542  2 O  px         
    36  -0.187550 0.187384  1 O  py                35   0.187395 0.187538  1 O  px         
 
 Vector   18  Occ=0.000000D+00  E=-1.448102D-01
              MO Center= -1.9D-13, -2.3D-13, -3.9D-13, r^2= 1.9D-12
  Bfn.     Coefficient        Function     Bfn.     Coefficient        Function
  ---- -------------------  ------------     ---- -------------------  ------------
    32   0.289490-0.289649  1 O  px                33  -0.289631-0.289508  1 O  py         
    46  -0.289475 0.289634  2 O  px                47   0.289616 0.289493  2 O  py         
    35   0.187985-0.188089  1 O  px                36  -0.188077-0.187997  1 O  py         
    49  -0.187981 0.188085  2 O  px                50   0.188073 0.187993  2 O  py         
 
 Vector   19  Occ=0.000000D+00  E= 9.357920D-02
              MO Center=  2.6D-08,  2.7D-08, -7.2D-07, r^2= 7.9D-01
  Bfn.     Coefficient        Function     Bfn.     Coefficient        Function
  ---- -------------------  ------------     ---- -------------------  ------------
    17  -0.562035-0.562036  2 O  s                  3   0.562033 0.562034  1 O  s          
    23   0.533317 0.533318  2 O  pz                 9   0.533316 0.533317  1 O  pz         
     6   0.406964 0.406965  1 O  pz                20   0.406963 0.406964  2 O  pz         
     2  -0.155875-0.155876  1 O  s                 16   0.155873 0.155873  2 O  s          
 
 Vector   20  Occ=0.000000D+00  E= 1.328872D-01
              MO Center=  4.3D-11,  2.4D-10, -1.7D-07, r^2= 4.0D-06
  Bfn.     Coefficient        Function     Bfn.     Coefficient        Function
  ---- -------------------  ------------     ---- -------------------  ------------
    45  -0.007721 0.894755  2 O  s                 31   0.007721-0.894751  1 O  s          
    51   0.007148-0.828249  2 O  pz                37   0.007148-0.828248  1 O  pz         
    34   0.004699-0.544486  1 O  pz                48   0.004699-0.544485  2 O  pz         
    30  -0.001893 0.219330  1 O  s                 44   0.001893-0.219325  2 O  s          
 
 Vector   21  Occ=0.000000D+00  E= 4.257836D-01
              MO Center=  4.6D-07,  4.0D-07, -1.3D-06, r^2= 1.6D+00
  Bfn.     Coefficient        Function     Bfn.     Coefficient        Function
  ---- -------------------  ------------     ---- -------------------  ------------
    23  -0.925118-0.925117  2 O  pz                 9  -0.925118-0.925116  1 O  pz         
    17   0.815609 0.815608  2 O  s                  3  -0.815604-0.815603  1 O  s          
    20   0.400353 0.400352  2 O  pz                 6   0.400352 0.400351  1 O  pz         
 
 Vector   22  Occ=0.000000D+00  E= 4.424076D-01
              MO Center= -3.4D-10, -5.9D-09,  5.6D-07, r^2= 1.6D-04
  Bfn.     Coefficient        Function     Bfn.     Coefficient        Function
  ---- -------------------  ------------     ---- -------------------  ------------
    51   0.006612 1.279844  2 O  pz                37   0.006611 1.279841  1 O  pz         
    45  -0.005877-1.137663  2 O  s                 31   0.005877 1.137658  1 O  s          
    48  -0.003051-0.590694  2 O  pz                34  -0.003051-0.590692  1 O  pz         
 
 Vector   23  Occ=0.000000D+00  E= 4.860892D-01
              MO Center=  1.7D-09,  5.3D-08,  3.2D-05, r^2= 1.1D+00
  Bfn.     Coefficient        Function     Bfn.     Coefficient        Function
  ---- -------------------  ------------     ---- -------------------  ------------
    22  -0.450090-0.000078  2 O  py                21   0.000116-0.450090  2 O  px         
     8  -0.450020-0.000079  1 O  py                 7   0.000116-0.450020  1 O  px         
    19   0.406331 0.000071  2 O  py                18  -0.000105 0.406331  2 O  px         
     5   0.406303 0.000071  1 O  py                 4  -0.000105 0.406303  1 O  px         
 
 Vector   24  Occ=0.000000D+00  E= 4.868365D-01
              MO Center= -3.6D-08, -1.1D-09, -3.0D-05, r^2= 1.1D+00
  Bfn.     Coefficient        Function     Bfn.     Coefficient        Function
  ---- -------------------  ------------     ---- -------------------  ------------
     7  -0.450023-0.000019  1 O  px                 8  -0.000019-0.450022  1 O  py         
    21  -0.449958-0.000019  2 O  px                22  -0.000019-0.449958  2 O  py         
     4   0.406647 0.000017  1 O  px                 5   0.000017 0.406647  1 O  py         
    18   0.406623 0.000017  2 O  px                19   0.000017 0.406623  2 O  py         
 
 Vector   25  Occ=0.000000D+00  E= 5.302652D-01
              MO Center= -1.3D-09,  2.3D-09,  1.6D-06, r^2= 3.7D-05
  Bfn.     Coefficient        Function     Bfn.     Coefficient        Function
  ---- -------------------  ------------     ---- -------------------  ------------
    50  -0.312674 0.312728  2 O  py                49   0.312754 0.312649  2 O  px         
    36  -0.312631 0.312685  1 O  py                35   0.312710 0.312605  1 O  px         
    47   0.301798-0.301850  2 O  py                46  -0.301875-0.301773  2 O  px         
    33   0.301778-0.301830  1 O  py                32  -0.301854-0.301753  1 O  px         
 
 Vector   26  Occ=0.000000D+00  E= 5.310876D-01
              MO Center=  4.2D-13,  1.5D-12, -3.4D-12, r^2= 1.7D-11
  Bfn.     Coefficient        Function     Bfn.     Coefficient        Function
  ---- -------------------  ------------     ---- -------------------  ------------
    35  -0.312599 0.312637  1 O  px                36   0.312611 0.312625  1 O  py         
    49  -0.312559 0.312596  2 O  px                50   0.312571 0.312584  2 O  py         
    32   0.302001-0.302037  1 O  px                33  -0.302013-0.302026  1 O  py         
    46   0.301983-0.302019  2 O  px                47  -0.301994-0.302007  2 O  py         
 

   alpha - beta orbital overlaps 
   ----------------------------- 


   alpha      1      2      3      4      5      6      7      8      9     10
    beta      1      2      3      4      5      6      4      5      6     19
 overlap   1.061  0.318  0.293  0.275  0.275  0.330  0.089  0.089  0.089  0.000


   alpha     11     12     13     14     15     16     17     18     19     20
    beta     19      6     18     18     15     16     17     18     19     20
 overlap   0.014  0.021  0.014  0.000  1.061  0.318  0.293  0.275  0.275  0.330


   alpha     21     22     23     24     25     26     27     28
    beta     18     19     20     16      5     20      4      5
 overlap   0.089  0.089  0.089  0.000  0.014  0.021  0.014  0.000

     --------------------------
     Expectation value of S2:  
     --------------------------
      <S2> =      2.0092 (Exact =     2.0000)
 
 
     Multipole analysis of the density
     ---------------------------------
 
     L   x y z        total         alpha         beta         nuclear
     -   - - -        -----         -----         ----         -------
     0   0 0 0      0.000000     -8.999996     -7.000004     16.000000
 
     1   1 0 0      0.000000      0.000000      0.000000      0.000000
     1   0 1 0      0.000000      0.000000      0.000000      0.000000
     1   0 0 1     -0.000002     -0.000001     -0.000001      0.000000
 
     2   2 0 0     -7.567249     -4.350081     -3.217168      0.000000
     2   1 1 0      0.000000      0.000000      0.000000      0.000000
     2   1 0 1     -0.000002      0.000000     -0.000001      0.000000
     2   0 2 0     -7.567249     -4.350081     -3.217168      0.000000
     2   0 1 1     -0.000002      0.000000     -0.000001      0.000000
     2   0 0 2     -7.718665    -17.529907    -13.446207     23.257450
 

 Parallel integral file used       4 records with       0 large values

 Line search: 
     step= 1.00 grad=-5.2D-03 hess= 8.1D-03 energy=   -150.504691 mode=bracket 
 new step= 0.32                   predicted energy=   -150.508432

          --------
          Step   1
          --------
 
 
                         Geometry "geometry" -> "geometry"
                         ---------------------------------
 
 Output coordinates in angstroms (scale by  1.889725989 to convert to a.u.)
 
  No.       Tag          Charge          X              Y              Z
 ---- ---------------- ---------- -------------- -------------- --------------
    1 O                    8.0000     0.00000000     0.00000000    -0.61213554
    2 O                    8.0000     0.00000000     0.00000000     0.61213554
 
      Atomic Mass 
      ----------- 
 
      O                 15.994910
 

 Effective nuclear repulsion energy (a.u.)      27.6632720414

            Nuclear Dipole moment (a.u.) 
            ----------------------------
        X                 Y               Z
 ---------------- ---------------- ----------------
     0.0000000000     0.0000000000     0.0000000000
 
      Symmetry information
      --------------------
 
 Group name             D4h       
 Group number             28
 Group order              16
 No. of unique centers     1
 
      Symmetry unique atoms
 
     1
 
                                 NWChem DFT Module
                                 -----------------
 
 
  WARNING: CD fitting not compatible with spinorbit
  WARNING: disabling CD fitting
  Caching 1-el integrals 
 
            General Information
            -------------------
          SCF calculation type: DFT
          Wavefunction type:  spin polarized.
          No. of atoms     :     2
          No. of electrons :    16
           Alpha electrons :     9
            Beta electrons :     7
          Charge           :     0
          Spin multiplicity:     3
          Use of symmetry is: off; symmetry adaption is: off
          Maximum number of iterations: 100
          AO basis - number of functions:    28
                     number of shells:    12
          Convergence on energy requested: 1.00D-06
          Convergence on density requested: 1.00D-05
          Convergence on gradient requested: 5.00D-04
 
              XC Information
              --------------
                         B3LYP Method XC Potential
                     Hartree-Fock (Exact) Exchange  0.200          
                        Slater Exchange Functional  0.800 local    
                    Becke 1988 Exchange Functional  0.720 non-local
              Lee-Yang-Parr Correlation Functional  0.810          
                  VWN I RPA Correlation Functional  0.190 local    
  WARNING: Sum of nonlocal correlation is   0.810000000000000     
  Sum of components do not equal unity or 0. 
  WARNING: Sum of nonlocal exchange is   0.920000000000000     
  Sum of components do not equal unity or 0. 
 
             Grid Information
             ----------------
          Grid used for XC integration:  xfine     
          Radial quadrature: Mura-Knowles        
          Angular quadrature: Lebedev. 
          Tag              B.-S. Rad. Rad. Pts. Rad. Cut. Ang. Pts.
          ---              ---------- --------- --------- ---------
          O                   0.60      100           6.0      1454
          Grid pruning is: on 
          Number of quadrature shells:   200
          Spatial weights used:  Erf1
 
          Convergence Information
          -----------------------
          Convergence aids based upon iterative change in 
          total energy or number of iterations. 
          Levelshifting, if invoked, occurs when the 
          HOMO/LUMO gap drops below (HL_TOL): 1.00D-02
          DIIS, if invoked, will attempt to extrapolate 
          using up to (NFOCK): 10 stored Fock matrices.

                    Damping( 0%)  Levelshifting(0.5)       DIIS
                  --------------- ------------------- ---------------
          dE  on:    start            ASAP                start   
          dE off:    2 iters        100 iters           100 iters 

 
      Screening Tolerance Information
      -------------------------------
          Density screening/tol_rho: 1.00D-10
          AO Gaussian exp screening on grid/accAOfunc:  14
          CD Gaussian exp screening on grid/accCDfunc:  20
          XC Gaussian exp screening on grid/accXCfunc:  20
          Schwarz screening/accCoul: 1.00D-10

 
 Performing spin-orbit zora calculations
 

 Read molecular orbitals from ./o2_zora_so.movecs


 Read atomic ZORA corrections from ./o2_zora_so.zora_so

   Time prior to 1st pass:     23.4

 #quartets = 3.080D+03 #integrals = 2.183D+04 #direct =  0.0% #cached =100.0%


 Integral file          = ./o2_zora_so.aoints.0
 Record size in doubles =  65536        No. of integs per rec  =  43688
 Max. records in memory =      2        Max. records in file   =  82529
 No. of bits per label  =      8        No. of bits per value  =     64


File balance: exchanges=     0  moved=     0  time=   0.0


 Grid_pts file          = ./o2_zora_so.gridpts.0
 Record size in doubles =  12289        No. of grid_pts per rec  =   3070
 Max. records in memory =     28        Max. recs in file   =    440126

 WARNING: error on integrated density =  0.14D-02
 greater than required accuracy of  0.10D-07

           Memory utilization after 1st SCF pass: 
           Heap Space remaining (MW):       12.63            12630280
          Stack Space remaining (MW):       13.10            13099972

   convergence    iter        energy       DeltaE   RMS-Dens  Diis-err    time
 ---------------- ----- ----------------- --------- --------- ---------  ------
 d= 0,ls=0.0,diis     1   -150.5566441231 -1.78D+02  2.40D-03  6.00D-02    23.9
                                                     1.63D-03  6.00D-02
 d= 0,ls=0.0,diis     2   -150.5079202779  4.87D-02  8.10D-04  2.17D-03    24.3
                                                     6.22D-04  2.17D-03
 d= 0,ls=0.0,diis     3   -150.5082199211 -3.00D-04  4.19D-04  5.14D-04    24.8
                                                     2.81D-04  5.14D-04
 d= 0,ls=0.0,diis     4   -150.5083249319 -1.05D-04  8.63D-05  1.72D-05    25.2
                                                     5.99D-05  1.72D-05
 d= 0,ls=0.0,diis     5   -150.5083288715 -3.94D-06  2.96D-06  3.24D-08    25.6
                                                     1.85D-06  3.24D-08
 d= 0,ls=0.0,diis     6   -150.5083288748 -3.35D-09  4.51D-07  1.87D-08    26.1
                                                     7.02D-07  1.87D-08


         Total DFT energy =   -150.508328874929
       Scaling correction =      0.059669811993
      One electron energy =   -261.248003908148
           Coulomb energy =    100.056499326714
    Exchange-Corr. energy =    -16.980096334913
 Nuclear repulsion energy =     27.663272041418

 Numeric. integr. density =     15.999999993067

     Total iterative time =      3.1s


 
                       DFT Final Molecular Orbital Analysis
                       ------------------------------------
 
 Vector    5  Occ=1.000000D+00  E=-1.306412D+00
              MO Center=  5.6D-09, -2.2D-08,  1.8D-06, r^2= 2.4D-01
  Bfn.     Coefficient        Function     Bfn.     Coefficient        Function
  ---- -------------------  ------------     ---- -------------------  ------------
    16   0.263183 0.263180  2 O  s                  2   0.263180 0.263177  1 O  s          
    17  -0.165854-0.165852  2 O  s                  3  -0.165854-0.165852  1 O  s          
    20   0.134783 0.134782  2 O  pz                 6  -0.134783-0.134782  1 O  pz         
    15  -0.118211-0.118210  2 O  s                  1  -0.118210-0.118209  1 O  s          
 
 Vector    6  Occ=1.000000D+00  E=-1.248192D+00
              MO Center=  1.5D-12, -4.3D-14,  2.7D-09, r^2= 3.1D-08
  Bfn.     Coefficient        Function     Bfn.     Coefficient        Function
  ---- -------------------  ------------     ---- -------------------  ------------
    44  -0.000274 0.349772  2 O  s                 30  -0.000274 0.349768  1 O  s          
    45   0.000188-0.239956  2 O  s                 31   0.000188-0.239956  1 O  s          
    48  -0.000160 0.204498  2 O  pz                34   0.000160-0.204497  1 O  pz         
    43   0.000128-0.163012  2 O  s                 29   0.000128-0.163011  1 O  s          
 
 Vector    7  Occ=1.000000D+00  E=-8.504030D-01
              MO Center=  2.4D-08, -3.8D-08,  2.1D-06, r^2= 5.3D-01
  Bfn.     Coefficient        Function     Bfn.     Coefficient        Function
  ---- -------------------  ------------     ---- -------------------  ------------
     2  -0.296683-0.296680  1 O  s                 16   0.296682 0.296680  2 O  s          
    17  -0.288507-0.288505  2 O  s                  3   0.288507 0.288505  1 O  s          
     1   0.127139 0.127138  1 O  s                 15  -0.127139-0.127138  2 O  s          
 
 Vector    8  Occ=1.000000D+00  E=-7.618427D-01
              MO Center=  1.5D-12, -3.8D-11,  1.0D-08, r^2= 2.2D-07
  Bfn.     Coefficient        Function     Bfn.     Coefficient        Function
  ---- -------------------  ------------     ---- -------------------  ------------
    45  -0.000378 0.411506  2 O  s                 31   0.000378-0.411504  1 O  s          
    44   0.000368-0.400415  2 O  s                 30  -0.000368 0.400415  1 O  s          
    43  -0.000161 0.175508  2 O  s                 29   0.000161-0.175508  1 O  s          
    48  -0.000139 0.151211  2 O  pz                34  -0.000139 0.151203  1 O  pz         
 
 Vector    9  Occ=1.000000D+00  E=-5.672376D-01
              MO Center=  9.7D-10, -2.0D-07, -5.4D-06, r^2= 4.2D-01
  Bfn.     Coefficient        Function     Bfn.     Coefficient        Function
  ---- -------------------  ------------     ---- -------------------  ------------
     4  -0.000002 0.383848  1 O  px                 5   0.383848 0.000006  1 O  py         
    18  -0.000002 0.383843  2 O  px                19   0.383843 0.000006  2 O  py         
 
 Vector   10  Occ=1.000000D+00  E=-5.664277D-01
              MO Center=  8.6D-07, -5.6D-09,  1.6D-05, r^2= 4.2D-01
  Bfn.     Coefficient        Function     Bfn.     Coefficient        Function
  ---- -------------------  ------------     ---- -------------------  ------------
    19   0.000002-0.383529  2 O  py                18  -0.383529 0.000002  2 O  px         
     5   0.000002-0.383507  1 O  py                 4  -0.383507 0.000002  1 O  px         
 
 Vector   11  Occ=1.000000D+00  E=-5.540888D-01
              MO Center= -8.8D-07,  2.1D-07, -2.6D-06, r^2= 5.6D-01
  Bfn.     Coefficient        Function     Bfn.     Coefficient        Function
  ---- -------------------  ------------     ---- -------------------  ------------
    20  -0.375806-0.375798  2 O  pz                 6   0.375804 0.375796  1 O  pz         
     3  -0.181634-0.181630  1 O  s                 17  -0.181629-0.181625  2 O  s          
    23  -0.106937-0.106934  2 O  pz                 9   0.106936 0.106933  1 O  pz         
 
 Vector   12  Occ=1.000000D+00  E=-5.141675D-01
              MO Center=  1.9D-11,  1.2D-10, -9.3D-08, r^2= 4.6D-06
  Bfn.     Coefficient        Function     Bfn.     Coefficient        Function
  ---- -------------------  ------------     ---- -------------------  ------------
    48  -0.000369-0.521002  2 O  pz                34   0.000369 0.521001  1 O  pz         
    31  -0.000195-0.275514  1 O  s                 45  -0.000195-0.275509  2 O  s          
    37   0.000114 0.160510  1 O  pz                51  -0.000114-0.160509  2 O  pz         
 
 Vector   13  Occ=1.000000D+00  E=-4.647083D-01
              MO Center=  1.0D-10, -7.1D-12,  2.3D-08, r^2= 4.7D-07
  Bfn.     Coefficient        Function     Bfn.     Coefficient        Function
  ---- -------------------  ------------     ---- -------------------  ------------
    32  -0.254158-0.253809  1 O  px                33   0.253805-0.254161  1 O  py         
    46  -0.254148-0.253799  2 O  px                47   0.253796-0.254151  2 O  py         
 
 Vector   14  Occ=1.000000D+00  E=-4.640055D-01
              MO Center=  2.0D-13,  2.3D-13,  1.1D-12, r^2= 3.1D-12
  Bfn.     Coefficient        Function     Bfn.     Coefficient        Function
  ---- -------------------  ------------     ---- -------------------  ------------
    47  -0.254046-0.253429  2 O  py                46   0.253433-0.254042  2 O  px         
    33  -0.254029-0.253412  1 O  py                32   0.253416-0.254025  1 O  px         
 
 Vector   15  Occ=1.000000D+00  E=-3.223706D-01
              MO Center=  4.8D-10,  3.3D-08,  5.9D-06, r^2= 4.8D-01
  Bfn.     Coefficient        Function     Bfn.     Coefficient        Function
  ---- -------------------  ------------     ---- -------------------  ------------
    18  -0.000016 0.440354  2 O  px                19   0.440354-0.000005  2 O  py         
     4   0.000016-0.440342  1 O  px                 5  -0.440342 0.000005  1 O  py         
     7   0.000008-0.216785  1 O  px                 8  -0.216785 0.000003  1 O  py         
    21  -0.000008 0.216782  2 O  px                22   0.216782-0.000003  2 O  py         
 
 Vector   16  Occ=1.000000D+00  E=-3.212741D-01
              MO Center= -2.8D-08, -5.3D-09, -1.6D-05, r^2= 4.8D-01
  Bfn.     Coefficient        Function     Bfn.     Coefficient        Function
  ---- -------------------  ------------     ---- -------------------  ------------
     5   0.000011 0.440011  1 O  py                 4   0.440011 0.000011  1 O  px         
    19  -0.000011-0.439988  2 O  py                18  -0.439988-0.000011  2 O  px         
     8   0.000005 0.217540  1 O  py                 7   0.217540 0.000005  1 O  px         
    22  -0.000005-0.217537  2 O  py                21  -0.217537-0.000005  2 O  px         
 
 Vector   17  Occ=0.000000D+00  E=-1.293590D-01
              MO Center=  2.0D-12,  2.4D-11, -2.7D-07, r^2= 4.0D-06
  Bfn.     Coefficient        Function     Bfn.     Coefficient        Function
  ---- -------------------  ------------     ---- -------------------  ------------
    46   0.290642 0.290988  2 O  px                47  -0.291006 0.290624  2 O  py         
[...]
  ---- -------------------  ------------     ---- -------------------  ------------
    34  -0.008061 0.520818  1 O  pz                48   0.008061-0.520817  2 O  pz         
    45   0.004274-0.276111  2 O  s                 31   0.004273-0.276104  1 O  s          
    37  -0.002480 0.160243  1 O  pz                51   0.002480-0.160242  2 O  pz         
 
 Vector   13  Occ=1.000000D+00  E=-4.654519D-01
              MO Center=  9.9D-11, -9.0D-12,  2.2D-08, r^2= 4.4D-07
  Bfn.     Coefficient        Function     Bfn.     Coefficient        Function
  ---- -------------------  ------------     ---- -------------------  ------------
    32  -0.249480-0.258455  1 O  px                33   0.258451-0.249483  1 O  py         
    46  -0.249465-0.258439  2 O  px                47   0.258435-0.249468  2 O  py         
 
 Vector   14  Occ=1.000000D+00  E=-4.647492D-01
              MO Center=  2.0D-13,  2.2D-13,  1.1D-12, r^2= 3.0D-12
  Bfn.     Coefficient        Function     Bfn.     Coefficient        Function
  ---- -------------------  ------------     ---- -------------------  ------------
    47   0.246843 0.260486  2 O  py                46  -0.260489 0.246838  2 O  px         
    33   0.246832 0.260474  1 O  py                32  -0.260477 0.246828  1 O  px         
 
 Vector   15  Occ=1.000000D+00  E=-3.216520D-01
              MO Center=  4.7D-10,  3.3D-08,  1.5D-05, r^2= 4.8D-01
  Bfn.     Coefficient        Function     Bfn.     Coefficient        Function
  ---- -------------------  ------------     ---- -------------------  ------------
    18   0.000100-0.440454  2 O  px                19  -0.440453-0.000079  2 O  py         
     4  -0.000100 0.440432  1 O  px                 5   0.440432 0.000079  1 O  py         
    21   0.000049-0.217252  2 O  px                22  -0.217251-0.000039  2 O  py         
     7  -0.000049 0.217249  1 O  px                 8   0.217249 0.000039  1 O  py         
 
 Vector   16  Occ=1.000000D+00  E=-3.205549D-01
              MO Center= -2.8D-08, -5.3D-09, -7.2D-06, r^2= 4.8D-01
  Bfn.     Coefficient        Function     Bfn.     Coefficient        Function
  ---- -------------------  ------------     ---- -------------------  ------------
     5   0.000011 0.440101  1 O  py                 4   0.440100 0.000011  1 O  px         
    19  -0.000011-0.440087  2 O  py                18  -0.440087-0.000011  2 O  px         
    22  -0.000005-0.218007  2 O  py                21  -0.218007-0.000005  2 O  px         
     8   0.000005 0.218005  1 O  py                 7   0.218005 0.000005  1 O  px         
 
 Vector   17  Occ=0.000000D+00  E=-1.286109D-01
              MO Center=  2.4D-12,  2.4D-11, -2.8D-07, r^2= 4.1D-06
  Bfn.     Coefficient        Function     Bfn.     Coefficient        Function
  ---- -------------------  ------------     ---- -------------------  ------------
    46   0.295697 0.285933  2 O  px                47  -0.285952 0.295679  2 O  py         
    32  -0.295682-0.285919  1 O  px                33   0.285937-0.295664  1 O  py         
    49   0.200310 0.193696  2 O  px                50  -0.193708 0.200297  2 O  py         
    35  -0.200305-0.193691  1 O  px                36   0.193704-0.200293  1 O  py         
 
 Vector   18  Occ=0.000000D+00  E=-1.276646D-01
              MO Center= -2.0D-13, -2.5D-13, -2.8D-13, r^2= 1.9D-12
  Bfn.     Coefficient        Function     Bfn.     Coefficient        Function
  ---- -------------------  ------------     ---- -------------------  ------------
    33   0.288729 0.292369  1 O  py                32  -0.292351 0.288747  1 O  px         
    47  -0.288716-0.292357  2 O  py                46   0.292338-0.288734  2 O  px         
    36   0.196378 0.198854  1 O  py                35  -0.198841 0.196390  1 O  px         
    50  -0.196376-0.198852  2 O  py                49   0.198840-0.196388  2 O  px         
 
 Vector   19  Occ=0.000000D+00  E= 1.497992D-01
              MO Center=  5.3D-08,  4.3D-08, -1.5D-07, r^2= 9.4D-01
  Bfn.     Coefficient        Function     Bfn.     Coefficient        Function
  ---- -------------------  ------------     ---- -------------------  ------------
    17  -0.721290-0.721244  2 O  s                  3   0.721287 0.721241  1 O  s          
    23   0.643917 0.643876  2 O  pz                 9   0.643915 0.643874  1 O  pz         
    20   0.368435 0.368411  2 O  pz                 6   0.368434 0.368411  1 O  pz         
     2  -0.162090-0.162080  1 O  s                 16   0.162086 0.162076  2 O  s          
 
 Vector   20  Occ=0.000000D+00  E= 1.866876D-01
              MO Center=  4.8D-11,  3.3D-10, -1.8D-07, r^2= 3.9D-06
  Bfn.     Coefficient        Function     Bfn.     Coefficient        Function
  ---- -------------------  ------------     ---- -------------------  ------------
    45  -0.014836 1.143484  2 O  s                 31   0.014836-1.143480  1 O  s          
    51   0.012985-1.000830  2 O  pz                37   0.012985-1.000828  1 O  pz         
    34   0.006198-0.477693  1 O  pz                48   0.006198-0.477693  2 O  pz         
    30  -0.002889 0.222690  1 O  s                 44   0.002889-0.222684  2 O  s          
 
 Vector   21  Occ=0.000000D+00  E= 4.414385D-01
              MO Center=  4.9D-07,  4.2D-07, -8.2D-06, r^2= 1.4D+00
  Bfn.     Coefficient        Function     Bfn.     Coefficient        Function
  ---- -------------------  ------------     ---- -------------------  ------------
     9   0.871004 0.871227  1 O  pz                23   0.870996 0.871219  2 O  pz         
    17  -0.819659-0.819869  2 O  s                  3   0.819651 0.819860  1 O  s          
     6  -0.436853-0.436965  1 O  pz                20  -0.436850-0.436962  2 O  pz         
 
 Vector   22  Occ=0.000000D+00  E= 4.620184D-01
              MO Center=  3.9D-10, -1.2D-08,  8.0D-07, r^2= 7.4D-04
  Bfn.     Coefficient        Function     Bfn.     Coefficient        Function
  ---- -------------------  ------------     ---- -------------------  ------------
    37  -0.109951 1.173774  1 O  pz                51  -0.109950 1.173766  2 O  pz         
    45   0.103525-1.105170  2 O  s                 31  -0.103524 1.105161  1 O  s          
    34   0.060273-0.643437  1 O  pz                48   0.060272-0.643434  2 O  pz         
 
 Vector   23  Occ=0.000000D+00  E= 4.838009D-01
              MO Center=  2.6D-09,  6.2D-08,  2.6D-05, r^2= 1.1D+00
  Bfn.     Coefficient        Function     Bfn.     Coefficient        Function
  ---- -------------------  ------------     ---- -------------------  ------------
    22   0.448019-0.001179  2 O  py                21   0.001140 0.448017  2 O  px         
     8   0.447960-0.001179  1 O  py                 7   0.001140 0.447958  1 O  px         
    19  -0.400692 0.001055  2 O  py                18  -0.001020-0.400690  2 O  px         
     5  -0.400669 0.001054  1 O  py                 4  -0.001020-0.400667  1 O  px         
 
 Vector   24  Occ=0.000000D+00  E= 4.845182D-01
              MO Center= -2.2D-08, -1.4D-09, -3.6D-05, r^2= 1.1D+00
  Bfn.     Coefficient        Function     Bfn.     Coefficient        Function
  ---- -------------------  ------------     ---- -------------------  ------------
     7   0.448096 0.000019  1 O  px                 8   0.000019 0.448094  1 O  py         
    21   0.448013 0.000019  2 O  px                22   0.000019 0.448011  2 O  py         
     4  -0.401104-0.000017  1 O  px                 5  -0.000017-0.401102  1 O  py         
    18  -0.401074-0.000017  2 O  px                19  -0.000017-0.401072  2 O  py         
 
 Vector   25  Occ=0.000000D+00  E= 5.264090D-01
              MO Center= -1.5D-09,  2.8D-09,  2.1D-06, r^2= 5.4D-05
  Bfn.     Coefficient        Function     Bfn.     Coefficient        Function
  ---- -------------------  ------------     ---- -------------------  ------------
    50  -0.319464 0.303855  2 O  py                49   0.303881 0.319437  2 O  px         
    36  -0.319426 0.303819  1 O  py                35   0.303845 0.319399  1 O  px         
    47   0.304232-0.289368  2 O  py                46  -0.289392-0.304207  2 O  px         
    33   0.304216-0.289352  1 O  py                32  -0.289376-0.304190  1 O  px         
 
 Vector   26  Occ=0.000000D+00  E= 5.272024D-01
              MO Center=  4.2D-13,  1.5D-12, -3.3D-12, r^2= 1.7D-11
  Bfn.     Coefficient        Function     Bfn.     Coefficient        Function
  ---- -------------------  ------------     ---- -------------------  ------------
    35   0.306243-0.317046  1 O  px                36  -0.317018-0.306269  1 O  py         
    49   0.306192-0.316992  2 O  px                50  -0.316965-0.306217  2 O  py         
    32  -0.291891 0.302187  1 O  px                33   0.302161 0.291915  1 O  py         
    46  -0.291869 0.302164  2 O  px                47   0.302138 0.291893  2 O  py         
 

   alpha - beta orbital overlaps 
   ----------------------------- 


   alpha      1      2      3      4      5      6      7      8      9     10
    beta      1      2      3     18     19      6     18     19      6     19
 overlap   1.060  0.313  0.295  0.275  0.275  0.337  0.086  0.086  0.086  0.000


   alpha     11     12     13     14     15     16     17     18     19     20
    beta     19      6     18     18     15     16     17     18     19     20
 overlap   0.015  0.022  0.015  0.000  1.060  0.313  0.295  0.275  0.275  0.338


   alpha     21     22     23     24     25     26     27     28
    beta     18     19     20     16     19     20     18      5
 overlap   0.086  0.086  0.086  0.000  0.015  0.022  0.015  0.000

     --------------------------
     Expectation value of S2:  
     --------------------------
      <S2> =      2.0086 (Exact =     2.0000)
 
 
     Multipole analysis of the density
     ---------------------------------
 
     L   x y z        total         alpha         beta         nuclear
     -   - - -        -----         -----         ----         -------
     0   0 0 0      0.000000     -8.999996     -7.000004     16.000000
 
     1   1 0 0      0.000000      0.000000      0.000000      0.000000
     1   0 1 0      0.000000      0.000000      0.000000      0.000000
     1   0 0 1      0.000020      0.000002      0.000017      0.000000
 
     2   2 0 0     -7.489284     -4.322052     -3.167233      0.000000
     2   1 1 0      0.000000      0.000000      0.000000      0.000000
     2   1 0 1     -0.000002      0.000000     -0.000001      0.000000
     2   0 2 0     -7.489284     -4.322052     -3.167233      0.000000
     2   0 1 1     -0.000002      0.000000     -0.000001      0.000000
     2   0 0 2     -7.794760    -16.512469    -12.614378     21.332087
 

 Parallel integral file used       4 records with       0 large values

 Line search: 
     step= 1.00 grad=-6.5D-08 hess= 3.0D-08 energy=   -150.508336 mode=accept  
 new step= 1.00                   predicted energy=   -150.508336

          --------
          Step   3
          --------
 
 
                         Geometry "geometry" -> "geometry"
                         ---------------------------------
 
 Output coordinates in angstroms (scale by  1.889725989 to convert to a.u.)
 
  No.       Tag          Charge          X              Y              Z
 ---- ---------------- ---------- -------------- -------------- --------------
    1 O                    8.0000     0.00000000     0.00000000    -0.61102340
    2 O                    8.0000     0.00000000     0.00000000     0.61102340
 
      Atomic Mass 
      ----------- 
 
      O                 15.994910
 

 Effective nuclear repulsion energy (a.u.)      27.7136225915

            Nuclear Dipole moment (a.u.) 
            ----------------------------
        X                 Y               Z
 ---------------- ---------------- ----------------
     0.0000000000     0.0000000000     0.0000000000
 
      Symmetry information
      --------------------
 
 Group name             D4h       
 Group number             28
 Group order              16
 No. of unique centers     1
 
      Symmetry unique atoms
 
     1
 
                                 NWChem DFT Module
                                 -----------------
 
 
  WARNING: CD fitting not compatible with spinorbit
  WARNING: disabling CD fitting

  The DFT is already converged 

         Total DFT energy =   -150.508335863301

  WARNING: CD fitting not compatible with spinorbit
  WARNING: disabling CD fitting
 
 
                            NWChem DFT Gradient Module
                            --------------------------
 
 

  charge          =   0.00
  wavefunction    = open shell


 Read molecular orbitals from ./o2_zora_so.movecs

  Using symmetry

 Read molecular orbitals from ./o2_zora_so.movecs


 Read molecular orbitals from ./o2_zora_so.movecs



                         sodft ENERGY GRADIENTS

    atom               coordinates                        gradient
                 x          y          z           x          y          z
   1 O       0.000000   0.000000  -1.154667    0.000000   0.000000   0.000020
   2 O       0.000000   0.000000   1.154667    0.000000   0.000000  -0.000020
 
                 ----------------------------------------
                 |  Time  |  1-e(secs)   |  2-e(secs)   |
                 ----------------------------------------
                 |  CPU   |       0.00   |       0.04   |
                 ----------------------------------------
                 |  WALL  |       0.00   |       0.05   |
                 ----------------------------------------

  Step       Energy      Delta E   Gmax     Grms     Xrms     Xmax   Walltime
  ---- ---------------- -------- -------- -------- -------- -------- --------
@    3    -150.50833586 -3.5D-08  0.00002  0.00001  0.00008  0.00014     40.3
                                     ok       ok       ok       ok  


      ----------------------
      Optimization converged
      ----------------------


  Step       Energy      Delta E   Gmax     Grms     Xrms     Xmax   Walltime
  ---- ---------------- -------- -------- -------- -------- -------- --------
@    3    -150.50833586 -3.5D-08  0.00002  0.00001  0.00008  0.00014     40.3
                                     ok       ok       ok       ok  

 
 
                         Geometry "geometry" -> "geometry"
                         ---------------------------------
 
 Output coordinates in angstroms (scale by  1.889725989 to convert to a.u.)
 
  No.       Tag          Charge          X              Y              Z
 ---- ---------------- ---------- -------------- -------------- --------------
    1 O                    8.0000     0.00000000     0.00000000    -0.61102340
    2 O                    8.0000     0.00000000     0.00000000     0.61102340
 
      Atomic Mass 
      ----------- 
 
      O                 15.994910
 

 Effective nuclear repulsion energy (a.u.)      27.7136225915

            Nuclear Dipole moment (a.u.) 
            ----------------------------
        X                 Y               Z
 ---------------- ---------------- ----------------
     0.0000000000     0.0000000000     0.0000000000
 
      Symmetry information
      --------------------
 
 Group name             D4h       
 Group number             28
 Group order              16
 No. of unique centers     1
 
      Symmetry unique atoms
 
     1
 
 ==============================================================================
                                internuclear distances
 ------------------------------------------------------------------------------
       center one      |      center two      | atomic units |  angstroms
 ------------------------------------------------------------------------------
    2 O                |   1 O                |     2.30933  |     1.22205
 ------------------------------------------------------------------------------
                         number of included internuclear distances:          1
 ==============================================================================




 Task  times  cpu:       33.8s     wall:       38.8s
 
 
                                NWChem Input Module
                                -------------------
 
 
 Summary of allocated global arrays
-----------------------------------
  array 0 => double precision Movecs Re(28,28),  handle: -987 
  array 1 => double precision Movecs Re(28,28),  handle: -986 
  array 2 => double precision Movecs Im(28,28),  handle: -985 
  array 3 => double precision Movecs Re(28,28),  handle: -984 
  array 4 => double precision Movecs Im(28,28),  handle: -983 
  array 5 => double precision Movecs Re(28,28),  handle: -982 
  array 6 => double precision Movecs Im(28,28),  handle: -981 
  array 7 => double precision Movecs Re(28,28),  handle: -980 
  array 8 => double precision Movecs Im(28,28),  handle: -979 
  array 9 => double precision Movecs Im(28,28),  handle: -977 



                         GA Statistics for process    0
                         ------------------------------

       create   destroy   get      put      acc     scatter   gather  read&inc
calls: 4571     4561     5.50e+04 1.82e+04 8456        4        0        0     
number of processes/call 1.26e+00 1.73e+00 1.04e+00 4.00e+00 0.00e+00
bytes total:             4.35e+07 2.82e+07 1.19e+07 5.12e+02 0.00e+00 0.00e+00
bytes remote:            2.12e+07 1.43e+07 5.03e+06 3.84e+02 0.00e+00 0.00e+00
Max memory consumed for GA by this process: 515872 bytes
 
MA_summarize_allocated_blocks: starting scan ...
MA_summarize_allocated_blocks: scan completed: 0 heap blocks, 0 stack blocks
MA usage statistics:

	allocation statistics:
					      heap	     stack
					      ----	     -----
	current number of blocks	         0	         0
	maximum number of blocks	        25	        59
	current total bytes		         0	         0
	maximum total bytes		   3814936	  28858040
	maximum total K-bytes		      3815	     28859
	maximum total M-bytes		         4	        29



                                  ACKNOWLEDGEMENT
                                  ---------------

            Please use the following acknowledgement where appropriate 
            for results obtained with NWChem:

            High Performance Computational Chemistry Group, "NWChem, A
            Computational Chemistry Package for Parallel Computers, 
            Version 5.1" (2007), Pacific Northwest National Laboratory,
            Richland, Washington 99352-0999, USA.


                                     CITATION
                                     --------

          Please use the following citation when publishing results
          obtained with NWChem:

          E. J. Bylaska, W. A. de Jong, N. Govind, K. Kowalski, T. P. Straatsma,
          M. Valiev, D. Wang, E. Apra, T. L. Windus, J. Hammond, P. Nichols,
          S. Hirata, M. T. Hackler, Y. Zhao, P.-D. Fan, R. J. Harrison,
          M. Dupuis, D. M. A. Smith, J. Nieplocha, V. Tipparaju, M. Krishnan,
          Q. Wu, T. Van Voorhis, A. A. Auer, M. Nooijen,
          E. Brown, G. Cisneros, G. I. Fann, H. Fruchtl, J. Garza, K. Hirao,
          R. Kendall, J. A. Nichols, K. Tsemekhman, K. Wolinski, J. Anchell,
          D. Bernholdt, P. Borowski, T. Clark, D. Clerc, H. Dachsel, M. Deegan,
          K. Dyall, D. Elwood, E. Glendening, M. Gutowski, A. Hess, J. Jaffe,
          B. Johnson, J. Ju, R. Kobayashi, R. Kutteh, Z. Lin, R. Littlefield,
          X. Long, B. Meng, T. Nakajima, S. Niu, L. Pollack, M. Rosing,
          G. Sandrone, M. Stave, H. Taylor, G. Thomas, J. van Lenthe, A. Wong,
          and Z. Zhang,
          "NWChem, A Computational Chemistry Package for Parallel Computers, 
          Version 5.1" (2007),
                      Pacific Northwest National Laboratory,
                      Richland, Washington 99352-0999, USA.



 Total times  cpu:       33.8s     wall:       40.3s
