 argument  1 = disp_dimer_ch4_cgmin.nw
 


============================== echo of input deck ==============================
echo
# calculation for methane dimer Grimme JCC 2004
# with BLYP/TZVP2P

title "ch4_2"


start ch4_2

geometry units angstroms noautoz
 C 0.00000000 0.00000000 1.78977169
 H 0.00000000 0.00000000 2.88489619
 H -0.72912121 0.72912121 1.42221856
 H -0.26687689 -0.99599810 1.42221856
 H 0.99599810 0.26687689 1.42221856
 C 0.00000000 0.00000000 -1.78977169
 H -0.99599810 -0.26687689 -1.42221856
 H 0.00000000 0.00000000 -2.88489619
 H 0.72912121 -0.72912121 -1.42221856
 H 0.26687689 0.99599810 -1.42221856
end


basis "ao basis" spherical noprint
  * library cc-pvdz
end

dft
 cgmin
 xc  becke88 1. lyp 1.
 vectors output ch4_2.movecs
 direct
 disp vdw 1
end
task dft optimize

dft
 cgmin
 disp vdw 3
end
task dft energy
================================================================================


                                         
                                         
 
 
              Northwest Computational Chemistry Package (NWChem) 6.6
              ------------------------------------------------------
 
 
                    Environmental Molecular Sciences Laboratory
                       Pacific Northwest National Laboratory
                                Richland, WA 99352
 
                              Copyright (c) 1994-2015
                       Pacific Northwest National Laboratory
                            Battelle Memorial Institute
 
             NWChem is an open-source computational chemistry package
                        distributed under the terms of the
                      Educational Community License (ECL) 2.0
             A copy of the license is included with this distribution
                              in the LICENSE.TXT file
 
                                  ACKNOWLEDGMENT
                                  --------------

            This software and its documentation were developed at the
            EMSL at Pacific Northwest National Laboratory, a multiprogram
            national laboratory, operated for the U.S. Department of Energy
            by Battelle under Contract Number DE-AC05-76RL01830. Support
            for this work was provided by the Department of Energy Office
            of Biological and Environmental Research, Office of Basic
            Energy Sciences, and the Office of Advanced Scientific Computing.


           Job information
           ---------------

    hostname        = lagrange
    program         = /home/edo/nwchem/bin/LINUX64/nwchem
    date            = Mon Jul 25 15:38:58 2016

    compiled        = Mon_Jul_25_15:21:07_2016
    source          = /home/edo/nwchem
    nwchem branch   = Development
    nwchem revision = 28369
    ga revision     = 10684
    input           = disp_dimer_ch4_cgmin.nw
    prefix          = ch4_2.
    data base       = ./ch4_2.db
    status          = startup
    nproc           =        3
    time left       =     -1s



           Memory information
           ------------------

    heap     =   13107200 doubles =    100.0 Mbytes
    stack    =   13107197 doubles =    100.0 Mbytes
    global   =   26214400 doubles =    200.0 Mbytes (distinct from heap & stack)
    total    =   52428797 doubles =    400.0 Mbytes
    verify   = yes
    hardfail = no 


           Directory information
           ---------------------
 
  0 permanent = .
  0 scratch   = .
 
 
 
 
                                NWChem Input Module
                                -------------------
 
 
                                       ch4_2
                                       -----

 Scaling coordinates for geometry "geometry" by  1.889725989
 (inverse scale =  0.529177249)

 D3D symmetry detected
 
 
                             Geometry "geometry" -> ""
                             -------------------------
 
 Output coordinates in angstroms (scale by  1.889725989 to convert to a.u.)
 
  No.       Tag          Charge          X              Y              Z
 ---- ---------------- ---------- -------------- -------------- --------------
    1 C                    6.0000     0.00000000    -0.00000000     1.78977169
    2 H                    1.0000     0.00000000     0.00000000     2.88489619
    3 H                    1.0000    -0.72912121     0.72912121     1.42221856
    4 H                    1.0000    -0.26687689    -0.99599810     1.42221856
    5 H                    1.0000     0.99599810     0.26687689     1.42221856
    6 C                    6.0000     0.00000000     0.00000000    -1.78977169
    7 H                    1.0000    -0.99599810    -0.26687689    -1.42221856
    8 H                    1.0000     0.00000000     0.00000000    -2.88489619
    9 H                    1.0000     0.72912121    -0.72912121    -1.42221856
   10 H                    1.0000     0.26687689     0.99599810    -1.42221856
 
      Atomic Mass 
      ----------- 
 
      C                 12.000000
      H                  1.007825
 

 Effective nuclear repulsion energy (a.u.)      41.3906222755

            Nuclear Dipole moment (a.u.) 
            ----------------------------
        X                 Y               Z
 ---------------- ---------------- ----------------
     0.0000000000    -0.0000000000     0.0000000000
 
      Symmetry information
      --------------------
 
 Group name             D3d       
 Group number             33
 Group order              12
 No. of unique centers     3
 
      Symmetry unique atoms
 
     1    2    3
 
 
            XYZ format geometry
            -------------------
    10
 geometry
 C                     0.00000000    -0.00000000     1.78977169
 H                     0.00000000     0.00000000     2.88489619
 H                    -0.72912121     0.72912121     1.42221856
 H                    -0.26687689    -0.99599810     1.42221856
 H                     0.99599810     0.26687689     1.42221856
 C                     0.00000000     0.00000000    -1.78977169
 H                    -0.99599810    -0.26687689    -1.42221856
 H                     0.00000000     0.00000000    -2.88489619
 H                     0.72912121    -0.72912121    -1.42221856
 H                     0.26687689     0.99599810    -1.42221856
 
 ==============================================================================
                                internuclear distances
 ------------------------------------------------------------------------------
       center one      |      center two      | atomic units |  angstroms
 ------------------------------------------------------------------------------
    2 H                |   1 C                |     2.06949  |     1.09512
    3 H                |   1 C                |     2.06865  |     1.09468
    4 H                |   1 C                |     2.06865  |     1.09468
    5 H                |   1 C                |     2.06865  |     1.09468
    7 H                |   6 C                |     2.06865  |     1.09468
    8 H                |   6 C                |     2.06949  |     1.09512
    9 H                |   6 C                |     2.06865  |     1.09468
   10 H                |   6 C                |     2.06865  |     1.09468
 ------------------------------------------------------------------------------
                         number of included internuclear distances:          8
 ==============================================================================



 ==============================================================================
                                 internuclear angles
 ------------------------------------------------------------------------------
        center 1       |       center 2       |       center 3       |  degrees
 ------------------------------------------------------------------------------
    2 H                |   1 C                |   3 H                |   109.62
    2 H                |   1 C                |   4 H                |   109.62
    2 H                |   1 C                |   5 H                |   109.62
    3 H                |   1 C                |   4 H                |   109.32
    3 H                |   1 C                |   5 H                |   109.32
    4 H                |   1 C                |   5 H                |   109.32
    7 H                |   6 C                |   8 H                |   109.62
    7 H                |   6 C                |   9 H                |   109.32
    7 H                |   6 C                |  10 H                |   109.32
    8 H                |   6 C                |   9 H                |   109.62
    8 H                |   6 C                |  10 H                |   109.62
    9 H                |   6 C                |  10 H                |   109.32
 ------------------------------------------------------------------------------
                            number of included internuclear angles:         12
 ==============================================================================



 
 
                           NWChem Geometry Optimization
                           ----------------------------
 
 
 
 
                                       ch4_2
 
 
 maximum gradient threshold         (gmax) =   0.000450
 rms gradient threshold             (grms) =   0.000300
 maximum cartesian step threshold   (xmax) =   0.001800
 rms cartesian step threshold       (xrms) =   0.001200
 fixed trust radius                (trust) =   0.300000
 maximum step size to saddle      (sadstp) =   0.100000
 energy precision                  (eprec) =   5.0D-06
 maximum number of steps          (nptopt) =   20
 initial hessian option           (inhess) =    0
 line search option               (linopt) =    1
 hessian update option            (modupd) =    1
 saddle point option              (modsad) =    0
 initial eigen-mode to follow     (moddir) =    0
 initial variable to follow       (vardir) =    0
 follow first negative mode     (firstneg) =    T
 apply conjugacy                    (opcg) =    F
 source of zmatrix                         =           


          -------------------
          Energy Minimization
          -------------------

 
 Using diagonal initial Hessian 

          --------
          Step   0
          --------
 
 
                         Geometry "geometry" -> "geometry"
                         ---------------------------------
 
 Output coordinates in angstroms (scale by  1.889725989 to convert to a.u.)
 
  No.       Tag          Charge          X              Y              Z
 ---- ---------------- ---------- -------------- -------------- --------------
    1 C                    6.0000     0.00000000    -0.00000000     1.78977169
    2 H                    1.0000     0.00000000     0.00000000     2.88489619
    3 H                    1.0000    -0.72912121     0.72912121     1.42221856
    4 H                    1.0000    -0.26687689    -0.99599810     1.42221856
    5 H                    1.0000     0.99599810     0.26687689     1.42221856
    6 C                    6.0000     0.00000000     0.00000000    -1.78977169
    7 H                    1.0000    -0.99599810    -0.26687689    -1.42221856
    8 H                    1.0000     0.00000000     0.00000000    -2.88489619
    9 H                    1.0000     0.72912121    -0.72912121    -1.42221856
   10 H                    1.0000     0.26687689     0.99599810    -1.42221856
 
      Atomic Mass 
      ----------- 
 
      C                 12.000000
      H                  1.007825
 

 Effective nuclear repulsion energy (a.u.)      41.3906222755

            Nuclear Dipole moment (a.u.) 
            ----------------------------
        X                 Y               Z
 ---------------- ---------------- ----------------
     0.0000000000    -0.0000000000     0.0000000000
 
      Symmetry information
      --------------------
 
 Group name             D3d       
 Group number             33
 Group order              12
 No. of unique centers     3
 
      Symmetry unique atoms
 
     1    2    3
 
 
                                 NWChem DFT Module
                                 -----------------
 
 
                                       ch4_2
 
 


 Summary of "ao basis" -> "ao basis" (spherical)
 ------------------------------------------------------------------------------
       Tag                 Description            Shells   Functions and Types
 ---------------- ------------------------------  ------  ---------------------
 C                          cc-pvdz                  6       14   3s2p1d
 H                          cc-pvdz                  3        5   2s1p


      Symmetry analysis of basis
      --------------------------
 
        a1g        13
        a1u         1
        a2g         1
        a2u        13
        eg         20
        eu         20
 
  Caching 1-el integrals 
  Rotation of axis 
 
            General Information
            -------------------
          SCF calculation type: DFT
          Wavefunction type:  closed shell.
          No. of atoms     :    10
          No. of electrons :    20
           Alpha electrons :    10
            Beta electrons :    10
          Charge           :     0
          Spin multiplicity:     1
          Use of symmetry is: on ; symmetry adaption is: on 
          Maximum number of iterations:  30
          This is a Direct SCF calculation.
          AO basis - number of functions:    68
                     number of shells:    36
          Convergence on energy requested:  1.00D-06
          Convergence on density requested:  1.00D-05
          Convergence on gradient requested:  5.00D-04
 
              XC Information
              --------------
                    Becke 1988 Exchange Functional  1.000          
              Lee-Yang-Parr Correlation Functional  1.000          
 
             Grid Information
             ----------------
          Grid used for XC integration:  medium    
          Radial quadrature: Mura-Knowles        
          Angular quadrature: Lebedev. 
          Tag              B.-S. Rad. Rad. Pts. Rad. Cut. Ang. Pts.
          ---              ---------- --------- --------- ---------
          C                   0.70       49          12.0       434
          H                   0.35       45          13.0       434
          Grid pruning is: on 
          Number of quadrature shells:   139
          Spatial weights used:  Erf1
 
          Convergence Information
          -----------------------
          Convergence aids based upon iterative change in 
          total energy or number of iterations. 
          Levelshifting, if invoked, occurs when the 
          HOMO/LUMO gap drops below (HL_TOL):  1.00D-02
          DIIS, if invoked, will attempt to extrapolate 
          using up to (NFOCK): 10 stored Fock matrices.

                    Damping( 0%)  Levelshifting(0.5)       DIIS
                  --------------- ------------------- ---------------
          dE  on:    start            ASAP                start   
          dE off:    2 iters         30 iters            30 iters 

 
      Screening Tolerance Information
      -------------------------------
          Density screening/tol_rho:  1.00D-10
          AO Gaussian exp screening on grid/accAOfunc:  14
          CD Gaussian exp screening on grid/accCDfunc:  20
          XC Gaussian exp screening on grid/accXCfunc:  20
          Schwarz screening/accCoul:  1.00D-08

      Dispersion Parameters
      ---------------------

          s6 scale factor :        1.400000000000
              vdW contrib :       -0.002536153039

 
      Superposition of Atomic Density Guess
      -------------------------------------
 
 Sum of atomic energies:         -79.32652423
                     1                     1                    14
                     1                     1                    14
                     1                     1                    14
 iat =   1 dens_norm =        6.000
                     2                    15                    19
                     2                    15                    19
                     2                    15                    19
 iat =   2 dens_norm =        1.000
                     3                    20                    24
                     3                    20                    24
                     3                    20                    24
 iat =   3 dens_norm =        1.000
                     4                    25                    29
                     4                    25                    29
                     4                    25                    29
 iat =   4 dens_norm =        1.000
                     5                    30                    34
                     5                    30                    34
                     5                    30                    34
 iat =   5 dens_norm =        1.000
                     6                    35                    48
                     6                    35                    48
                     6                    35                    48
 iat =   6 dens_norm =        6.000
                     7                    49                    53
                     7                    49                    53
                     7                    49                    53
 iat =   7 dens_norm =        1.000
                     8                    54                    58
                     8                    54                    58
                     8                    54                    58
 iat =   8 dens_norm =        1.000
                     9                    59                    63
                     9                    59                    63
                     9                    59                    63
 iat =   9 dens_norm =        1.000
                    10                    64                    68
                    10                    64                    68
                    10                    64                    68
 iat =  10 dens_norm =        1.000
 
      Non-variational initial energy
      ------------------------------

 Total energy =     -80.473601
 1-e energy   =    -185.628888
 2-e energy   =      63.764664
 HOMO         =      -0.501503
 LUMO         =       0.085311
 
 
      Symmetry analysis of molecular orbitals - initial
      -------------------------------------------------
 
  Numbering of irreducible representations: 
 
     1 a1g         2 a1u         3 a2g         4 a2u         5 eg      
     6 eu      
 
  Orbital symmetries:
 
     1 a1g         2 a2u         3 a1g         4 a2u         5 a1g     
     6 eu          7 eu          8 eg          9 eg         10 a2u     
    11 a1g        12 a2u        13 eu         14 eu         15 a1g     
    16 a2u        17 eg         18 eg         19 a1g        20 eu      
 


 ----------------------------------------------
         Quadratically convergent ROKS

 Convergence threshold     :          5.000E-04
 Maximum no. of iterations :           30
 Final Fock-matrix accuracy:          1.000E-08
 ----------------------------------------------


 Grid_pts file          = ./ch4_2.gridpts.0
 Record size in doubles =  12289        No. of grid_pts per rec  =   3070
 Max. records in memory =      9        Max. recs in file   =    414926


              iter       energy          gnorm     gmax       time
             ----- ------------------- --------- --------- --------
                 1      -80.9310296786  6.39D-01  1.96D-01      0.3
                 2      -80.9507547606  1.84D-01  4.20D-02      0.6
 DM absmax   0.964567E-02
 DM abssum   0.585526E+00
                     1  ps=   0.000000000000000E+000
 DM absmax   0.143156E-02
 DM abssum   0.300463E+00
                     1  ps=   0.000000000000000E+000
                 3      -80.9527197344  1.91D-03  5.68D-04      1.2
 DM absmax   0.811914E-04
 DM abssum   0.870429E-02
                     1  ps=   0.000000000000000E+000
 DM absmax   0.209354E-04
 DM abssum   0.216878E-02
                     1  ps=   0.000000000000000E+000
 DM absmax   0.431109E-05
 DM abssum   0.494021E-03
                     1  ps=   0.000000000000000E+000
                 4      -80.9527200784  3.66D-05  9.16D-06      1.9


         Total DFT energy =      -80.952720078382
      One electron energy =     -188.690718723042
           Coulomb energy =       80.063339607243
    Exchange-Corr. energy =      -13.715963238058
 Nuclear repulsion energy =       41.390622275475

    Dispersion correction =       -0.002536153039

 Numeric. integr. density =       19.999991144218

     Total iterative time =      1.8s


                                   COSMO solvation results
                                   -----------------------

     skipped: no gas phase energy
                 sol phase energy =         0.000000000000
 
                       DFT Final Molecular Orbital Analysis
                       ------------------------------------
 
 Vector    1  Occ=2.000000D+00  E=-9.908087D+00  Symmetry=a2u
              MO Center= -1.0D-21,  6.3D-21,  2.7D-16, r^2= 3.2D+00
   Bfn.  Coefficient  Atom+Function         Bfn.  Coefficient  Atom+Function  
  ----- ------------  ---------------      ----- ------------  ---------------
     1      0.712683   1 C  s                35     -0.712683   6 C  s         
 
 Vector    2  Occ=2.000000D+00  E=-9.908081D+00  Symmetry=a1g
              MO Center=  3.0D-17,  1.8D-17,  5.6D-16, r^2= 3.2D+00
   Bfn.  Coefficient  Atom+Function         Bfn.  Coefficient  Atom+Function  
  ----- ------------  ---------------      ----- ------------  ---------------
     1      0.712570   1 C  s                35      0.712570   6 C  s         
 
 Vector    3  Occ=2.000000D+00  E=-6.172524D-01  Symmetry=a1g
              MO Center=  3.8D-16, -1.3D-15, -1.1D-14, r^2= 4.1D+00
   Bfn.  Coefficient  Atom+Function         Bfn.  Coefficient  Atom+Function  
  ----- ------------  ---------------      ----- ------------  ---------------
     2      0.268604   1 C  s                36      0.268604   6 C  s         
 
 Vector    4  Occ=2.000000D+00  E=-6.120463D-01  Symmetry=a2u
              MO Center= -2.0D-22, -5.8D-17,  1.1D-14, r^2= 4.3D+00
   Bfn.  Coefficient  Atom+Function         Bfn.  Coefficient  Atom+Function  
  ----- ------------  ---------------      ----- ------------  ---------------
     2      0.272718   1 C  s                36     -0.272718   6 C  s         
     3      0.153443   1 C  s                37     -0.153443   6 C  s         
 
 Vector    5  Occ=2.000000D+00  E=-3.433536D-01  Symmetry=a1g
              MO Center=  5.0D-17, -3.1D-18, -1.4D-16, r^2= 5.8D+00
   Bfn.  Coefficient  Atom+Function         Bfn.  Coefficient  Atom+Function  
  ----- ------------  ---------------      ----- ------------  ---------------
     6      0.307692   1 C  pz               40     -0.307692   6 C  pz        
    15      0.269169   2 H  s                54      0.269169   8 H  s         
 
 Vector    6  Occ=2.000000D+00  E=-3.394601D-01  Symmetry=eu
              MO Center=  5.0D-16,  8.3D-16,  1.2D-16, r^2= 3.9D+00
   Bfn.  Coefficient  Atom+Function         Bfn.  Coefficient  Atom+Function  
  ----- ------------  ---------------      ----- ------------  ---------------
     5      0.283392   1 C  py               39      0.283392   6 C  py        
    25     -0.252532   4 H  s                64      0.252532  10 H  s         
    30      0.159425   5 H  s                49     -0.159425   7 H  s         
 
 Vector    7  Occ=2.000000D+00  E=-3.394601D-01  Symmetry=eu
              MO Center= -1.7D-14,  6.2D-15,  3.8D-14, r^2= 3.9D+00
   Bfn.  Coefficient  Atom+Function         Bfn.  Coefficient  Atom+Function  
  ----- ------------  ---------------      ----- ------------  ---------------
     4      0.283392   1 C  px               38      0.283392   6 C  px        
    20     -0.237843   3 H  s                59      0.237843   9 H  s         
    30      0.199554   5 H  s                49     -0.199554   7 H  s         
 
 Vector    8  Occ=2.000000D+00  E=-3.330039D-01  Symmetry=eg
              MO Center=  5.0D-15,  5.7D-15,  3.4D-14, r^2= 3.9D+00
   Bfn.  Coefficient  Atom+Function         Bfn.  Coefficient  Atom+Function  
  ----- ------------  ---------------      ----- ------------  ---------------
     4      0.295323   1 C  px               38     -0.295323   6 C  px        
    30      0.257794   5 H  s                49      0.257794   7 H  s         
    25     -0.154022   4 H  s                64     -0.154022  10 H  s         
 
 Vector    9  Occ=2.000000D+00  E=-3.330039D-01  Symmetry=eg
              MO Center=  1.1D-14, -1.1D-14, -7.3D-14, r^2= 3.9D+00
   Bfn.  Coefficient  Atom+Function         Bfn.  Coefficient  Atom+Function  
  ----- ------------  ---------------      ----- ------------  ---------------
     5      0.295323   1 C  py               39     -0.295323   6 C  py        
    20      0.237763   3 H  s                59      0.237763   9 H  s         
    25     -0.208751   4 H  s                64     -0.208751  10 H  s         
 
 Vector   10  Occ=2.000000D+00  E=-3.301221D-01  Symmetry=a2u
              MO Center= -9.1D-17,  3.3D-16, -4.0D-16, r^2= 5.9D+00
   Bfn.  Coefficient  Atom+Function         Bfn.  Coefficient  Atom+Function  
  ----- ------------  ---------------      ----- ------------  ---------------
     6      0.319443   1 C  pz               40      0.319443   6 C  pz        
    15      0.279385   2 H  s                54     -0.279385   8 H  s         
 
 Vector   11  Occ=0.000000D+00  E= 3.612202D-02  Symmetry=a1g
              MO Center= -2.1D-16, -3.3D-16, -8.7D-16, r^2= 6.7D+00
   Bfn.  Coefficient  Atom+Function         Bfn.  Coefficient  Atom+Function  
  ----- ------------  ---------------      ----- ------------  ---------------
     3      1.390362   1 C  s                37      1.390362   6 C  s         
    21     -0.526909   3 H  s                26     -0.526909   4 H  s         
    31     -0.526909   5 H  s                50     -0.526909   7 H  s         
    60     -0.526909   9 H  s                65     -0.526909  10 H  s         
    16     -0.442329   2 H  s                55     -0.442329   8 H  s         
 
 Vector   12  Occ=0.000000D+00  E= 8.481621D-02  Symmetry=a2u
              MO Center=  1.3D-17, -1.6D-16,  7.6D-15, r^2= 9.7D+00
   Bfn.  Coefficient  Atom+Function         Bfn.  Coefficient  Atom+Function  
  ----- ------------  ---------------      ----- ------------  ---------------
     3      1.577831   1 C  s                37     -1.577831   6 C  s         
    16     -0.847769   2 H  s                55      0.847769   8 H  s         
    21     -0.512363   3 H  s                26     -0.512363   4 H  s         
    31     -0.512363   5 H  s                50      0.512363   7 H  s         
    60      0.512363   9 H  s                65      0.512363  10 H  s         
 
 Vector   13  Occ=0.000000D+00  E= 1.082201D-01  Symmetry=eu
              MO Center=  9.0D-17,  3.2D-16,  2.0D-16, r^2= 5.5D+00
   Bfn.  Coefficient  Atom+Function         Bfn.  Coefficient  Atom+Function  
  ----- ------------  ---------------      ----- ------------  ---------------
    31      1.220670   5 H  s                50     -1.220670   7 H  s         
    26     -0.858852   4 H  s                65      0.858852  10 H  s         
     7     -0.705157   1 C  px               41     -0.705157   6 C  px        
     8     -0.378565   1 C  py               42     -0.378565   6 C  py        
    21     -0.361818   3 H  s                60      0.361818   9 H  s         
 
 Vector   14  Occ=0.000000D+00  E= 1.082201D-01  Symmetry=eu
              MO Center= -7.4D-17, -1.3D-16, -4.7D-16, r^2= 5.5D+00
   Bfn.  Coefficient  Atom+Function         Bfn.  Coefficient  Atom+Function  
  ----- ------------  ---------------      ----- ------------  ---------------
    21      1.200613   3 H  s                60     -1.200613   9 H  s         
    26     -0.913650   4 H  s                65      0.913650  10 H  s         
     8     -0.705157   1 C  py               42     -0.705157   6 C  py        
     7      0.378565   1 C  px               41      0.378565   6 C  px        
    31     -0.286963   5 H  s                50      0.286963   7 H  s         
 
 Vector   15  Occ=0.000000D+00  E= 1.134841D-01  Symmetry=a1g
              MO Center=  1.3D-16,  2.6D-17,  1.0D-15, r^2= 1.0D+01
   Bfn.  Coefficient  Atom+Function         Bfn.  Coefficient  Atom+Function  
  ----- ------------  ---------------      ----- ------------  ---------------
    16      1.429230   2 H  s                55      1.429230   8 H  s         
     9     -0.892300   1 C  pz               43      0.892300   6 C  pz        
    21     -0.432612   3 H  s                26     -0.432612   4 H  s         
    31     -0.432612   5 H  s                50     -0.432612   7 H  s         
    60     -0.432612   9 H  s                65     -0.432612  10 H  s         
 
 Vector   16  Occ=0.000000D+00  E= 1.324350D-01  Symmetry=a2u
              MO Center=  2.8D-16, -6.6D-17,  2.7D-15, r^2= 9.3D+00
   Bfn.  Coefficient  Atom+Function         Bfn.  Coefficient  Atom+Function  
  ----- ------------  ---------------      ----- ------------  ---------------
    16      1.283359   2 H  s                55     -1.283359   8 H  s         
     9     -0.858925   1 C  pz               43     -0.858925   6 C  pz        
    21     -0.602925   3 H  s                26     -0.602925   4 H  s         
    31     -0.602925   5 H  s                50      0.602925   7 H  s         
    60      0.602925   9 H  s                65      0.602925  10 H  s         
 
 Vector   17  Occ=0.000000D+00  E= 1.387954D-01  Symmetry=eg
              MO Center= -1.1D-15, -8.7D-16, -1.8D-16, r^2= 5.9D+00
   Bfn.  Coefficient  Atom+Function         Bfn.  Coefficient  Atom+Function  
  ----- ------------  ---------------      ----- ------------  ---------------
    31      1.385640   5 H  s                50      1.385640   7 H  s         
    26     -0.952882   4 H  s                65     -0.952882  10 H  s         
     7     -0.846594   1 C  px               41      0.846594   6 C  px        
     8     -0.435613   1 C  py               42      0.435613   6 C  py        
    21     -0.432758   3 H  s                60     -0.432758   9 H  s         
 
 Vector   18  Occ=0.000000D+00  E= 1.387954D-01  Symmetry=eg
              MO Center= -2.0D-15, -7.3D-16, -1.7D-15, r^2= 5.9D+00
   Bfn.  Coefficient  Atom+Function         Bfn.  Coefficient  Atom+Function  
  ----- ------------  ---------------      ----- ------------  ---------------
    21      1.350146   3 H  s                60      1.350146   9 H  s         
    26     -1.049852   4 H  s                65     -1.049852  10 H  s         
     8     -0.846594   1 C  py               42      0.846594   6 C  py        
     7      0.435613   1 C  px               41     -0.435613   6 C  px        
    31     -0.300294   5 H  s                50     -0.300294   7 H  s         
 
 Vector   19  Occ=0.000000D+00  E= 3.139242D-01  Symmetry=a1g
              MO Center= -2.5D-15, -2.1D-15, -4.1D-15, r^2= 5.2D+00
   Bfn.  Coefficient  Atom+Function         Bfn.  Coefficient  Atom+Function  
  ----- ------------  ---------------      ----- ------------  ---------------
     9      0.735658   1 C  pz               43     -0.735658   6 C  pz        
    15     -0.493700   2 H  s                54     -0.493700   8 H  s         
     3     -0.306131   1 C  s                37     -0.306131   6 C  s         
     6     -0.263680   1 C  pz               40      0.263680   6 C  pz        
    20      0.207179   3 H  s                25      0.207179   4 H  s         
 
 Vector   20  Occ=0.000000D+00  E= 3.760551D-01  Symmetry=eu
              MO Center= -3.2D-15,  1.9D-15, -1.4D-13, r^2= 5.6D+00
   Bfn.  Coefficient  Atom+Function         Bfn.  Coefficient  Atom+Function  
  ----- ------------  ---------------      ----- ------------  ---------------
     8      0.607851   1 C  py               42      0.607851   6 C  py        
    20     -0.566963   3 H  s                59      0.566963   9 H  s         
     7     -0.501534   1 C  px               41     -0.501534   6 C  px        
    25      0.330536   4 H  s                64     -0.330536  10 H  s         
    30      0.236427   5 H  s                49     -0.236427   7 H  s         
 
 Vector   21  Occ=0.000000D+00  E= 3.760551D-01  Symmetry=eu
              MO Center= -4.4D-16,  4.6D-15,  7.5D-14, r^2= 5.6D+00
   Bfn.  Coefficient  Atom+Function         Bfn.  Coefficient  Atom+Function  
  ----- ------------  ---------------      ----- ------------  ---------------
     7      0.607851   1 C  px               41      0.607851   6 C  px        
    30     -0.518171   5 H  s                49      0.518171   7 H  s         
     8      0.501534   1 C  py               42      0.501534   6 C  py        
    25      0.463837   4 H  s                64     -0.463837  10 H  s         
 
 Vector   22  Occ=0.000000D+00  E= 3.956518D-01  Symmetry=eg
              MO Center=  6.5D-15,  1.8D-15,  1.6D-13, r^2= 6.2D+00
   Bfn.  Coefficient  Atom+Function         Bfn.  Coefficient  Atom+Function  
  ----- ------------  ---------------      ----- ------------  ---------------
     8      0.714552   1 C  py               42     -0.714552   6 C  py        
    20     -0.476406   3 H  s                59     -0.476406   9 H  s         
    25      0.423857   4 H  s                64      0.423857  10 H  s         
     7     -0.271049   1 C  px               41      0.271049   6 C  px        
     5     -0.261415   1 C  py               39      0.261415   6 C  py        
 
 Vector   23  Occ=0.000000D+00  E= 3.956518D-01  Symmetry=eg
              MO Center=  6.7D-15, -4.5D-16, -9.8D-14, r^2= 6.2D+00
   Bfn.  Coefficient  Atom+Function         Bfn.  Coefficient  Atom+Function  
  ----- ------------  ---------------      ----- ------------  ---------------
     7      0.714552   1 C  px               41     -0.714552   6 C  px        
    30     -0.519767   5 H  s                49     -0.519767   7 H  s         
    25      0.305393   4 H  s                64      0.305393  10 H  s         
     8      0.271049   1 C  py               42     -0.271049   6 C  py        
     4     -0.261415   1 C  px               38      0.261415   6 C  px        
 
 Vector   24  Occ=0.000000D+00  E= 5.110091D-01  Symmetry=a2u
              MO Center=  2.0D-16,  2.9D-16, -2.2D-14, r^2= 7.7D+00
   Bfn.  Coefficient  Atom+Function         Bfn.  Coefficient  Atom+Function  
  ----- ------------  ---------------      ----- ------------  ---------------
    15      0.759483   2 H  s                54     -0.759483   8 H  s         
    16     -0.669611   2 H  s                55      0.669611   8 H  s         
    21      0.224727   3 H  s                26      0.224727   4 H  s         
    31      0.224727   5 H  s                50     -0.224727   7 H  s         
    60     -0.224727   9 H  s                65     -0.224727  10 H  s         
 
 Vector   25  Occ=0.000000D+00  E= 5.915400D-01  Symmetry=a1g
              MO Center= -9.6D-16, -7.2D-16,  2.1D-14, r^2= 7.4D+00
   Bfn.  Coefficient  Atom+Function         Bfn.  Coefficient  Atom+Function  
  ----- ------------  ---------------      ----- ------------  ---------------
    16      1.296367   2 H  s                55      1.296367   8 H  s         
     9     -1.101887   1 C  pz               43      1.101887   6 C  pz        
     6      0.583978   1 C  pz               40     -0.583978   6 C  pz        
    21     -0.472302   3 H  s                26     -0.472302   4 H  s         
    31     -0.472302   5 H  s                50     -0.472302   7 H  s         
 
 Vector   26  Occ=0.000000D+00  E= 6.078494D-01  Symmetry=eg
              MO Center=  5.6D-16, -2.0D-15, -8.8D-16, r^2= 5.3D+00
   Bfn.  Coefficient  Atom+Function         Bfn.  Coefficient  Atom+Function  
  ----- ------------  ---------------      ----- ------------  ---------------
    31     -1.265872   5 H  s                50     -1.265872   7 H  s         
    26      1.251306   4 H  s                65      1.251306  10 H  s         
     7      0.895043   1 C  px               41     -0.895043   6 C  px        
     8      0.877280   1 C  py               42     -0.877280   6 C  py        
     4     -0.416552   1 C  px               38      0.416552   6 C  px        
 
 Vector   27  Occ=0.000000D+00  E= 6.078494D-01  Symmetry=eg
              MO Center= -9.4D-16, -4.5D-16,  3.3D-16, r^2= 5.3D+00
   Bfn.  Coefficient  Atom+Function         Bfn.  Coefficient  Atom+Function  
  ----- ------------  ---------------      ----- ------------  ---------------
    21      1.453293   3 H  s                60      1.453293   9 H  s         
     8     -0.895043   1 C  py               42      0.895043   6 C  py        
     7      0.877280   1 C  px               41     -0.877280   6 C  px        
    26     -0.739261   4 H  s                65     -0.739261  10 H  s         
    31     -0.714032   5 H  s                50     -0.714032   7 H  s         
 
 Vector   28  Occ=0.000000D+00  E= 6.131225D-01  Symmetry=eu
              MO Center= -4.4D-16, -1.3D-15,  2.0D-15, r^2= 5.4D+00
   Bfn.  Coefficient  Atom+Function         Bfn.  Coefficient  Atom+Function  
  ----- ------------  ---------------      ----- ------------  ---------------
    21      1.259166   3 H  s                60     -1.259166   9 H  s         
     8     -1.001179   1 C  py               42     -1.001179   6 C  py        
     7      0.864378   1 C  px               41      0.864378   6 C  px        
    26     -0.709547   4 H  s                65      0.709547  10 H  s         
    31     -0.549620   5 H  s                50      0.549620   7 H  s         
 
 Vector   29  Occ=0.000000D+00  E= 6.131225D-01  Symmetry=eu
              MO Center= -7.9D-15, -4.9D-15,  6.7D-16, r^2= 5.4D+00
   Bfn.  Coefficient  Atom+Function         Bfn.  Coefficient  Atom+Function  
  ----- ------------  ---------------      ----- ------------  ---------------
    31      1.136637   5 H  s                50     -1.136637   7 H  s         
    26     -1.044303   4 H  s                65      1.044303  10 H  s         
     7     -1.001179   1 C  px               41     -1.001179   6 C  px        
     8     -0.864378   1 C  py               42     -0.864378   6 C  py        
     4      0.476577   1 C  px               38      0.476577   6 C  px        
 
 Vector   30  Occ=0.000000D+00  E= 6.312090D-01  Symmetry=a2u
              MO Center= -9.5D-16, -9.4D-16, -1.5D-15, r^2= 5.6D+00
   Bfn.  Coefficient  Atom+Function         Bfn.  Coefficient  Atom+Function  
  ----- ------------  ---------------      ----- ------------  ---------------
     9      1.122718   1 C  pz               43      1.122718   6 C  pz        
    16     -0.995922   2 H  s                55      0.995922   8 H  s         
    21      0.600608   3 H  s                26      0.600608   4 H  s         
    31      0.600608   5 H  s                50     -0.600608   7 H  s         
    60     -0.600608   9 H  s                65     -0.600608  10 H  s         
 
 Vector   31  Occ=0.000000D+00  E= 6.379260D-01  Symmetry=a1g
              MO Center=  4.2D-15,  4.6D-15,  3.7D-16, r^2= 5.7D+00
   Bfn.  Coefficient  Atom+Function         Bfn.  Coefficient  Atom+Function  
  ----- ------------  ---------------      ----- ------------  ---------------
     3      0.574407   1 C  s                37      0.574407   6 C  s         
     2     -0.486478   1 C  s                36     -0.486478   6 C  s         
    15      0.479335   2 H  s                54      0.479335   8 H  s         
    20      0.418445   3 H  s                25      0.418445   4 H  s         
    30      0.418445   5 H  s                49      0.418445   7 H  s         
 
 Vector   32  Occ=0.000000D+00  E= 7.432965D-01  Symmetry=a2u
              MO Center= -4.6D-16,  7.6D-17,  3.1D-15, r^2= 6.6D+00
   Bfn.  Coefficient  Atom+Function         Bfn.  Coefficient  Atom+Function  
  ----- ------------  ---------------      ----- ------------  ---------------
     3      1.305594   1 C  s                37     -1.305594   6 C  s         
     9      1.218064   1 C  pz               43      1.218064   6 C  pz        
    16     -1.114846   2 H  s                55      1.114846   8 H  s         
     2     -0.515949   1 C  s                36      0.515949   6 C  s         
     6     -0.455031   1 C  pz               40     -0.455031   6 C  pz        
 
 Vector   33  Occ=0.000000D+00  E= 8.640066D-01  Symmetry=eu
              MO Center=  1.1D-14, -8.7D-15, -1.3D-12, r^2= 4.4D+00
   Bfn.  Coefficient  Atom+Function         Bfn.  Coefficient  Atom+Function  
  ----- ------------  ---------------      ----- ------------  ---------------
    11      0.235646   1 C  d -1             45     -0.235646   6 C  d -1      
    13     -0.222123   1 C  d  1             47      0.222123   6 C  d  1      
    14      0.204007   1 C  d  2             48     -0.204007   6 C  d  2      
    26     -0.161167   4 H  s                65      0.161167  10 H  s         
    29     -0.155903   4 H  pz               31      0.155762   5 H  s         
 
 Vector   34  Occ=0.000000D+00  E= 8.640066D-01  Symmetry=eu
              MO Center= -8.5D-15,  7.8D-15, -1.0D-12, r^2= 4.4D+00
   Bfn.  Coefficient  Atom+Function         Bfn.  Coefficient  Atom+Function  
  ----- ------------  ---------------      ----- ------------  ---------------
    13      0.235646   1 C  d  1             47     -0.235646   6 C  d  1      
    11      0.222123   1 C  d -1             45     -0.222123   6 C  d -1      
    10     -0.204007   1 C  d -2             44      0.204007   6 C  d -2      
    21      0.182979   3 H  s                60     -0.182979   9 H  s         
    24      0.177003   3 H  pz               63      0.177003   9 H  pz        
 
 Vector   35  Occ=0.000000D+00  E= 8.676797D-01  Symmetry=eg
              MO Center= -7.3D-15,  1.1D-14,  1.3D-12, r^2= 4.5D+00
   Bfn.  Coefficient  Atom+Function         Bfn.  Coefficient  Atom+Function  
  ----- ------------  ---------------      ----- ------------  ---------------
    14      0.250835   1 C  d  2             48      0.250835   6 C  d  2      
    31     -0.232045   5 H  s                50     -0.232045   7 H  s         
    26      0.230557   4 H  s                65      0.230557  10 H  s         
    13     -0.206867   1 C  d  1             47     -0.206867   6 C  d  1      
    11      0.204574   1 C  d -1             45      0.204574   6 C  d -1      
 
 Vector   36  Occ=0.000000D+00  E= 8.676797D-01  Symmetry=eg
              MO Center=  5.9D-15, -7.6D-15,  1.0D-12, r^2= 4.5D+00
   Bfn.  Coefficient  Atom+Function         Bfn.  Coefficient  Atom+Function  
  ----- ------------  ---------------      ----- ------------  ---------------
    21      0.267083   3 H  s                60      0.267083   9 H  s         
    10      0.250835   1 C  d -2             44      0.250835   6 C  d -2      
    11     -0.206867   1 C  d -1             45     -0.206867   6 C  d -1      
    13     -0.204574   1 C  d  1             47     -0.204574   6 C  d  1      
    33      0.169805   5 H  py               52     -0.169805   7 H  py        
 
 Vector   37  Occ=0.000000D+00  E= 9.671704D-01  Symmetry=a1g
              MO Center=  9.4D-16,  4.8D-16, -7.3D-17, r^2= 6.2D+00
   Bfn.  Coefficient  Atom+Function         Bfn.  Coefficient  Atom+Function  
  ----- ------------  ---------------      ----- ------------  ---------------
     3      3.497214   1 C  s                37      3.497214   6 C  s         
     2     -1.316990   1 C  s                36     -1.316990   6 C  s         
    16     -0.699698   2 H  s                55     -0.699698   8 H  s         
     1     -0.640332   1 C  s                35     -0.640332   6 C  s         
    21     -0.458873   3 H  s                26     -0.458873   4 H  s         
 
 Vector   38  Occ=0.000000D+00  E= 1.056341D+00  Symmetry=a2u
              MO Center= -2.8D-15, -1.2D-15,  2.2D-15, r^2= 5.2D+00
   Bfn.  Coefficient  Atom+Function         Bfn.  Coefficient  Atom+Function  
  ----- ------------  ---------------      ----- ------------  ---------------
     3      3.626703   1 C  s                37     -3.626703   6 C  s         
     2     -1.336139   1 C  s                36      1.336139   6 C  s         
     1     -0.655022   1 C  s                35      0.655022   6 C  s         
    21     -0.631974   3 H  s                26     -0.631974   4 H  s         
    31     -0.631974   5 H  s                50      0.631974   7 H  s         
 
 Vector   39  Occ=0.000000D+00  E= 1.367513D+00  Symmetry=eu
              MO Center= -2.5D-16, -2.1D-16, -7.1D-16, r^2= 5.5D+00
   Bfn.  Coefficient  Atom+Function         Bfn.  Coefficient  Atom+Function  
  ----- ------------  ---------------      ----- ------------  ---------------
    29      0.399909   4 H  pz               68      0.399909  10 H  pz        
    18      0.360147   2 H  py               57      0.360147   8 H  py        
    34     -0.325311   5 H  pz               53     -0.325311   7 H  pz        
    17      0.251223   2 H  px               56      0.251223   8 H  px        
 
 Vector   40  Occ=0.000000D+00  E= 1.367513D+00  Symmetry=eu
              MO Center= -1.3D-16, -8.8D-16,  9.2D-16, r^2= 5.5D+00
   Bfn.  Coefficient  Atom+Function         Bfn.  Coefficient  Atom+Function  
  ----- ------------  ---------------      ----- ------------  ---------------
    24      0.418706   3 H  pz               63      0.418706   9 H  pz        
    17      0.360147   2 H  px               56      0.360147   8 H  px        
    34     -0.273957   5 H  pz               53     -0.273957   7 H  pz        
    18     -0.251223   2 H  py               57     -0.251223   8 H  py        
 
 Vector   41  Occ=0.000000D+00  E= 1.368120D+00  Symmetry=eg
              MO Center= -2.9D-13, -8.9D-14, -1.7D-15, r^2= 5.7D+00
   Bfn.  Coefficient  Atom+Function         Bfn.  Coefficient  Atom+Function  
  ----- ------------  ---------------      ----- ------------  ---------------
    18      0.445574   2 H  py               57     -0.445574   8 H  py        
    24     -0.376158   3 H  pz               63      0.376158   9 H  pz        
    29      0.360125   4 H  pz               68     -0.360125  10 H  pz        
 
 Vector   42  Occ=0.000000D+00  E= 1.368120D+00  Symmetry=eg
              MO Center= -1.4D-15, -3.9D-16,  7.1D-16, r^2= 5.7D+00
   Bfn.  Coefficient  Atom+Function         Bfn.  Coefficient  Atom+Function  
  ----- ------------  ---------------      ----- ------------  ---------------
    17      0.445574   2 H  px               56     -0.445574   8 H  px        
    34     -0.425093   5 H  pz               53      0.425093   7 H  pz        
    29      0.226431   4 H  pz               68     -0.226431  10 H  pz        
    24      0.198662   3 H  pz               63     -0.198662   9 H  pz        
 
 Vector   43  Occ=0.000000D+00  E= 1.369045D+00  Symmetry=a1u
              MO Center=  2.9D-13,  8.7D-14,  7.2D-17, r^2= 3.6D+00
   Bfn.  Coefficient  Atom+Function         Bfn.  Coefficient  Atom+Function  
  ----- ------------  ---------------      ----- ------------  ---------------
    27      0.411526   4 H  px               33      0.411526   5 H  py        
    52      0.411526   7 H  py               66      0.411526  10 H  px        
    22     -0.301258   3 H  px               23     -0.301258   3 H  py        
    61     -0.301258   9 H  px               62     -0.301258   9 H  py        
 
 Vector   44  Occ=0.000000D+00  E= 1.369396D+00  Symmetry=a2g
              MO Center=  3.9D-16, -3.1D-16, -3.7D-16, r^2= 3.6D+00
   Bfn.  Coefficient  Atom+Function         Bfn.  Coefficient  Atom+Function  
  ----- ------------  ---------------      ----- ------------  ---------------
    27      0.411535   4 H  px               33      0.411535   5 H  py        
    52     -0.411535   7 H  py               66     -0.411535  10 H  px        
    22     -0.301265   3 H  px               23     -0.301265   3 H  py        
    61      0.301265   9 H  px               62      0.301265   9 H  py        
 
 Vector   45  Occ=0.000000D+00  E= 1.557492D+00  Symmetry=eu
              MO Center= -1.7D-14, -1.8D-14, -4.3D-13, r^2= 4.7D+00
   Bfn.  Coefficient  Atom+Function         Bfn.  Coefficient  Atom+Function  
  ----- ------------  ---------------      ----- ------------  ---------------
     7      0.748500   1 C  px               41      0.748500   6 C  px        
    30     -0.520960   5 H  s                49      0.520960   7 H  s         
    20      0.330026   3 H  s                59     -0.330026   9 H  s         
    14      0.328020   1 C  d  2             48     -0.328020   6 C  d  2      
    13      0.278778   1 C  d  1             47     -0.278778   6 C  d  1      
 
 Vector   46  Occ=0.000000D+00  E= 1.557492D+00  Symmetry=eu
              MO Center=  9.9D-15,  7.1D-15, -1.6D-13, r^2= 4.7D+00
   Bfn.  Coefficient  Atom+Function         Bfn.  Coefficient  Atom+Function  
  ----- ------------  ---------------      ----- ------------  ---------------
     8      0.748500   1 C  py               42      0.748500   6 C  py        
    25      0.491317   4 H  s                64     -0.491317  10 H  s         
    20     -0.411012   3 H  s                59      0.411012   9 H  s         
    10     -0.328020   1 C  d -2             44      0.328020   6 C  d -2      
    11     -0.278778   1 C  d -1             45      0.278778   6 C  d -1      
 
 Vector   47  Occ=0.000000D+00  E= 1.572074D+00  Symmetry=a1g
              MO Center=  4.9D-15, -1.9D-15, -5.1D-14, r^2= 5.3D+00
   Bfn.  Coefficient  Atom+Function         Bfn.  Coefficient  Atom+Function  
  ----- ------------  ---------------      ----- ------------  ---------------
     9      0.597484   1 C  pz               43     -0.597484   6 C  pz        
    15     -0.553010   2 H  s                54     -0.553010   8 H  s         
    12      0.489773   1 C  d  0             46      0.489773   6 C  d  0      
    19     -0.282267   2 H  pz               58      0.282267   8 H  pz        
    24     -0.234013   3 H  pz               29     -0.234013   4 H  pz        
 
 Vector   48  Occ=0.000000D+00  E= 1.574891D+00  Symmetry=eg
              MO Center=  9.4D-15,  2.2D-14,  4.7D-13, r^2= 4.6D+00
   Bfn.  Coefficient  Atom+Function         Bfn.  Coefficient  Atom+Function  
  ----- ------------  ---------------      ----- ------------  ---------------
     7      0.653987   1 C  px               41     -0.653987   6 C  px        
    20      0.501946   3 H  s                59      0.501946   9 H  s         
    30     -0.490970   5 H  s                49     -0.490970   7 H  s         
    10      0.348122   1 C  d -2             44      0.348122   6 C  d -2      
    13      0.298219   1 C  d  1             47      0.298219   6 C  d  1      
 
 Vector   49  Occ=0.000000D+00  E= 1.574891D+00  Symmetry=eg
              MO Center= -3.6D-15, -3.8D-15,  1.2D-13, r^2= 4.6D+00
   Bfn.  Coefficient  Atom+Function         Bfn.  Coefficient  Atom+Function  
  ----- ------------  ---------------      ----- ------------  ---------------
     8      0.653987   1 C  py               42     -0.653987   6 C  py        
    25      0.573261   4 H  s                64      0.573261  10 H  s         
    14      0.348122   1 C  d  2             48      0.348122   6 C  d  2      
    11     -0.298219   1 C  d -1             45     -0.298219   6 C  d -1      
    30     -0.296136   5 H  s                49     -0.296136   7 H  s         
 
 Vector   50  Occ=0.000000D+00  E= 1.656900D+00  Symmetry=a2u
              MO Center=  1.7D-15,  1.7D-15,  4.8D-14, r^2= 5.8D+00
   Bfn.  Coefficient  Atom+Function         Bfn.  Coefficient  Atom+Function  
  ----- ------------  ---------------      ----- ------------  ---------------
     9      0.953573   1 C  pz               43      0.953573   6 C  pz        
    12      0.580152   1 C  d  0             15     -0.579107   2 H  s         
    46     -0.580152   6 C  d  0             54      0.579107   8 H  s         
    19     -0.337187   2 H  pz               58     -0.337187   8 H  pz        
    20      0.301132   3 H  s                25      0.301132   4 H  s         
 
 Vector   51  Occ=0.000000D+00  E= 1.856876D+00  Symmetry=a1g
              MO Center= -3.4D-14, -1.8D-13,  3.5D-15, r^2= 4.0D+00
   Bfn.  Coefficient  Atom+Function         Bfn.  Coefficient  Atom+Function  
  ----- ------------  ---------------      ----- ------------  ---------------
    12      0.533302   1 C  d  0             46      0.533302   6 C  d  0      
     9     -0.463064   1 C  pz               43      0.463064   6 C  pz        
    24      0.431091   3 H  pz               29      0.431091   4 H  pz        
    34      0.431091   5 H  pz               53     -0.431091   7 H  pz        
    63     -0.431091   9 H  pz               68     -0.431091  10 H  pz        
 
 Vector   52  Occ=0.000000D+00  E= 1.861024D+00  Symmetry=eu
              MO Center= -4.0D-14,  1.5D-13, -2.3D-13, r^2= 5.4D+00
   Bfn.  Coefficient  Atom+Function         Bfn.  Coefficient  Atom+Function  
  ----- ------------  ---------------      ----- ------------  ---------------
     8      0.555247   1 C  py               42      0.555247   6 C  py        
    18     -0.506888   2 H  py               57     -0.506888   8 H  py        
    33     -0.496185   5 H  py               52     -0.496185   7 H  py        
    26      0.362461   4 H  s                65     -0.362461  10 H  s         
    10      0.350541   1 C  d -2             44     -0.350541   6 C  d -2      
 
 Vector   53  Occ=0.000000D+00  E= 1.861024D+00  Symmetry=eu
              MO Center=  7.1D-14,  8.6D-15, -8.1D-14, r^2= 5.4D+00
   Bfn.  Coefficient  Atom+Function         Bfn.  Coefficient  Atom+Function  
  ----- ------------  ---------------      ----- ------------  ---------------
     7      0.555247   1 C  px               41      0.555247   6 C  px        
    17     -0.506888   2 H  px               56     -0.506888   8 H  px        
    27     -0.456252   4 H  px               66     -0.456252  10 H  px        
    31     -0.390143   5 H  s                50      0.390143   7 H  s         
    14     -0.350541   1 C  d  2             48      0.350541   6 C  d  2      
 
 Vector   54  Occ=0.000000D+00  E= 1.879082D+00  Symmetry=eg
              MO Center=  7.2D-15,  1.6D-14,  2.8D-13, r^2= 5.4D+00
   Bfn.  Coefficient  Atom+Function         Bfn.  Coefficient  Atom+Function  
  ----- ------------  ---------------      ----- ------------  ---------------
     8      0.563599   1 C  py               42     -0.563599   6 C  py        
    18     -0.517706   2 H  py               57      0.517706   8 H  py        
    26      0.469160   4 H  s                65      0.469160  10 H  s         
    33     -0.446050   5 H  py               52      0.446050   7 H  py        
    14     -0.342735   1 C  d  2             48     -0.342735   6 C  d  2      
 
 Vector   55  Occ=0.000000D+00  E= 1.879082D+00  Symmetry=eg
              MO Center= -6.4D-15,  1.0D-15,  3.7D-14, r^2= 5.4D+00
   Bfn.  Coefficient  Atom+Function         Bfn.  Coefficient  Atom+Function  
  ----- ------------  ---------------      ----- ------------  ---------------
     7      0.563599   1 C  px               41     -0.563599   6 C  px        
    17     -0.517706   2 H  px               56      0.517706   8 H  px        
    27     -0.480187   4 H  px               66      0.480187  10 H  px        
    31     -0.439808   5 H  s                50     -0.439808   7 H  s         
    21      0.372801   3 H  s                60      0.372801   9 H  s         
 
 Vector   56  Occ=0.000000D+00  E= 1.947395D+00  Symmetry=a2u
              MO Center= -1.4D-15, -8.8D-16,  1.7D-15, r^2= 3.9D+00
   Bfn.  Coefficient  Atom+Function         Bfn.  Coefficient  Atom+Function  
  ----- ------------  ---------------      ----- ------------  ---------------
     9      1.007321   1 C  pz               43      1.007321   6 C  pz        
    16     -0.591121   2 H  s                55      0.591121   8 H  s         
    24     -0.508754   3 H  pz               29     -0.508754   4 H  pz        
    34     -0.508754   5 H  pz               53     -0.508754   7 H  pz        
    63     -0.508754   9 H  pz               68     -0.508754  10 H  pz        
 
 Vector   57  Occ=0.000000D+00  E= 2.184303D+00  Symmetry=eu
              MO Center=  2.9D-15,  2.6D-15, -1.3D-11, r^2= 4.8D+00
   Bfn.  Coefficient  Atom+Function         Bfn.  Coefficient  Atom+Function  
  ----- ------------  ---------------      ----- ------------  ---------------
    11      0.705762   1 C  d -1             45     -0.705762   6 C  d -1      
    14      0.473665   1 C  d  2             48     -0.473665   6 C  d  2      
    18     -0.414613   2 H  py               29      0.415157   4 H  pz        
    57     -0.414613   8 H  py               68      0.415157  10 H  pz        
    13     -0.342580   1 C  d  1             47      0.342580   6 C  d  1      
 
 Vector   58  Occ=0.000000D+00  E= 2.184303D+00  Symmetry=eu
              MO Center=  7.1D-16,  1.6D-15, -9.2D-12, r^2= 4.8D+00
   Bfn.  Coefficient  Atom+Function         Bfn.  Coefficient  Atom+Function  
  ----- ------------  ---------------      ----- ------------  ---------------
    13      0.705762   1 C  d  1             47     -0.705762   6 C  d  1      
    10     -0.473665   1 C  d -2             44      0.473665   6 C  d -2      
    27     -0.433099   4 H  px               66     -0.433099  10 H  px        
    17      0.414613   2 H  px               56      0.414613   8 H  px        
    24     -0.399481   3 H  pz               63     -0.399481   9 H  pz        
 
 Vector   59  Occ=0.000000D+00  E= 2.184563D+00  Symmetry=eg
              MO Center=  2.7D-15,  1.6D-14,  1.1D-11, r^2= 4.7D+00
   Bfn.  Coefficient  Atom+Function         Bfn.  Coefficient  Atom+Function  
  ----- ------------  ---------------      ----- ------------  ---------------
    14      0.598484   1 C  d  2             48      0.598484   6 C  d  2      
    11      0.525664   1 C  d -1             45      0.525664   6 C  d -1      
    13     -0.481087   1 C  d  1             47     -0.481087   6 C  d  1      
    29      0.390940   4 H  pz               68     -0.390940  10 H  pz        
    34     -0.371450   5 H  pz               53      0.371450   7 H  pz        
 
 Vector   60  Occ=0.000000D+00  E= 2.184563D+00  Symmetry=eg
              MO Center=  6.3D-15, -3.6D-15,  1.1D-11, r^2= 4.7D+00
   Bfn.  Coefficient  Atom+Function         Bfn.  Coefficient  Atom+Function  
  ----- ------------  ---------------      ----- ------------  ---------------
    10      0.598484   1 C  d -2             44      0.598484   6 C  d -2      
    13     -0.525664   1 C  d  1             47     -0.525664   6 C  d  1      
    11     -0.481087   1 C  d -1             45     -0.481087   6 C  d -1      
    24      0.440166   3 H  pz               63     -0.440166   9 H  pz        
    27      0.410759   4 H  px               66     -0.410759  10 H  px        
 
 Vector   61  Occ=0.000000D+00  E= 2.335497D+00  Symmetry=a1g
              MO Center= -1.9D-15, -3.2D-15, -1.5D-15, r^2= 4.7D+00
   Bfn.  Coefficient  Atom+Function         Bfn.  Coefficient  Atom+Function  
  ----- ------------  ---------------      ----- ------------  ---------------
     3      1.119796   1 C  s                37      1.119796   6 C  s         
     2      1.042800   1 C  s                36      1.042800   6 C  s         
    28     -0.535062   4 H  py               32      0.535062   5 H  px        
    51     -0.535062   7 H  px               67      0.535062  10 H  py        
    19      0.495549   2 H  pz               58     -0.495549   8 H  pz        
 
 Vector   62  Occ=0.000000D+00  E= 2.351231D+00  Symmetry=a2u
              MO Center=  2.6D-15,  5.5D-15, -3.9D-15, r^2= 4.1D+00
   Bfn.  Coefficient  Atom+Function         Bfn.  Coefficient  Atom+Function  
  ----- ------------  ---------------      ----- ------------  ---------------
     3      1.302708   1 C  s                37     -1.302708   6 C  s         
     2      0.951797   1 C  s                36     -0.951797   6 C  s         
    28     -0.599159   4 H  py               32      0.599159   5 H  px        
    51      0.599159   7 H  px               67     -0.599159  10 H  py        
    20     -0.510158   3 H  s                25     -0.510158   4 H  s         
 
 Vector   63  Occ=0.000000D+00  E= 2.359306D+00  Symmetry=eg
              MO Center= -4.3D-14, -1.6D-13, -9.5D-13, r^2= 4.2D+00
   Bfn.  Coefficient  Atom+Function         Bfn.  Coefficient  Atom+Function  
  ----- ------------  ---------------      ----- ------------  ---------------
     4      0.943700   1 C  px               30     -0.939454   5 H  s         
    38     -0.943700   6 C  px               49     -0.939454   7 H  s         
    32      0.848259   5 H  px               51     -0.848259   7 H  px        
    20      0.754814   3 H  s                59      0.754814   9 H  s         
     7      0.679237   1 C  px               41     -0.679237   6 C  px        
 
 Vector   64  Occ=0.000000D+00  E= 2.359306D+00  Symmetry=eg
              MO Center= -3.3D-14, -1.8D-13,  9.9D-13, r^2= 4.2D+00
   Bfn.  Coefficient  Atom+Function         Bfn.  Coefficient  Atom+Function  
  ----- ------------  ---------------      ----- ------------  ---------------
    25      0.978186   4 H  s                64      0.978186  10 H  s         
     5      0.943700   1 C  py               39     -0.943700   6 C  py        
    28      0.883091   4 H  py               67     -0.883091  10 H  py        
     8      0.679237   1 C  py               42     -0.679237   6 C  py        
    20     -0.648996   3 H  s                59     -0.648996   9 H  s         
 
 Vector   65  Occ=0.000000D+00  E= 2.375240D+00  Symmetry=a1g
              MO Center=  1.5D-13, -2.9D-13,  6.9D-13, r^2= 6.1D+00
   Bfn.  Coefficient  Atom+Function         Bfn.  Coefficient  Atom+Function  
  ----- ------------  ---------------      ----- ------------  ---------------
    15      1.113316   2 H  s                54      1.113316   8 H  s         
    19     -1.060951   2 H  pz               58      1.060951   8 H  pz        
    12     -1.015355   1 C  d  0             46     -1.015355   6 C  d  0      
     6     -0.942967   1 C  pz               40      0.942967   6 C  pz        
     9     -0.637024   1 C  pz               43      0.637024   6 C  pz        
 
 Vector   66  Occ=0.000000D+00  E= 2.377536D+00  Symmetry=eu
              MO Center= -1.5D-13,  1.8D-13,  9.8D-13, r^2= 4.2D+00
   Bfn.  Coefficient  Atom+Function         Bfn.  Coefficient  Atom+Function  
  ----- ------------  ---------------      ----- ------------  ---------------
    30     -0.972561   5 H  s                49      0.972561   7 H  s         
     4      0.930953   1 C  px               38      0.930953   6 C  px        
    32      0.827413   5 H  px               51      0.827413   7 H  px        
    20      0.792999   3 H  s                59     -0.792999   9 H  s         
     7      0.728984   1 C  px               41      0.728984   6 C  px        
 
 Vector   67  Occ=0.000000D+00  E= 2.377536D+00  Symmetry=eu
              MO Center=  6.0D-14,  4.3D-13, -9.9D-13, r^2= 4.2D+00
   Bfn.  Coefficient  Atom+Function         Bfn.  Coefficient  Atom+Function  
  ----- ------------  ---------------      ----- ------------  ---------------
    25      1.019347   4 H  s                64     -1.019347  10 H  s         
     5      0.930953   1 C  py               39      0.930953   6 C  py        
    28      0.864715   4 H  py               67      0.864715  10 H  py        
     8      0.728984   1 C  py               42      0.728984   6 C  py        
    20     -0.665179   3 H  s                59      0.665179   9 H  s         
 
 Vector   68  Occ=0.000000D+00  E= 2.395731D+00  Symmetry=a2u
              MO Center=  2.4D-15,  4.9D-15, -6.9D-13, r^2= 7.1D+00
   Bfn.  Coefficient  Atom+Function         Bfn.  Coefficient  Atom+Function  
  ----- ------------  ---------------      ----- ------------  ---------------
    15      1.242118   2 H  s                54     -1.242118   8 H  s         
    19     -1.146605   2 H  pz               58     -1.146605   8 H  pz        
     9     -1.052717   1 C  pz               43     -1.052717   6 C  pz        
    12     -0.965270   1 C  d  0             46      0.965270   6 C  d  0      
     6     -0.861902   1 C  pz               40     -0.861902   6 C  pz        
 
 
            General Information
            -------------------
          SCF calculation type: DFT
          Wavefunction type:  closed shell.
          No. of atoms     :    10
          No. of electrons :    20
           Alpha electrons :    10
            Beta electrons :    10
          Charge           :     0
          Spin multiplicity:     1
          Use of symmetry is: on ; symmetry adaption is: on 
          Maximum number of iterations:  30
          This is a Direct SCF calculation.
          AO basis - number of functions:    68
                     number of shells:    36
          Convergence on energy requested:  1.00D-06
          Convergence on density requested:  1.00D-05
          Convergence on gradient requested:  5.00D-04
 
              XC Information
              --------------
                    Becke 1988 Exchange Functional  1.000          
              Lee-Yang-Parr Correlation Functional  1.000          
 
             Grid Information
             ----------------
          Grid used for XC integration:  medium    
          Radial quadrature: Mura-Knowles        
          Angular quadrature: Lebedev. 
          Tag              B.-S. Rad. Rad. Pts. Rad. Cut. Ang. Pts.
          ---              ---------- --------- --------- ---------
          C                   0.70       49          12.0       434
          H                   0.35       45          13.0       434
          Grid pruning is: on 
          Number of quadrature shells:   139
          Spatial weights used:  Erf1
 
          Convergence Information
          -----------------------
          Convergence aids based upon iterative change in 
          total energy or number of iterations. 
          Levelshifting, if invoked, occurs when the 
          HOMO/LUMO gap drops below (HL_TOL):  1.00D-02
          DIIS, if invoked, will attempt to extrapolate 
          using up to (NFOCK): 10 stored Fock matrices.

                    Damping( 0%)  Levelshifting(0.5)       DIIS
                  --------------- ------------------- ---------------
          dE  on:    start            ASAP                start   
          dE off:    2 iters         30 iters            30 iters 

 
      Screening Tolerance Information
      -------------------------------
          Density screening/tol_rho:  1.00D-10
          AO Gaussian exp screening on grid/accAOfunc:  14
          CD Gaussian exp screening on grid/accCDfunc:  20
          XC Gaussian exp screening on grid/accXCfunc:  20
          Schwarz screening/accCoul:  1.00D-08

 
 
                            NWChem DFT Gradient Module
                            --------------------------
 
 
                                       ch4_2
 
 

  charge          =   0.00
  wavefunction    = closed shell

  Rotation of axis 
  Using symmetry


                         DFT ENERGY GRADIENTS

    atom               coordinates                        gradient
                 x          y          z           x          y          z
   1 C       0.000000  -0.000000   3.382178   -0.000000   0.000000  -0.000155
   2 H       0.000000   0.000000   5.451663    0.000000  -0.000000  -0.008036
   3 H      -1.377839   1.377839   2.687603    0.005375  -0.005375   0.002878
   4 H      -0.504324  -1.882163   2.687603    0.001968   0.007343   0.002878
   5 H       1.882163   0.504324   2.687603   -0.007343  -0.001968   0.002878
   6 C       0.000000   0.000000  -3.382178    0.000000  -0.000000   0.000155
   7 H      -1.882163  -0.504324  -2.687603    0.007343   0.001968  -0.002878
   8 H       0.000000   0.000000  -5.451663   -0.000000   0.000000   0.008036
   9 H       1.377839  -1.377839  -2.687603   -0.005375   0.005375  -0.002878
  10 H       0.504324   1.882163  -2.687603   -0.001968  -0.007343  -0.002878
 
                 ----------------------------------------
                 |  Time  |  1-e(secs)   |  2-e(secs)   |
                 ----------------------------------------
                 |  CPU   |       0.00   |       0.11   |
                 ----------------------------------------
                 |  WALL  |       0.00   |       0.12   |
                 ----------------------------------------

@ Step       Energy      Delta E   Gmax     Grms     Xrms     Xmax   Walltime
@ ---- ---------------- -------- -------- -------- -------- -------- --------
@    0     -80.95272008  0.0D+00  0.00804  0.00419  0.00000  0.00000      2.5
                                                                    

                     0  cgtheory = dft                             
                     1  cgtheory = dft                             
                     2  cgtheory = dft                             
 
                                 NWChem DFT Module
                                 -----------------
 
 
                                       ch4_2
 
 


 Summary of "ao basis" -> "ao basis" (spherical)
 ------------------------------------------------------------------------------
       Tag                 Description            Shells   Functions and Types
 ---------------- ------------------------------  ------  ---------------------
 C                          cc-pvdz                  6       14   3s2p1d
 H                          cc-pvdz                  3        5   2s1p


      Symmetry analysis of basis
      --------------------------
 
        a1g        13
        a1u         1
        a2g         1
        a2u        13
        eg         20
        eu         20
 
  Caching 1-el integrals 
  Rotation of axis 
 
            General Information
            -------------------
          SCF calculation type: DFT
          Wavefunction type:  closed shell.
          No. of atoms     :    10
          No. of electrons :    20
           Alpha electrons :    10
            Beta electrons :    10
          Charge           :     0
          Spin multiplicity:     1
          Use of symmetry is: on ; symmetry adaption is: on 
          Maximum number of iterations:  30
          This is a Direct SCF calculation.
          AO basis - number of functions:    68
                     number of shells:    36
          Convergence on energy requested:  1.00D-06
          Convergence on density requested:  1.00D-05
          Convergence on gradient requested:  5.00D-04
 
              XC Information
              --------------
                    Becke 1988 Exchange Functional  1.000          
              Lee-Yang-Parr Correlation Functional  1.000          
 
             Grid Information
             ----------------
          Grid used for XC integration:  medium    
          Radial quadrature: Mura-Knowles        
          Angular quadrature: Lebedev. 
          Tag              B.-S. Rad. Rad. Pts. Rad. Cut. Ang. Pts.
          ---              ---------- --------- --------- ---------
          C                   0.70       49          12.0       434
          H                   0.35       45          13.0       434
          Grid pruning is: on 
          Number of quadrature shells:   139
          Spatial weights used:  Erf1
 
          Convergence Information
          -----------------------
          Convergence aids based upon iterative change in 
          total energy or number of iterations. 
          Levelshifting, if invoked, occurs when the 
          HOMO/LUMO gap drops below (HL_TOL):  1.00D-02
          DIIS, if invoked, will attempt to extrapolate 
          using up to (NFOCK): 10 stored Fock matrices.

                    Damping( 0%)  Levelshifting(0.5)       DIIS
                  --------------- ------------------- ---------------
          dE  on:    start            ASAP                start   
          dE off:    2 iters         30 iters            30 iters 

 
      Screening Tolerance Information
      -------------------------------
          Density screening/tol_rho:  1.00D-10
          AO Gaussian exp screening on grid/accAOfunc:  14
          CD Gaussian exp screening on grid/accCDfunc:  20
          XC Gaussian exp screening on grid/accXCfunc:  20
          Schwarz screening/accCoul:  1.00D-08

      Dispersion Parameters
      ---------------------

          s6 scale factor :        1.400000000000
              vdW contrib :       -0.002579109195


 Loading old vectors from job with title :

ch4_2

 
      Symmetry analysis of molecular orbitals - initial
      -------------------------------------------------
 
  Numbering of irreducible representations: 
 
     1 a1g         2 a1u         3 a2g         4 a2u         5 eg      
     6 eu      
 
  Orbital symmetries:
 
     1 a2u         2 a1g         3 a1g         4 a2u         5 a1g     
     6 eu          7 eu          8 eg          9 eg         10 a2u     
    11 a1g        12 a2u        13 eu         14 eu         15 a1g     
    16 a2u        17 eg         18 eg         19 a1g        20 eu      
 


 ----------------------------------------------
         Quadratically convergent ROKS

 Convergence threshold     :          5.000E-04
 Maximum no. of iterations :           30
 Final Fock-matrix accuracy:          1.000E-08
 ----------------------------------------------


 Grid_pts file          = ./ch4_2.gridpts.0
 Record size in doubles =  12289        No. of grid_pts per rec  =   3070
 Max. records in memory =      9        Max. recs in file   =    414926


              iter       energy          gnorm     gmax       time
             ----- ------------------- --------- --------- --------
                 1      -80.9533348685  3.11D-02  9.50D-03      2.5
 DM absmax   0.131198E-02
 DM abssum   0.126110E+00
                     1  ps=   0.000000000000000E+000
 DM absmax   0.801539E-03
 DM abssum   0.549339E-01
                     1  ps=   0.000000000000000E+000
 DM absmax   0.504949E-04
 DM abssum   0.606462E-02
                     1  ps=   0.000000000000000E+000
                 2      -80.9534079233  4.82D-05  1.37D-05      3.3


         Total DFT energy =      -80.953407923304
      One electron energy =     -188.266452849309
           Coulomb energy =       79.841452589994
    Exchange-Corr. energy =      -13.692147419206
 Nuclear repulsion energy =       41.163739755218

    Dispersion correction =       -0.002579109195

 Numeric. integr. density =       19.999990509178

     Total iterative time =      1.0s


                                   COSMO solvation results
                                   -----------------------

     skipped: no gas phase energy
                 sol phase energy =         0.000000000000
 
                       DFT Final Molecular Orbital Analysis
                       ------------------------------------
 
 Vector    1  Occ=2.000000D+00  E=-9.911397D+00  Symmetry=a2u
              MO Center=  5.2D-20,  1.5D-19,  1.6D-17, r^2= 3.2D+00
   Bfn.  Coefficient  Atom+Function         Bfn.  Coefficient  Atom+Function  
  ----- ------------  ---------------      ----- ------------  ---------------
     1      0.712571   1 C  s                35     -0.712571   6 C  s         
 
 Vector    2  Occ=2.000000D+00  E=-9.911390D+00  Symmetry=a1g
              MO Center= -2.8D-21, -1.6D-20, -6.2D-16, r^2= 3.2D+00
   Bfn.  Coefficient  Atom+Function         Bfn.  Coefficient  Atom+Function  
  ----- ------------  ---------------      ----- ------------  ---------------
     1      0.712457   1 C  s                35      0.712457   6 C  s         
 
 Vector    3  Occ=2.000000D+00  E=-6.147847D-01  Symmetry=a1g
              MO Center=  2.3D-18, -2.9D-17,  1.1D-16, r^2= 4.2D+00
   Bfn.  Coefficient  Atom+Function         Bfn.  Coefficient  Atom+Function  
  ----- ------------  ---------------      ----- ------------  ---------------
     2      0.269862   1 C  s                36      0.269862   6 C  s         
     3      0.150723   1 C  s                37      0.150723   6 C  s         
 
 Vector    4  Occ=2.000000D+00  E=-6.095382D-01  Symmetry=a2u
              MO Center= -2.1D-18, -6.2D-18,  3.6D-17, r^2= 4.3D+00
   Bfn.  Coefficient  Atom+Function         Bfn.  Coefficient  Atom+Function  
  ----- ------------  ---------------      ----- ------------  ---------------
     2      0.273998   1 C  s                36     -0.273998   6 C  s         
     3      0.158482   1 C  s                37     -0.158482   6 C  s         
 
 Vector    5  Occ=2.000000D+00  E=-3.420164D-01  Symmetry=a1g
              MO Center= -6.4D-18,  6.2D-18, -3.2D-16, r^2= 5.8D+00
   Bfn.  Coefficient  Atom+Function         Bfn.  Coefficient  Atom+Function  
  ----- ------------  ---------------      ----- ------------  ---------------
     6      0.306923   1 C  pz               40     -0.306923   6 C  pz        
    15      0.268891   2 H  s                54      0.268891   8 H  s         
 
 Vector    6  Occ=2.000000D+00  E=-3.383070D-01  Symmetry=eu
              MO Center= -1.7D-14,  2.4D-15,  5.8D-14, r^2= 3.9D+00
   Bfn.  Coefficient  Atom+Function         Bfn.  Coefficient  Atom+Function  
  ----- ------------  ---------------      ----- ------------  ---------------
     4      0.251751   1 C  px               20     -0.251535   3 H  s         
    38      0.251751   6 C  px               59      0.251535   9 H  s         
     5     -0.178266   1 C  py               39     -0.178266   6 C  py        
    30      0.162993   5 H  s                49     -0.162993   7 H  s         
 
 Vector    7  Occ=2.000000D+00  E=-3.383070D-01  Symmetry=eu
              MO Center=  3.9D-16,  3.4D-15, -2.0D-14, r^2= 3.9D+00
   Bfn.  Coefficient  Atom+Function         Bfn.  Coefficient  Atom+Function  
  ----- ------------  ---------------      ----- ------------  ---------------
     5      0.251751   1 C  py               39      0.251751   6 C  py        
    25     -0.239328   4 H  s                64      0.239328  10 H  s         
    30      0.196344   5 H  s                49     -0.196344   7 H  s         
     4      0.178266   1 C  px               38      0.178266   6 C  px        
 
 Vector    8  Occ=2.000000D+00  E=-3.317711D-01  Symmetry=eg
              MO Center=  3.1D-15, -9.7D-15, -6.3D-14, r^2= 3.9D+00
   Bfn.  Coefficient  Atom+Function         Bfn.  Coefficient  Atom+Function  
  ----- ------------  ---------------      ----- ------------  ---------------
    20     -0.257699   3 H  s                59     -0.257699   9 H  s         
     4      0.246825   1 C  px               38     -0.246825   6 C  px        
     5     -0.198127   1 C  py               39      0.198127   6 C  py        
    30      0.153275   5 H  s                49      0.153275   7 H  s         
 
 Vector    9  Occ=2.000000D+00  E=-3.317711D-01  Symmetry=eg
              MO Center=  1.4D-14,  4.3D-15,  2.5D-14, r^2= 3.9D+00
   Bfn.  Coefficient  Atom+Function         Bfn.  Coefficient  Atom+Function  
  ----- ------------  ---------------      ----- ------------  ---------------
[...]
              MO Center= -1.2D-14, -2.2D-14, -4.7D-13, r^2= 4.7D+00
   Bfn.  Coefficient  Atom+Function         Bfn.  Coefficient  Atom+Function  
  ----- ------------  ---------------      ----- ------------  ---------------
     7      0.732655   1 C  px               41      0.732655   6 C  px        
    30     -0.477374   5 H  s                49      0.477374   7 H  s         
    20      0.412377   3 H  s                59     -0.412377   9 H  s         
    10      0.332609   1 C  d -2             44     -0.332609   6 C  d -2      
    13      0.275523   1 C  d  1             47     -0.275523   6 C  d  1      
 
 Vector   46  Occ=0.000000D+00  E= 1.545685D+00  Symmetry=eu
              MO Center=  4.1D-15,  1.3D-14, -1.2D-13, r^2= 4.7D+00
   Bfn.  Coefficient  Atom+Function         Bfn.  Coefficient  Atom+Function  
  ----- ------------  ---------------      ----- ------------  ---------------
     8      0.732655   1 C  py               42      0.732655   6 C  py        
    25      0.513698   4 H  s                64     -0.513698  10 H  s         
    14      0.332609   1 C  d  2             48     -0.332609   6 C  d  2      
    20     -0.313139   3 H  s                59      0.313139   9 H  s         
    11     -0.275523   1 C  d -1             45      0.275523   6 C  d -1      
 
 Vector   47  Occ=0.000000D+00  E= 1.560155D+00  Symmetry=a1g
              MO Center=  5.8D-15, -2.5D-15, -5.1D-14, r^2= 5.4D+00
   Bfn.  Coefficient  Atom+Function         Bfn.  Coefficient  Atom+Function  
  ----- ------------  ---------------      ----- ------------  ---------------
     9      0.588188   1 C  pz               43     -0.588188   6 C  pz        
    15     -0.544089   2 H  s                54     -0.544089   8 H  s         
    12      0.487140   1 C  d  0             46      0.487140   6 C  d  0      
    19     -0.282241   2 H  pz               58      0.282241   8 H  pz        
    24     -0.231336   3 H  pz               29     -0.231336   4 H  pz        
 
 Vector   48  Occ=0.000000D+00  E= 1.563652D+00  Symmetry=eg
              MO Center=  3.4D-15,  2.4D-14,  4.5D-13, r^2= 4.6D+00
   Bfn.  Coefficient  Atom+Function         Bfn.  Coefficient  Atom+Function  
  ----- ------------  ---------------      ----- ------------  ---------------
     7      0.592292   1 C  px               41     -0.592292   6 C  px        
    20      0.539013   3 H  s                59      0.539013   9 H  s         
    30     -0.414370   5 H  s                49     -0.414370   7 H  s         
    10      0.376854   1 C  d -2             44      0.376854   6 C  d -2      
     8     -0.311740   1 C  py               42      0.311740   6 C  py        
 
 Vector   49  Occ=0.000000D+00  E= 1.563652D+00  Symmetry=eg
              MO Center=  1.9D-15, -6.3D-15,  1.4D-13, r^2= 4.6D+00
   Bfn.  Coefficient  Atom+Function         Bfn.  Coefficient  Atom+Function  
  ----- ------------  ---------------      ----- ------------  ---------------
     8      0.592292   1 C  py               42     -0.592292   6 C  py        
    25      0.550436   4 H  s                64      0.550436  10 H  s         
    30     -0.383162   5 H  s                49     -0.383162   7 H  s         
    14      0.376854   1 C  d  2             48      0.376854   6 C  d  2      
     7      0.311740   1 C  px               41     -0.311740   6 C  px        
 
 Vector   50  Occ=0.000000D+00  E= 1.641529D+00  Symmetry=a2u
              MO Center=  1.5D-15,  2.3D-15,  5.0D-14, r^2= 5.9D+00
   Bfn.  Coefficient  Atom+Function         Bfn.  Coefficient  Atom+Function  
  ----- ------------  ---------------      ----- ------------  ---------------
     9      0.941407   1 C  pz               43      0.941407   6 C  pz        
    12      0.567228   1 C  d  0             15     -0.567402   2 H  s         
    46     -0.567228   6 C  d  0             54      0.567402   8 H  s         
    19     -0.336823   2 H  pz               58     -0.336823   8 H  pz        
    20      0.296471   3 H  s                25      0.296471   4 H  s         
 
 Vector   51  Occ=0.000000D+00  E= 1.846927D+00  Symmetry=a1g
              MO Center= -3.3D-14, -1.9D-13,  4.1D-15, r^2= 4.0D+00
   Bfn.  Coefficient  Atom+Function         Bfn.  Coefficient  Atom+Function  
  ----- ------------  ---------------      ----- ------------  ---------------
    12     -0.515641   1 C  d  0             46     -0.515641   6 C  d  0      
     9      0.469727   1 C  pz               43     -0.469727   6 C  pz        
    24     -0.427112   3 H  pz               29     -0.427112   4 H  pz        
    34     -0.427112   5 H  pz               53      0.427112   7 H  pz        
    63      0.427112   9 H  pz               68      0.427112  10 H  pz        
 
 Vector   52  Occ=0.000000D+00  E= 1.849566D+00  Symmetry=eu
              MO Center=  5.8D-14,  1.5D-13, -2.8D-13, r^2= 5.4D+00
   Bfn.  Coefficient  Atom+Function         Bfn.  Coefficient  Atom+Function  
  ----- ------------  ---------------      ----- ------------  ---------------
     8      0.535947   1 C  py               42      0.535947   6 C  py        
    18     -0.481623   2 H  py               57     -0.481623   8 H  py        
    33     -0.406139   5 H  py               52     -0.406139   7 H  py        
    26      0.389260   4 H  s                65     -0.389260  10 H  s         
    14     -0.381606   1 C  d  2             48      0.381606   6 C  d  2      
 
 Vector   53  Occ=0.000000D+00  E= 1.849566D+00  Symmetry=eu
              MO Center= -2.8D-14,  1.7D-14, -3.4D-14, r^2= 5.4D+00
   Bfn.  Coefficient  Atom+Function         Bfn.  Coefficient  Atom+Function  
  ----- ------------  ---------------      ----- ------------  ---------------
     7      0.535947   1 C  px               41      0.535947   6 C  px        
    27     -0.498474   4 H  px               66     -0.498474  10 H  px        
    17     -0.481623   2 H  px               56     -0.481623   8 H  px        
    10     -0.381606   1 C  d -2             44      0.381606   6 C  d -2      
    21      0.348649   3 H  s                60     -0.348649   9 H  s         
 
 Vector   54  Occ=0.000000D+00  E= 1.867645D+00  Symmetry=eg
              MO Center=  4.1D-16,  1.8D-14,  2.9D-13, r^2= 5.5D+00
   Bfn.  Coefficient  Atom+Function         Bfn.  Coefficient  Atom+Function  
  ----- ------------  ---------------      ----- ------------  ---------------
     8      0.514975   1 C  py               42     -0.514975   6 C  py        
    18     -0.466477   2 H  py               57      0.466477   8 H  py        
    26      0.461092   4 H  s                65      0.461092  10 H  s         
    14     -0.398397   1 C  d  2             48     -0.398397   6 C  d  2      
    33     -0.355689   5 H  py               52      0.355689   7 H  py        
 
 Vector   55  Occ=0.000000D+00  E= 1.867645D+00  Symmetry=eg
              MO Center= -8.0D-16, -2.2D-15,  3.4D-14, r^2= 5.5D+00
   Bfn.  Coefficient  Atom+Function         Bfn.  Coefficient  Atom+Function  
  ----- ------------  ---------------      ----- ------------  ---------------
     7      0.514975   1 C  px               41     -0.514975   6 C  px        
    27     -0.478506   4 H  px               66      0.478506  10 H  px        
    17     -0.466477   2 H  px               56      0.466477   8 H  px        
    21      0.442477   3 H  s                60      0.442477   9 H  s         
    10     -0.398397   1 C  d -2             44     -0.398397   6 C  d -2      
 
 Vector   56  Occ=0.000000D+00  E= 1.935757D+00  Symmetry=a2u
              MO Center= -1.4D-15, -1.8D-15,  1.8D-15, r^2= 3.9D+00
   Bfn.  Coefficient  Atom+Function         Bfn.  Coefficient  Atom+Function  
  ----- ------------  ---------------      ----- ------------  ---------------
     9      0.991629   1 C  pz               43      0.991629   6 C  pz        
    16     -0.576288   2 H  s                55      0.576288   8 H  s         
    24     -0.502779   3 H  pz               29     -0.502779   4 H  pz        
    34     -0.502779   5 H  pz               53     -0.502779   7 H  pz        
    63     -0.502779   9 H  pz               68     -0.502779  10 H  pz        
 
 Vector   57  Occ=0.000000D+00  E= 2.164744D+00  Symmetry=eu
              MO Center= -1.3D-15,  2.6D-15, -1.5D-11, r^2= 4.8D+00
   Bfn.  Coefficient  Atom+Function         Bfn.  Coefficient  Atom+Function  
  ----- ------------  ---------------      ----- ------------  ---------------
    11      0.741803   1 C  d -1             45     -0.741803   6 C  d -1      
    18     -0.437510   2 H  py               57     -0.437510   8 H  py        
    10     -0.423452   1 C  d -2             33      0.424026   5 H  py        
    44      0.423452   6 C  d -2             52      0.424026   7 H  py        
    24     -0.358576   3 H  pz               29      0.360047   4 H  pz        
 
 Vector   58  Occ=0.000000D+00  E= 2.164744D+00  Symmetry=eu
              MO Center=  3.9D-15,  2.5D-15, -7.7D-12, r^2= 4.8D+00
   Bfn.  Coefficient  Atom+Function         Bfn.  Coefficient  Atom+Function  
  ----- ------------  ---------------      ----- ------------  ---------------
    13      0.741803   1 C  d  1             47     -0.741803   6 C  d  1      
    17      0.437510   2 H  px               56      0.437510   8 H  px        
    14     -0.423452   1 C  d  2             48      0.423452   6 C  d  2      
    34      0.414897   5 H  pz               53      0.414897   7 H  pz        
    27     -0.346305   4 H  px               66     -0.346305  10 H  px        
 
 Vector   59  Occ=0.000000D+00  E= 2.164887D+00  Symmetry=eg
              MO Center= -1.2D-15,  1.2D-14,  9.4D-12, r^2= 4.7D+00
   Bfn.  Coefficient  Atom+Function         Bfn.  Coefficient  Atom+Function  
  ----- ------------  ---------------      ----- ------------  ---------------
    14     -0.578762   1 C  d  2             48     -0.578762   6 C  d  2      
    13      0.575388   1 C  d  1             47      0.575388   6 C  d  1      
    34      0.409857   5 H  pz               53     -0.409857   7 H  pz        
    11     -0.387174   1 C  d -1             45     -0.387174   6 C  d -1      
    17      0.359758   2 H  px               56     -0.359758   8 H  px        
 
 Vector   60  Occ=0.000000D+00  E= 2.164887D+00  Symmetry=eg
              MO Center=  9.7D-15,  2.4D-16,  1.3D-11, r^2= 4.7D+00
   Bfn.  Coefficient  Atom+Function         Bfn.  Coefficient  Atom+Function  
  ----- ------------  ---------------      ----- ------------  ---------------
    10      0.578762   1 C  d -2             44      0.578762   6 C  d -2      
    11     -0.575388   1 C  d -1             45     -0.575388   6 C  d -1      
    24      0.425254   3 H  pz               33     -0.424852   5 H  py        
    52      0.424852   7 H  py               63     -0.425254   9 H  pz        
    13     -0.387174   1 C  d  1             47     -0.387174   6 C  d  1      
 
 Vector   61  Occ=0.000000D+00  E= 2.302841D+00  Symmetry=a1g
              MO Center= -1.6D-15, -4.2D-15, -2.8D-16, r^2= 4.8D+00
   Bfn.  Coefficient  Atom+Function         Bfn.  Coefficient  Atom+Function  
  ----- ------------  ---------------      ----- ------------  ---------------
     3      1.135244   1 C  s                37      1.135244   6 C  s         
     2      0.968049   1 C  s                36      0.968049   6 C  s         
    28     -0.526070   4 H  py               32      0.526070   5 H  px        
    51     -0.526070   7 H  px               67      0.526070  10 H  py        
    19      0.491656   2 H  pz               58     -0.491656   8 H  pz        
 
 Vector   62  Occ=0.000000D+00  E= 2.319847D+00  Symmetry=a2u
              MO Center= -1.7D-15, -3.8D-15, -1.1D-15, r^2= 4.3D+00
   Bfn.  Coefficient  Atom+Function         Bfn.  Coefficient  Atom+Function  
  ----- ------------  ---------------      ----- ------------  ---------------
     3      1.338560   1 C  s                37     -1.338560   6 C  s         
     2      0.894345   1 C  s                36     -0.894345   6 C  s         
    28     -0.582056   4 H  py               32      0.582056   5 H  px        
    51      0.582056   7 H  px               67     -0.582056  10 H  py        
    20     -0.470027   3 H  s                25     -0.470027   4 H  s         
 
 Vector   63  Occ=0.000000D+00  E= 2.337046D+00  Symmetry=eg
              MO Center= -4.5D-14, -1.6D-13, -8.7D-13, r^2= 4.2D+00
   Bfn.  Coefficient  Atom+Function         Bfn.  Coefficient  Atom+Function  
  ----- ------------  ---------------      ----- ------------  ---------------
    30     -0.930973   5 H  s                49     -0.930973   7 H  s         
     4      0.912674   1 C  px               38     -0.912674   6 C  px        
    32      0.860475   5 H  px               51     -0.860475   7 H  px        
     7      0.685474   1 C  px               41     -0.685474   6 C  px        
    20      0.677164   3 H  s                59      0.677164   9 H  s         
 
 Vector   64  Occ=0.000000D+00  E= 2.337046D+00  Symmetry=eg
              MO Center= -3.3D-14, -1.8D-13,  9.1D-13, r^2= 4.2D+00
   Bfn.  Coefficient  Atom+Function         Bfn.  Coefficient  Atom+Function  
  ----- ------------  ---------------      ----- ------------  ---------------
    25      0.928458   4 H  s                64      0.928458  10 H  s         
     5      0.912674   1 C  py               39     -0.912674   6 C  py        
    28      0.858146   4 H  py               67     -0.858146  10 H  py        
     8      0.685474   1 C  py               20     -0.684034   3 H  s         
    42     -0.685474   6 C  py               59     -0.684034   9 H  s         
 
 Vector   65  Occ=0.000000D+00  E= 2.352530D+00  Symmetry=a1g
              MO Center=  1.6D-13, -3.0D-13,  6.9D-13, r^2= 6.2D+00
   Bfn.  Coefficient  Atom+Function         Bfn.  Coefficient  Atom+Function  
  ----- ------------  ---------------      ----- ------------  ---------------
    15     -1.075632   2 H  s                54     -1.075632   8 H  s         
    19      1.048803   2 H  pz               58     -1.048803   8 H  pz        
    12      1.010523   1 C  d  0             46      1.010523   6 C  d  0      
     6      0.910107   1 C  pz               40     -0.910107   6 C  pz        
     9      0.639688   1 C  pz               43     -0.639688   6 C  pz        
 
 Vector   66  Occ=0.000000D+00  E= 2.355584D+00  Symmetry=eu
              MO Center= -2.0D-13,  2.3D-13,  1.1D-12, r^2= 4.2D+00
   Bfn.  Coefficient  Atom+Function         Bfn.  Coefficient  Atom+Function  
  ----- ------------  ---------------      ----- ------------  ---------------
    20      0.873415   3 H  s                59     -0.873415   9 H  s         
     4      0.866963   1 C  px               38      0.866963   6 C  px        
    30     -0.861961   5 H  s                49      0.861961   7 H  s         
    32      0.752149   5 H  px               51      0.752149   7 H  px        
    10      0.732808   1 C  d -2             44     -0.732808   6 C  d -2      
 
 Vector   67  Occ=0.000000D+00  E= 2.355584D+00  Symmetry=eu
              MO Center=  1.0D-13,  4.0D-13, -1.1D-12, r^2= 4.2D+00
   Bfn.  Coefficient  Atom+Function         Bfn.  Coefficient  Atom+Function  
  ----- ------------  ---------------      ----- ------------  ---------------
    25      1.001920   4 H  s                64     -1.001920  10 H  s         
     5      0.866963   1 C  py               28      0.866743   4 H  py        
    39      0.866963   6 C  py               67      0.866743  10 H  py        
    14      0.732808   1 C  d  2             48     -0.732808   6 C  d  2      
     8      0.708793   1 C  py               42      0.708793   6 C  py        
 
 Vector   68  Occ=0.000000D+00  E= 2.373986D+00  Symmetry=a2u
              MO Center=  5.2D-15,  1.0D-14, -7.0D-13, r^2= 7.1D+00
   Bfn.  Coefficient  Atom+Function         Bfn.  Coefficient  Atom+Function  
  ----- ------------  ---------------      ----- ------------  ---------------
    15      1.193738   2 H  s                54     -1.193738   8 H  s         
    19     -1.119202   2 H  pz               58     -1.119202   8 H  pz        
     9     -1.069433   1 C  pz               43     -1.069433   6 C  pz        
    12     -0.974410   1 C  d  0             46      0.974410   6 C  d  0      
     6     -0.841303   1 C  pz               40     -0.841303   6 C  pz        
 

 Task  times  cpu:        0.3s     wall:        0.3s
 
 
                                NWChem Input Module
                                -------------------
 
 
 Summary of allocated global arrays
-----------------------------------
  No active global arrays



                         GA Statistics for process    0
                         ------------------------------

       create   destroy   get      put      acc     scatter   gather  read&inc
calls: 1238     1242     7.66e+04 1.01e+04 6.11e+04   42        0     6043     
number of processes/call 1.05e+00 1.29e+00 1.05e+00 0.00e+00 0.00e+00
bytes total:             6.43e+07 1.57e+07 3.63e+07 1.25e+04 0.00e+00 4.83e+04
bytes remote:            1.00e+07 2.34e+06 9.12e+06 0.00e+00 0.00e+00 0.00e+00
Max memory consumed for GA by this process: 634560 bytes
 
MA_summarize_allocated_blocks: starting scan ...
MA_summarize_allocated_blocks: scan completed: 0 heap blocks, 0 stack blocks
MA usage statistics:

	allocation statistics:
					      heap	     stack
					      ----	     -----
	current number of blocks	         0	         0
	maximum number of blocks	        24	        55
	current total bytes		         0	         0
	maximum total bytes		    919664	  26171464
	maximum total K-bytes		       920	     26172
	maximum total M-bytes		         1	        27
 
 
                                     CITATION
                                     --------
                Please cite the following reference when publishing
                           results obtained with NWChem:
 
                 M. Valiev, E.J. Bylaska, N. Govind, K. Kowalski,
              T.P. Straatsma, H.J.J. van Dam, D. Wang, J. Nieplocha,
                        E. Apra, T.L. Windus, W.A. de Jong
                 "NWChem: a comprehensive and scalable open-source
                  solution for large scale molecular simulations"
                      Comput. Phys. Commun. 181, 1477 (2010)
                           doi:10.1016/j.cpc.2010.04.018
 
                                      AUTHORS
                                      -------
          E. Apra, E. J. Bylaska, W. A. de Jong, N. Govind, K. Kowalski,
       T. P. Straatsma, M. Valiev, H. J. J. van Dam, D. Wang, T. L. Windus,
        J. Hammond, J. Autschbach, K. Bhaskaran-Nair, J. Brabec, K. Lopata,
       S. A. Fischer, S. Krishnamoorthy, W. Ma, M. Klemm, O. Villa, Y. Chen,
    V. Anisimov, F. Aquino, S. Hirata, M. T. Hackler, T. Risthaus, M. Malagoli,
       A. Marenich, A. Otero-de-la-Roza, J. Mullin, P. Nichols, R. Peverati,
     J. Pittner, Y. Zhao, P.-D. Fan, A. Fonari, M. Williamson, R. J. Harrison,
       J. R. Rehr, M. Dupuis, D. Silverstein, D. M. A. Smith, J. Nieplocha,
        V. Tipparaju, M. Krishnan, B. E. Van Kuiken, A. Vazquez-Mayagoitia,
        L. Jensen, M. Swart, Q. Wu, T. Van Voorhis, A. A. Auer, M. Nooijen,
      L. D. Crosby, E. Brown, G. Cisneros, G. I. Fann, H. Fruchtl, J. Garza,
        K. Hirao, R. A. Kendall, J. A. Nichols, K. Tsemekhman, K. Wolinski,
     J. Anchell, D. E. Bernholdt, P. Borowski, T. Clark, D. Clerc, H. Dachsel,
   M. J. O. Deegan, K. Dyall, D. Elwood, E. Glendening, M. Gutowski, A. C. Hess,
         J. Jaffe, B. G. Johnson, J. Ju, R. Kobayashi, R. Kutteh, Z. Lin,
   R. Littlefield, X. Long, B. Meng, T. Nakajima, S. Niu, L. Pollack, M. Rosing,
   K. Glaesemann, G. Sandrone, M. Stave, H. Taylor, G. Thomas, J. H. van Lenthe,
                               A. T. Wong, Z. Zhang.

 Total times  cpu:        7.2s     wall:        7.6s
