 
Processor list
 
cu06n[149,191]
 
ARMCI configured for 2 cluster nodes. Network protocol is 'OpenIB Verbs API'.
All connections between all procs tested: SUCCESS
 argument  1 = /mscf/home/d3p852/nwchem-5.1.1/QA/tests/tropt-ch3nh2/tropt-ch3nh2.nw



============================== echo of input deck ==============================
echo
start ch3nh2
Title "ch3nh2 optimization with tropt"

geometry noautosym units au
N 1.5916930881 0.0000000000 0.0000000000
C -1.1078124728 -0.0307371822 0.0000000000
H 2.6143261592 -1.6302003168 0.0000000000
H -1.8166631951 1.9316390571 0.0000000000
H 2.5780491273 1.6491159373 0.0000000000
H -1.9297963534 -0.9599087477 1.6969519068
H -1.9297963534 -0.9599087477 -1.6969519068
end

basis
* library DZVP_(DFT_Orbital)
end


task dft freq

tropt
maxiter 50
xyz
inhess 2
end

task dft optimize
task dft freq
================================================================================


                                         
                                         


              Northwest Computational Chemistry Package (NWChem) 6.0
              ------------------------------------------------------


                    Environmental Molecular Sciences Laboratory
                       Pacific Northwest National Laboratory
                                Richland, WA 99352

                              Copyright (c) 1994-2010
                       Pacific Northwest National Laboratory
                            Battelle Memorial Institute

             NWChem is an open-source computational chemistry package
                        distributed under the terms of the
                      Educational Community License (ECL) 2.0
             A copy of the license is included with this distribution
                              in the LICENSE.TXT file

                                  ACKNOWLEDGMENT
                                  --------------

            This software and its documentation were developed at the
            EMSL at Pacific Northwest National Laboratory, a multiprogram
            national laboratory, operated for the U.S. Department of Energy
            by Battelle under Contract Number DE-AC05-76RL01830. Support
            for this work was provided by the Department of Energy Office
            of Biological and Environmental Research, Office of Basic
            Energy Sciences, and the Office of Advanced Scientific Computing.


           Job information
           ---------------

    hostname      = cu6n149
    program       = /scratch/nwchem
    date          = Fri Oct 29 11:42:32 2010

    compiled      = Thu_Oct_28_07:10:53_2010
    source        = /home/scicons/user/kurt/nwchem-6.0-release-pgf90-final/
    nwchem branch = 6.0
    input         = /mscf/home/d3p852/nwchem-5.1.1/QA/tests/tropt-ch3nh2/tropt-ch3nh2.nw
    prefix        = ch3nh2.
    data base     = ./ch3nh2.db
    status        = startup
    nproc         =        8
    time left     =   1764s



           Memory information
           ------------------

    heap     =  104857601 doubles =    800.0 Mbytes
    stack    =  104857601 doubles =    800.0 Mbytes
    global   =  209715200 doubles =   1600.0 Mbytes (distinct from heap & stack)
    total    =  419430402 doubles =   3200.0 Mbytes
    verify   = yes
    hardfail = no 


           Directory information
           ---------------------

  0 permanent = .
  0 scratch   = .




                                NWChem Input Module
                                -------------------


                          ch3nh2 optimization with tropt
                          ------------------------------

          ------
          auto-z
          ------


                             Geometry "geometry" -> ""
                             -------------------------

 Output coordinates in a.u. (scale by  1.000000000 to convert to a.u.)

  No.       Tag          Charge          X              Y              Z
 ---- ---------------- ---------- -------------- -------------- --------------
    1 N                    7.0000     1.36885441     0.00853811     0.00000000
    2 C                    6.0000    -1.33065115    -0.02219908     0.00000000
    3 H                    1.0000     2.39148748    -1.62166221     0.00000000
    4 H                    1.0000    -2.03950187     1.94017716     0.00000000
    5 H                    1.0000     2.35521045     1.65765404     0.00000000
    6 H                    1.0000    -2.15263503    -0.95137064     1.69695191
    7 H                    1.0000    -2.15263503    -0.95137064    -1.69695191

      Atomic Mass 
      ----------- 

      N                 14.003070
      C                 12.000000
      H                  1.007825


 Effective nuclear repulsion energy (a.u.)      42.0215099434

            Nuclear Dipole moment (a.u.) 
            ----------------------------
        X                 Y               Z
 ---------------- ---------------- ----------------
     0.0000000000     0.0000000000     0.0000000000



                                Z-matrix (autoz)
                                -------- 

 Units are Angstrom for bonds and degrees for angles

      Type          Name      I     J     K     L     M      Value
      ----------- --------  ----- ----- ----- ----- ----- ----------
    1 Stretch                  1     2                       1.42861
    2 Stretch                  1     3                       1.01835
    3 Stretch                  1     5                       1.01686
    4 Stretch                  2     4                       1.10412
    5 Stretch                  2     6                       1.11236
    6 Stretch                  2     7                       1.11236
    7 Bend                     1     2     4               109.20841
    8 Bend                     1     2     6               113.33112
    9 Bend                     1     2     7               113.33112
   10 Bend                     2     1     3               121.44791
   11 Bend                     2     1     5               121.53650
   12 Bend                     3     1     5               117.01559
   13 Bend                     4     2     6               106.43265
   14 Bend                     4     2     7               106.43265
   15 Bend                     6     2     7               107.66201
   16 Torsion                  3     1     2     4         180.00000
   17 Torsion                  3     1     2     6          61.54218
   18 Torsion                  3     1     2     7         -61.54218
   19 Torsion                  4     2     1     5           0.00000
   20 Torsion                  5     1     2     6        -118.45782
   21 Torsion                  5     1     2     7         118.45782


            XYZ format geometry
            -------------------
     7
 geometry
 N                     0.72436661     0.00451817     0.00000000
 C                    -0.70415031    -0.01174725     0.00000000
 H                     1.26552077    -0.85814675     0.00000000
 H                    -1.07925799     1.02669761     0.00000000
 H                     1.24632379     0.87719281     0.00000000
 H                    -1.13912548    -0.50344370     0.89798834
 H                    -1.13912548    -0.50344370    -0.89798834

 ==============================================================================
                                internuclear distances
 ------------------------------------------------------------------------------
       center one      |      center two      | atomic units |       a.u.
 ------------------------------------------------------------------------------
    2 C                |   1 N                |     2.69968  |     2.69968
    3 H                |   1 N                |     1.92440  |     1.92440
    4 H                |   2 C                |     2.08648  |     2.08648
    5 H                |   1 N                |     1.92158  |     1.92158
    6 H                |   2 C                |     2.10206  |     2.10206
    7 H                |   2 C                |     2.10206  |     2.10206
 ------------------------------------------------------------------------------
                         number of included internuclear distances:          6
 ==============================================================================



 ==============================================================================
                                 internuclear angles
 ------------------------------------------------------------------------------
        center 1       |       center 2       |       center 3       |  degrees
 ------------------------------------------------------------------------------
    2 C                |   1 N                |   3 H                |   121.45
    2 C                |   1 N                |   5 H                |   121.54
    3 H                |   1 N                |   5 H                |   117.02
    1 N                |   2 C                |   4 H                |   109.21
    1 N                |   2 C                |   6 H                |   113.33
    1 N                |   2 C                |   7 H                |   113.33
    4 H                |   2 C                |   6 H                |   106.43
    4 H                |   2 C                |   7 H                |   106.43
    6 H                |   2 C                |   7 H                |   107.66
 ------------------------------------------------------------------------------
                            number of included internuclear angles:          9
 ==============================================================================



  library name resolved from: environment
  library file name is: <
 /mscf/scicons/apps/nwchem-6.0.oct19//src/basis/libraries/>
  


 Summary of "ao basis" -> "" (cartesian)
 ------------------------------------------------------------------------------
       Tag                 Description            Shells   Functions and Types
 ---------------- ------------------------------  ------  ---------------------
 *                     DZVP_(DFT_Orbital)             on all atoms 




                   NWChem Nuclear Hessian and Frequency Analysis
                   ---------------------------------------------



                              NWChem Analytic Hessian
                              -----------------------

  itol2e modified to match energy
  convergence criterion.

                                 NWChem DFT Module
                                 -----------------


                          ch3nh2 optimization with tropt


                      Basis "ao basis" -> "ao basis" (cartesian)
                      -----
  N (Nitrogen)
  ------------
            Exponent  Coefficients 
       -------------- ---------------------------------------------------------
  1 S  3.84541490E+03  0.002019
  1 S  5.77533230E+02  0.015408
  1 S  1.31319830E+02  0.075371
  1 S  3.68237810E+01  0.248212
  1 S  1.16701150E+01  0.479827
  1 S  3.85426040E+00  0.331801

  2 S  7.82956110E+00 -0.077667
  2 S  6.87735100E-01  0.565460

  3 S  2.04038800E-01  1.000000

  4 P  2.68098410E+01  0.015466
  4 P  6.06815400E+00  0.096440
  4 P  1.76762560E+00  0.308361
  4 P  5.46672700E-01  0.491160

  5 P  1.58728900E-01  1.000000

  6 D  7.00000000E-01  1.000000

  C (Carbon)
  ----------
            Exponent  Coefficients 
       -------------- ---------------------------------------------------------
  1 S  2.80806450E+03  0.002018
  1 S  4.21138280E+02  0.015433
  1 S  9.55866160E+01  0.075582
  1 S  2.67390040E+01  0.247828
  1 S  8.43282680E+00  0.479373
  1 S  2.76058210E+00  0.333834

  2 S  5.44700450E+00 -0.077841
  2 S  4.79242200E-01  0.568956

  3 S  1.46156500E-01  1.000000

  4 P  1.81308520E+01  0.015855
  4 P  4.09988320E+00  0.095683
  4 P  1.18583700E+00  0.304912
  4 P  3.68597400E-01  0.493502

  5 P  1.09720000E-01  1.000000

  6 D  6.00000000E-01  1.000000

  H (Hydrogen)
  ------------
            Exponent  Coefficients 
       -------------- ---------------------------------------------------------
  1 S  5.09991780E+01  0.009660
  1 S  7.48321810E+00  0.073729
  1 S  1.77746760E+00  0.295858
  1 S  5.19329500E-01  0.715905

  2 S  1.54110000E-01  1.000000



 Summary of "ao basis" -> "ao basis" (cartesian)
 ------------------------------------------------------------------------------
       Tag                 Description            Shells   Functions and Types
 ---------------- ------------------------------  ------  ---------------------
 N                     DZVP (DFT Orbital)            6       15   3s2p1d
 C                     DZVP (DFT Orbital)            6       15   3s2p1d
 H                     DZVP (DFT Orbital)            2        2   2s


  Caching 1-el integrals 

            General Information
            -------------------
          SCF calculation type: DFT
          Wavefunction type:  closed shell.
          No. of atoms     :     7
          No. of electrons :    18
           Alpha electrons :     9
            Beta electrons :     9
          Charge           :     0
          Spin multiplicity:     1
          Use of symmetry is: off; symmetry adaption is: off
          Maximum number of iterations:  30
          AO basis - number of functions:    40
                     number of shells:    22
          Convergence on energy requested: 1.00D-07
          Convergence on density requested: 1.00D-05
          Convergence on gradient requested: 1.00D-06

              XC Information
              --------------
                        Slater Exchange Functional  1.000 local    
                      VWN V Correlation Functional  1.000 local    

             Grid Information
             ----------------
          Grid used for XC integration:  fine      
          Radial quadrature: Mura-Knowles        
          Angular quadrature: Lebedev. 
          Tag              B.-S. Rad. Rad. Pts. Rad. Cut. Ang. Pts.
          ---              ---------- --------- --------- ---------
          N                   0.65       70           7.0       590
          C                   0.70       70           8.0       590
          H                   0.35       60           9.0       590
          Grid pruning is: on 
          Number of quadrature shells:   440
          Spatial weights used:  Erf1

          Convergence Information
          -----------------------
          Convergence aids based upon iterative change in 
          total energy or number of iterations. 
          Levelshifting, if invoked, occurs when the 
          HOMO/LUMO gap drops below (HL_TOL): 1.00D-02
          DIIS, if invoked, will attempt to extrapolate 
          using up to (NFOCK): 10 stored Fock matrices.

                    Damping( 0%)  Levelshifting(0.5)       DIIS
                  --------------- ------------------- ---------------
          dE  on:    start            ASAP                start   
          dE off:    2 iters         30 iters            30 iters 


      Screening Tolerance Information
      -------------------------------
          Density screening/tol_rho: 1.00D-11
          AO Gaussian exp screening on grid/accAOfunc:  16
          CD Gaussian exp screening on grid/accCDfunc:  20
          XC Gaussian exp screening on grid/accXCfunc:  20
          Schwarz screening/accCoul: 1.00D-08


      Superposition of Atomic Density Guess
      -------------------------------------

 Sum of atomic energies:         -94.44768350

      Non-variational initial energy
      ------------------------------

 Total energy =     -95.607849
 1-e energy   =    -209.044369
 2-e energy   =      71.415010
 HOMO         =      -0.275331
 LUMO         =       0.103628

   Time after variat. SCF:      0.6
   Time prior to 1st pass:      0.6

 Grid_pts file          = ./ch3nh2.gridpts.0
 Record size in doubles =  12289        No. of grid_pts per rec  =   3070
 Max. records in memory =     13        Max. recs in file   =    903273


           Memory utilization after 1st SCF pass: 
           Heap Space remaining (MW):      104.70           104695150
          Stack Space remaining (MW):      104.86           104857216

   convergence    iter        energy       DeltaE   RMS-Dens  Diis-err    time
 ---------------- ----- ----------------- --------- --------- ---------  ------
 d= 0,ls=0.0,diis     1    -94.9845617314 -1.37D+02  1.59D-02  5.00D-01     0.8
 d= 0,ls=0.0,diis     2    -94.9801949300  4.37D-03  1.24D-02  2.90D-01     0.9
 d= 0,ls=0.0,diis     3    -94.9964732400 -1.63D-02  5.09D-03  1.34D-01     1.1
 d= 0,ls=0.0,diis     4    -95.0104272668 -1.40D-02  4.63D-04  4.92D-04     1.2
 d= 0,ls=0.0,diis     5    -95.0104858490 -5.86D-05  1.17D-04  4.89D-05     1.3
 d= 0,ls=0.0,diis     6    -95.0104919649 -6.12D-06  2.00D-05  4.87D-07     1.5
 d= 0,ls=0.0,diis     7    -95.0104920285 -6.36D-08  1.46D-06  4.59D-09     1.6


         Total DFT energy =      -95.010492028486
      One electron energy =     -211.607171805899
           Coulomb energy =       87.847507887889
    Exchange-Corr. energy =      -13.272338053917
 Nuclear repulsion energy =       42.021509943440

 Numeric. integr. density =       18.000000440719

     Total iterative time =      1.1s



                       DFT Final Molecular Orbital Analysis
                       ------------------------------------

 Vector    1  Occ=2.000000D+00  E=-1.383202D+01
              MO Center=  7.2D-01,  4.5D-03,  7.0D-15, r^2= 2.0D-02
   Bfn.  Coefficient  Atom+Function         Bfn.  Coefficient  Atom+Function  
  ----- ------------  ---------------      ----- ------------  ---------------
     1      0.997776  1 N  s          

 Vector    2  Occ=2.000000D+00  E=-9.796910D+00
              MO Center= -7.0D-01, -1.2D-02,  1.5D-15, r^2= 2.8D-02
   Bfn.  Coefficient  Atom+Function         Bfn.  Coefficient  Atom+Function  
  ----- ------------  ---------------      ----- ------------  ---------------
    16      0.997945  2 C  s          

 Vector    3  Occ=2.000000D+00  E=-7.797491D-01
              MO Center=  4.5D-01,  7.9D-03,  1.0D-11, r^2= 9.4D-01
   Bfn.  Coefficient  Atom+Function         Bfn.  Coefficient  Atom+Function  
  ----- ------------  ---------------      ----- ------------  ---------------
     2      0.423265  1 N  s                  3      0.293361  1 N  s          
    17      0.218214  2 C  s                  1     -0.201090  1 N  s          

 Vector    4  Occ=2.000000D+00  E=-5.859397D-01
              MO Center= -2.7D-01,  1.3D-02,  1.3D-11, r^2= 1.8D+00
   Bfn.  Coefficient  Atom+Function         Bfn.  Coefficient  Atom+Function  
  ----- ------------  ---------------      ----- ------------  ---------------
    17     -0.371078  2 C  s                 18     -0.257140  2 C  s          
     4      0.235795  1 N  px                 2      0.189462  1 N  s          
    16      0.176715  2 C  s                  3      0.175613  1 N  s          

 Vector    5  Occ=2.000000D+00  E=-4.494102D-01
              MO Center=  5.9D-01,  4.1D-02,  3.3D-12, r^2= 1.4D+00
   Bfn.  Coefficient  Atom+Function         Bfn.  Coefficient  Atom+Function  
  ----- ------------  ---------------      ----- ------------  ---------------
     5     -0.493867  1 N  py                20     -0.239436  2 C  py         
    35     -0.215765  5 H  s                 31      0.209001  3 H  s          
     8     -0.176046  1 N  py         

 Vector    6  Occ=2.000000D+00  E=-3.963192D-01
              MO Center= -5.6D-02, -1.2D-02,  1.7D-11, r^2= 1.7D+00
   Bfn.  Coefficient  Atom+Function         Bfn.  Coefficient  Atom+Function  
  ----- ------------  ---------------      ----- ------------  ---------------
     4     -0.472787  1 N  px                19      0.455722  2 C  px         
     7     -0.159332  1 N  px         

 Vector    7  Occ=2.000000D+00  E=-3.601854D-01
              MO Center= -6.8D-01, -1.9D-01, -2.6D-12, r^2= 1.4D+00
   Bfn.  Coefficient  Atom+Function         Bfn.  Coefficient  Atom+Function  
  ----- ------------  ---------------      ----- ------------  ---------------
    21      0.512916  2 C  pz                 6      0.219115  1 N  pz         
    37      0.212178  6 H  s                 39     -0.212178  7 H  s          
    24      0.150126  2 C  pz         

 Vector    8  Occ=2.000000D+00  E=-3.199038D-01
              MO Center= -5.3D-01,  1.9D-01, -1.4D-11, r^2= 1.9D+00
   Bfn.  Coefficient  Atom+Function         Bfn.  Coefficient  Atom+Function  
  ----- ------------  ---------------      ----- ------------  ---------------
    20      0.482060  2 C  py                33      0.265808  4 H  s          
     5     -0.239713  1 N  py                34      0.190412  4 H  s          
    23      0.161321  2 C  py         

 Vector    9  Occ=2.000000D+00  E=-1.664760D-01
              MO Center=  4.4D-01, -5.7D-02, -7.6D-12, r^2= 1.6D+00
   Bfn.  Coefficient  Atom+Function         Bfn.  Coefficient  Atom+Function  
  ----- ------------  ---------------      ----- ------------  ---------------
     6      0.645670  1 N  pz                 9      0.469385  1 N  pz         
    38     -0.185145  6 H  s                 40      0.185145  7 H  s          
    21     -0.154278  2 C  pz         

 Vector   10  Occ=0.000000D+00  E= 5.055334D-02
              MO Center=  7.0D-01,  6.2D-02,  7.3D-12, r^2= 3.8D+00
   Bfn.  Coefficient  Atom+Function         Bfn.  Coefficient  Atom+Function  
  ----- ------------  ---------------      ----- ------------  ---------------
     3     -1.561424  1 N  s                 36      0.995913  5 H  s          
    32      0.883000  3 H  s                 18     -0.858644  2 C  s          
    34      0.735881  4 H  s                 22      0.615655  2 C  px         
     7     -0.382848  1 N  px                40      0.331334  7 H  s          
    38      0.331334  6 H  s                 23     -0.264435  2 C  py         

 Vector   11  Occ=0.000000D+00  E= 9.962050D-02
              MO Center= -1.1D+00, -2.3D-02,  3.5D-11, r^2= 3.9D+00
   Bfn.  Coefficient  Atom+Function         Bfn.  Coefficient  Atom+Function  
  ----- ------------  ---------------      ----- ------------  ---------------
    18      3.145633  2 C  s                  3     -1.146661  1 N  s          
    34     -1.116161  4 H  s                 38     -1.113137  6 H  s          
    40     -1.113137  7 H  s                  7      0.737993  1 N  px         
    22      0.316343  2 C  px                17      0.297127  2 C  s          
    16     -0.159217  2 C  s          

 Vector   12  Occ=0.000000D+00  E= 1.068441D-01
              MO Center=  7.6D-01, -2.1D-02,  3.7D-12, r^2= 4.0D+00
   Bfn.  Coefficient  Atom+Function         Bfn.  Coefficient  Atom+Function  
  ----- ------------  ---------------      ----- ------------  ---------------
    32      1.606872  3 H  s                 36     -1.500873  5 H  s          
     8      1.286661  1 N  py                34     -0.445373  4 H  s          
     5      0.391483  1 N  py                20      0.328938  2 C  py         
    38      0.314296  6 H  s                 40      0.314296  7 H  s          
     3     -0.163383  1 N  s          

 Vector   13  Occ=0.000000D+00  E= 1.488096D-01
              MO Center= -6.5D-01, -2.4D-01,  2.0D-11, r^2= 4.0D+00
   Bfn.  Coefficient  Atom+Function         Bfn.  Coefficient  Atom+Function  
  ----- ------------  ---------------      ----- ------------  ---------------
    23      1.672828  2 C  py                22      1.440756  2 C  px         
    40      1.269393  7 H  s                 38      1.269393  6 H  s          
    32     -1.117373  3 H  s                 34     -1.050128  4 H  s          
     7      0.803491  1 N  px                 8     -0.698039  1 N  py         
     3     -0.335174  1 N  s                  4      0.206796  1 N  px         

 Vector   14  Occ=0.000000D+00  E= 1.702287D-01
              MO Center= -4.3D-01,  1.0D-01, -5.2D-14, r^2= 4.5D+00
   Bfn.  Coefficient  Atom+Function         Bfn.  Coefficient  Atom+Function  
  ----- ------------  ---------------      ----- ------------  ---------------
    34     -1.953953  4 H  s                 23      1.533426  2 C  py         
    22     -1.362396  2 C  px                36      1.317329  5 H  s          
     7     -0.779500  1 N  px                 8     -0.580402  1 N  py         
    32      0.575893  3 H  s                  4     -0.329038  1 N  px         
    40      0.215056  7 H  s                 38      0.215056  6 H  s          

 Vector   15  Occ=0.000000D+00  E= 1.721175D-01
              MO Center= -9.1D-01, -8.2D-02, -9.7D-12, r^2= 3.1D+00
   Bfn.  Coefficient  Atom+Function         Bfn.  Coefficient  Atom+Function  
  ----- ------------  ---------------      ----- ------------  ---------------
    24     -2.078894  2 C  pz                40     -1.951237  7 H  s          
    38      1.951237  6 H  s                  9      0.521282  1 N  pz         
    21     -0.514440  2 C  pz                 6      0.161527  1 N  pz         

 Vector   16  Occ=0.000000D+00  E= 2.481319D-01
              MO Center= -7.5D-01,  2.4D-01, -3.2D-11, r^2= 3.2D+00
   Bfn.  Coefficient  Atom+Function         Bfn.  Coefficient  Atom+Function  
  ----- ------------  ---------------      ----- ------------  ---------------
    24     -1.719073  2 C  pz                21      0.790114  2 C  pz         
    38      0.444759  6 H  s                 40     -0.444759  7 H  s          
     9      0.312623  1 N  pz         

 Vector   17  Occ=0.000000D+00  E= 2.650665D-01
              MO Center= -4.9D-01, -8.0D-02, -1.8D-11, r^2= 3.7D+00
   Bfn.  Coefficient  Atom+Function         Bfn.  Coefficient  Atom+Function  
  ----- ------------  ---------------      ----- ------------  ---------------
    23      1.251899  2 C  py                20     -0.819509  2 C  py         
    32      0.611612  3 H  s                 36     -0.603227  5 H  s          
     5      0.269230  1 N  py         

 Vector   18  Occ=0.000000D+00  E= 3.346150D-01
              MO Center= -8.4D-02,  1.6D-02, -1.8D-12, r^2= 2.3D+00
   Bfn.  Coefficient  Atom+Function         Bfn.  Coefficient  Atom+Function  
  ----- ------------  ---------------      ----- ------------  ---------------
     7     -1.025124  1 N  px                19     -0.991830  2 C  px         
    18     -0.796765  2 C  s                 22      0.593574  2 C  px         
    36      0.288534  5 H  s                 32      0.272321  3 H  s          
    17     -0.242575  2 C  s                  2      0.224327  1 N  s          
     4     -0.201383  1 N  px                 3     -0.191076  1 N  s          

 Vector   19  Occ=0.000000D+00  E= 4.752917D-01
              MO Center=  9.1D-01,  5.0D-02,  1.5D-11, r^2= 2.5D+00
   Bfn.  Coefficient  Atom+Function         Bfn.  Coefficient  Atom+Function  
  ----- ------------  ---------------      ----- ------------  ---------------
     7      2.267425  1 N  px                18      1.442105  2 C  s          
    22      1.061370  2 C  px                32     -0.837094  3 H  s          
     4     -0.702459  1 N  px                36     -0.691748  5 H  s          
    31     -0.367519  3 H  s                 34      0.357957  4 H  s          
    17     -0.269370  2 C  s                 35     -0.256380  5 H  s          

 Vector   20  Occ=0.000000D+00  E= 4.906605D-01
              MO Center=  7.9D-01,  3.0D-02, -1.4D-11, r^2= 2.3D+00
   Bfn.  Coefficient  Atom+Function         Bfn.  Coefficient  Atom+Function  
  ----- ------------  ---------------      ----- ------------  ---------------
     9      1.408067  1 N  pz                 6     -0.909230  1 N  pz         
    24     -0.904790  2 C  pz                40     -0.276972  7 H  s          
    38      0.276972  6 H  s          

 Vector   21  Occ=0.000000D+00  E= 6.041593D-01
              MO Center=  2.1D-01, -1.2D-01,  6.9D-13, r^2= 2.5D+00
   Bfn.  Coefficient  Atom+Function         Bfn.  Coefficient  Atom+Function  
  ----- ------------  ---------------      ----- ------------  ---------------
     8      2.811729  1 N  py                23     -1.443962  2 C  py         
    36     -1.331267  5 H  s                 32      1.063361  3 H  s          
    34      1.049647  4 H  s                  5     -0.683313  1 N  py         
    38     -0.421496  6 H  s                 40     -0.421496  7 H  s          
    35     -0.383979  5 H  s                  7      0.336319  1 N  px         


 center of mass
 --------------
 x =   0.05121324 y =  -0.00234606 z =   0.00000000

 moments of inertia (a.u.)
 ------------------
          16.848926642794          -0.688002033768           0.000000000000
          -0.688002033768          78.095654574309           0.000000000000
           0.000000000000           0.000000000000          83.335865208409

     Multipole analysis of the density
     ---------------------------------

     L   x y z        total         alpha         beta         nuclear
     -   - - -        -----         -----         ----         -------
     0   0 0 0      0.000000     -9.000000     -9.000000     18.000000

     1   1 0 0      0.150932      0.075466      0.075466      0.000000
     1   0 1 0      0.050267      0.025133      0.025133      0.000000
     1   0 0 1      0.000000      0.000000      0.000000      0.000000

     2   2 0 0     -9.483074    -28.958339    -28.958339     48.433603
     2   1 1 0     -0.138507     -0.281203     -0.281203      0.423899
     2   1 0 1      0.000000      0.000000      0.000000      0.000000
     2   0 2 0     -9.076473    -10.016023    -10.016023     10.955572
     2   0 1 1      0.000000      0.000000      0.000000      0.000000
     2   0 0 2    -12.085720     -8.922506     -8.922506      5.759292


 HESSIAN: the one electron contributions are done in       0.1s


 HESSIAN: 2-el 1st deriv. term done in                     0.4s


 HESSIAN: 2-el 2nd deriv. term done in                     0.8s

  stpr_wrt_fd_from_sq: overwrite of existing file:./ch3nh2.hess
 stpr_wrt_fd_dipole: overwrite of existing file./ch3nh2.fd_ddipole

 HESSIAN: the two electron contributions are done in       2.7s

                                NWChem CPHF Module
                                ------------------


  scftype          =     RHF 
  nclosed          =        9
  nopen            =        0
  variables        =      279
  # of vectors     =       21
  tolerance        = 0.10D-03
  level shift      = 0.00D+00
  max iterations   =       50
  max subspace     =      210



Iterative solution of linear equations
  No. of variables      279
  No. of equations       21
  Maximum subspace      210
        Iterations       50
       Convergence  1.0D-04
        Start time      8.5


   iter   nsub   residual    time
   ----  ------  --------  ---------
     1     21    3.03D-01      10.1
     2     42    7.93D-02      11.9
     3     63    8.96D-04      13.5
     4     84    1.12D-05      15.1
 HESSIAN: the CPHF contributions are done
  stpr_wrt_fd_from_sq: overwrite of existing file:./ch3nh2.hess
 stpr_wrt_fd_dipole: overwrite of existing file./ch3nh2.fd_ddipole
 HESSIAN: the Hessian is done


  Vibrational analysis via the FX method 

  See chapter 2 in "Molecular Vibrations" by Wilson, Decius and Cross

  Vib: Default input used 

  Nuclear Hessian passed symmetry test 



 ---------------------------- Atom information ----------------------------
     atom    #        X              Y              Z            mass
 --------------------------------------------------------------------------
    N        1  1.3688544D+00  8.5381062D-03  0.0000000D+00  1.4003070D+01
    C        2 -1.3306511D+00 -2.2199076D-02  0.0000000D+00  1.2000000D+01
    H        3  2.3914875D+00 -1.6216622D+00  0.0000000D+00  1.0078250D+00
    H        4 -2.0395019D+00  1.9401772D+00  0.0000000D+00  1.0078250D+00
    H        5  2.3552105D+00  1.6576540D+00  0.0000000D+00  1.0078250D+00
    H        6 -2.1526350D+00 -9.5137064D-01  1.6969519D+00  1.0078250D+00
    H        7 -2.1526350D+00 -9.5137064D-01 -1.6969519D+00  1.0078250D+00
 --------------------------------------------------------------------------




          ----------------------------------------------------
          MASS-WEIGHTED NUCLEAR HESSIAN (Hartree/Bohr/Bohr/Kamu)
          ----------------------------------------------------


              1           2           3           4           5           6           7           8           9          10
   ----- ----- ----- ----- -----
    1   4.98141D+01
    2   8.59953D-01 5.67573D+01
    3   1.04853D-07-1.53107D-08-1.15379D+00
    4  -2.26760D+01-8.82705D-01-3.40035D-10 4.31688D+01
    5  -2.76857D-01-7.90547D+00-7.93688D-10-1.44440D-01 4.66330D+01
    6   2.43019D-07-4.65795D-08-2.83390D+00-1.64538D-07-1.09660D-09 4.23210D+01
    7  -4.48598D+01 4.49082D+01 1.02792D-08-2.93817D+00 7.56432D+00-3.18759D-07 1.69499D+02
    8   4.44774D+01-9.15144D+01-1.27594D-08-8.36771D-01 1.70925D+00 3.47783D-07-1.77084D+02 3.46790D+02
    9  -9.73864D-08 2.08477D-08 2.99578D+00 5.97302D-08 4.16707D-09-1.16006D+00 1.78306D-07-3.16367D-07-1.86408D+00
   10  -4.88726D+00 9.14890D+00-3.60859D-09-1.97393D+01 2.07763D+01-5.85007D-08-5.59694D+00-9.59046D-01 1.61072D-08 8.40197D+01
   11  -4.43888D-01 5.57538D-01 4.93897D-09 2.37280D+01-8.07768D+01 2.14883D-07-1.13276D+00 1.83563D+00-6.86283D-08-8.61602D+01
   12  -4.62386D-07 8.47905D-08-4.76886D-01 3.12972D-07-1.31212D-08-1.18092D+01 8.27846D-07-1.48328D-06-2.51560D-01-6.15160D-07
   13  -4.27806D+01-4.47852D+01 1.21299D-08-3.21552D+00-6.78016D+00-4.07598D-07 1.24413D+01 1.65083D+01 1.28976D-07 1.22106D+00
   14  -4.49214D+01-9.50370D+01 1.89004D-08 1.48992D+00 1.90207D+00-5.07392D-07-1.57317D+01-1.37414D+01 1.62751D-07 8.99055D-01
   15  -3.81254D-07 7.33153D-08 5.69436D+00 2.62699D-07-4.80980D-09-3.04866D+00 6.89591D-07-1.23188D-06-5.50743D+00-4.76621D-07
   16  -7.45480D+00-4.71572D+00 5.12506D+00-1.92708D+01-1.00150D+01 1.84597D+01 5.05329D-01-6.84324D-01 1.32219D-01 3.34323D+00
   17  -6.81209D-01 8.53118D-01-4.52869D-01-1.02963D+01-2.71405D+01 2.47666D+01 2.25456D-01 1.69165D-01-1.28906D+00-9.78692D+00
   18   1.69745D+00-9.72439D-01 2.93328D+00 1.80733D+01 2.54889D+01-5.97270D+01 4.29131D-01 5.56746D-01 2.29603D-01-1.27840D+00
   19  -7.45480D+00-4.71572D+00-5.12506D+00-1.92708D+01-1.00150D+01-1.84597D+01 5.05328D-01-6.84323D-01-1.32219D-01 3.34323D+00
   20  -6.81209D-01 8.53118D-01 4.52869D-01-1.02963D+01-2.71405D+01-2.47666D+01 2.25454D-01 1.69167D-01 1.28906D+00-9.78692D+00
   21  -1.69745D+00 9.72439D-01 2.93328D+00-1.80733D+01-2.54889D+01-5.97270D+01-4.29130D-01-5.56747D-01 2.29603D-01 1.27840D+00


             11          12          13          14          15          16          17          18          19          20
   ----- ----- ----- ----- -----
   11   2.95130D+02
   12   5.66706D-07 3.98403D+01
   13  -1.13430D-03-1.97966D-07 1.62809D+02
   14   1.40244D+00-2.59142D-07 1.74345D+02 3.59038D+02
   15   4.74569D-07 1.57128D+00 4.94320D-07 9.23443D-07-4.82368D+00
   16   3.53602D+00-8.67885D+00-2.95558D+00 1.39534D+00 5.14433D+00 8.87070D+01
   17  -1.08575D+01 2.35005D+01-2.59789D-01 4.94683D-01 1.03323D+00 4.33208D+01 9.43653D+01
   18  -2.00213D+00 6.83285D-01-1.07123D+00-1.01895D+00-9.73057D-01-7.30849D+01-9.44403D+01 2.16295D+02
   19   3.53602D+00 8.67885D+00-2.95558D+00 1.39534D+00-5.14433D+00 4.68413D+00 4.56823D+00 6.31397D+00 8.87070D+01
   20  -1.08575D+01-2.35005D+01-2.59790D-01 4.94681D-01-1.03323D+00 4.56823D+00 6.30027D+00 1.25767D+01 4.33208D+01 9.43653D+01
   21   2.00213D+00 6.83285D-01 1.07123D+00 1.01895D+00-9.73057D-01-6.31403D+00-1.25767D+01-2.10727D+01 7.30849D+01 9.44403D+01


             21
   ----- ----- ----- ----- -----
   21   2.16295D+02



          -------------------------------------------------
          NORMAL MODE EIGENVECTORS IN CARTESIAN COORDINATES
          -------------------------------------------------
                 (Frequencies expressed in cm-1)

                    1           2           3           4           5           6
 
 Frequency       -588.15       -3.48       -1.78       -1.72       28.14       55.74
 
           1     0.00000    -0.00935    -0.04331    -0.17393    -0.00001     0.00134
           2     0.00000    -0.17947     0.00265     0.00896    -0.00001    -0.14514
           3     0.12359    -0.00040    -0.17336     0.04320    -0.14747     0.00000
           4     0.00000    -0.00936    -0.04331    -0.17393    -0.00001    -0.00225
           5     0.00000    -0.17900     0.00266     0.00899    -0.00001     0.15171
           6    -0.03543    -0.00042    -0.17499     0.04359     0.15340     0.00000
           7     0.00000    -0.00962    -0.04332    -0.17395    -0.00001    -0.16929
           8     0.00000    -0.17964     0.00265     0.00895    -0.00001    -0.25192
           9    -0.49264    -0.00040    -0.17281     0.04308    -0.24901     0.00000
          10     0.00000    -0.00901    -0.04331    -0.17391    -0.00002     0.21609
          11     0.00000    -0.17887     0.00266     0.00900    -0.00001     0.23071
          12     0.04834    -0.00042    -0.17559     0.04373     0.26929     0.00000
          13     0.00000    -0.00908    -0.04331    -0.17391    -0.00002     0.17381
          14     0.00000    -0.17963     0.00265     0.00895    -0.00001    -0.24816
          15    -0.70985    -0.00039    -0.17255     0.04302    -0.29592     0.00000
          16     0.00581    -0.00953    -0.04438    -0.17369     0.19652    -0.10567
          17    -0.05519    -0.17885     0.00278     0.00897    -0.02633     0.24415
          18    -0.07061    -0.00042    -0.17544     0.04369     0.23362     0.00033
          19    -0.00581    -0.00951    -0.04225    -0.17419    -0.19655    -0.10567
          20     0.05519    -0.17885     0.00254     0.00903     0.02632     0.24415
          21    -0.07061    -0.00042    -0.17544     0.04369     0.23362    -0.00033

                    7           8           9          10          11          12
 
 Frequency         81.91      229.67      904.32     1118.89     1157.60     1233.43
 
           1     0.00000     0.00000     0.00263     0.00000     0.16284     0.04149
           2     0.00000     0.00000     0.03794     0.00000    -0.02531     0.09331
           3     0.00297    -0.00986     0.00000    -0.04713     0.00000     0.00000
           4     0.00000     0.00000    -0.00160     0.00000    -0.17867    -0.04933
           5     0.00000     0.00000     0.04267     0.00000     0.03141    -0.12651
           6     0.01262    -0.01502     0.00000     0.12391     0.00000     0.00000
           7     0.00000     0.00000    -0.46105     0.00000     0.30037    -0.27558
           8     0.00000     0.00000    -0.25280     0.00000     0.05145    -0.11134
           9     0.04438     0.80849     0.00000    -0.00036     0.00000     0.00000
          10     0.00000     0.00000    -0.45580     0.00000    -0.29192     0.34498
          11     0.00000     0.00000    -0.12630     0.00000    -0.00620     0.02170
          12    -0.57548     0.11565     0.00000    -0.26379     0.00000     0.00000
          13     0.00000     0.00000     0.45273     0.00000     0.09696     0.42366
          14     0.00000     0.00000    -0.23145     0.00000     0.02640    -0.12716
          15    -0.19977    -0.55216     0.00000    -0.15503     0.00000     0.00000
          16    -0.02661     0.06092     0.22333    -0.53569    -0.12028    -0.24105
          17     0.48500    -0.06042    -0.21230    -0.12348    -0.04703     0.21330
          18     0.26952    -0.02805    -0.03027    -0.20066    -0.02698     0.09252
          19     0.02660    -0.06092     0.22333     0.53569    -0.12028    -0.24105
          20    -0.48500     0.06042    -0.21230     0.12348    -0.04703     0.21330
          21     0.26952    -0.02805     0.03027    -0.20066     0.02698    -0.09252

                   13          14          15          16          17          18
 
 Frequency       1402.87     1422.73     1474.12     1587.58     2899.39     2946.10
 
           1     0.00811     0.00000     0.00251    -0.08978     0.00118     0.00000
           2    -0.00673     0.00000     0.02073    -0.00380    -0.00094     0.00000
           3     0.00000    -0.01188     0.00000     0.00000     0.00000    -0.00142
           4     0.11307     0.00000     0.03428     0.02221     0.04503     0.00000
           5    -0.01282     0.00000     0.03760     0.00339     0.02771     0.00000
           6     0.00000    -0.04730     0.00000     0.00000     0.00000     0.08971
           7    -0.04102     0.00000    -0.04940     0.54203     0.00954     0.00000
           8    -0.03470     0.00000    -0.01187     0.38019    -0.00730     0.00000
           9     0.00000    -0.01360     0.00000     0.00000     0.00000    -0.00431
          10    -0.57995     0.00000     0.24494    -0.06467    -0.08812     0.00000
          11    -0.24955     0.00000     0.09771    -0.02878     0.25641     0.00000
          12     0.00000     0.68561     0.00000     0.00000     0.00000     0.02099
          13    -0.06923     0.00000     0.05604     0.54189     0.00514     0.00000
          14     0.03854     0.00000    -0.01143    -0.36839     0.00975     0.00000
          15     0.00000    -0.01515     0.00000     0.00000     0.00000     0.00995
          16    -0.38438    -0.32417    -0.34726    -0.01810    -0.23959     0.24695
          17     0.24591     0.37446    -0.40503     0.01474    -0.28787     0.31310
          18    -0.07841     0.03571    -0.39414    -0.01063     0.54982    -0.53749
          19    -0.38438     0.32417    -0.34726    -0.01810    -0.23959    -0.24695
          20     0.24592    -0.37446    -0.40503     0.01474    -0.28787    -0.31310
          21     0.07841     0.03571     0.39414     0.01063    -0.54982    -0.53749

                   19          20          21
 
 Frequency       3056.36     3543.03     3660.04
 
           1    -0.00133    -0.05289    -0.00422
           2     0.00165     0.00648    -0.08203
           3     0.00000     0.00000     0.00000
           4     0.01643     0.00195     0.00063
           5    -0.08378     0.00021    -0.00119
           6     0.00000     0.00000     0.00000
           7     0.00266     0.38776    -0.32286
           8    -0.00866    -0.63980     0.51197
           9     0.00000     0.00000     0.00000
          10    -0.30505     0.00196    -0.00384
          11     0.86711    -0.00451     0.01298
          12     0.00000     0.00000     0.00000
          13    -0.00389     0.30936     0.37235
          14    -0.01076     0.54504     0.62710
          15     0.00000     0.00000     0.00000
          16     0.06454     0.00630     0.00275
          17     0.06348     0.00333     0.00096
          18    -0.14808    -0.00834    -0.00360
          19     0.06454     0.00630     0.00275
          20     0.06348     0.00333     0.00096
          21     0.14808     0.00834     0.00360



 ----------------------------------------------------------------------------
 Normal Eigenvalue ||         Derivative Dipole Moments (debye/angs)
  Mode   [cm**-1]  ||      [d/dqX]             [d/dqY]           [d/dqZ]
 ------ ---------- || ------------------ ------------------ -----------------
    1     -588.147 ||       0.000               0.000             2.725
    2       -3.481 ||       0.000               0.000             0.000
    3       -1.777 ||       0.000               0.000            -0.001
    4       -1.720 ||       0.000               0.000             0.000
    5       28.144 ||       0.000               0.000            -0.109
    6       55.741 ||       0.026              -0.071             0.000
    7       81.908 ||       0.000               0.000            -0.449
    8      229.668 ||       0.000               0.000             0.715
    9      904.323 ||      -0.155              -0.565             0.000
   10     1118.893 ||       0.000               0.000            -0.258
   11     1157.596 ||      -0.977              -0.099             0.000
   12     1233.433 ||      -0.149              -0.141             0.000
   13     1402.874 ||       0.100               0.298             0.000
   14     1422.733 ||       0.000               0.000             0.300
   15     1474.116 ||       0.414              -0.338             0.000
   16     1587.584 ||       1.046               0.091             0.000
   17     2899.388 ||       1.477               0.484             0.000
   18     2946.096 ||       0.000               0.000            -1.322
   19     3056.364 ||       0.053              -0.718             0.000
   20     3543.026 ||       0.619               0.017             0.000
   21     3660.045 ||       0.082               0.981             0.000
 ----------------------------------------------------------------------------



  
  
 ----------------------------------------------------------------------------
 Normal Eigenvalue ||                 Infra Red Intensities
  Mode   [cm**-1]  || [atomic units] [(debye/angs)**2] [(KM/mol)] [arbitrary]
 ------ ---------- || -------------- ----------------- ---------- -----------
    1     -588.147 ||    0.321850           7.425       313.755      90.763
    2       -3.481 ||    0.000000           0.000         0.000       0.000
    3       -1.777 ||    0.000000           0.000         0.000       0.000
    4       -1.720 ||    0.000000           0.000         0.000       0.000
    5       28.144 ||    0.000516           0.012         0.503       0.146
    6       55.741 ||    0.000246           0.006         0.240       0.069
    7       81.908 ||    0.008734           0.202         8.514       2.463
    8      229.668 ||    0.022146           0.511        21.589       6.245
    9      904.323 ||    0.014857           0.343        14.483       4.190
   10     1118.893 ||    0.002876           0.066         2.804       0.811
   11     1157.596 ||    0.041776           0.964        40.725      11.781
   12     1233.433 ||    0.001822           0.042         1.776       0.514
   13     1402.874 ||    0.004286           0.099         4.178       1.209
   14     1422.733 ||    0.003913           0.090         3.815       1.104
   15     1474.116 ||    0.012392           0.286        12.080       3.495
   16     1587.584 ||    0.047755           1.102        46.554      13.467
   17     2899.388 ||    0.104669           2.415       102.036      29.517
   18     2946.096 ||    0.075713           1.747        73.809      21.352
   19     3056.364 ||    0.022443           0.518        21.878       6.329
   20     3543.026 ||    0.016633           0.384        16.215       4.691
   21     3660.045 ||    0.042040           0.970        40.982      11.855
 ----------------------------------------------------------------------------





        Vibrational analysis via the FX method 
  --- with translations and rotations projected out ---
  --- via the Eckart algorithm                      ---
 Projected Nuclear Hessian trans-rot subspace norm:2.1125D-33
                         (should be close to zero!) 


From the projected analysis 
The Zero-Point Energy (Kcal/mol) =          38.05399141

 center of mass
 --------------
 x =   0.05121324 y =  -0.00234606 z =   0.00000000

 moments of inertia (a.u.)
 ------------------
          16.848926642794          -0.688002033768           0.000000000000
          -0.688002033768          78.095654574309           0.000000000000
           0.000000000000           0.000000000000          83.335865208409

 Rotational Constants
 --------------------
 A=   3.574578 cm-1  (  5.142905 K)
 B=   0.770776 cm-1  (  1.108949 K)
 C=   0.722380 cm-1  (  1.039321 K)


 Temperature                      =   298.15K
 frequency scaling parameter      =   1.0000

 Zero-Point correction to Energy  =   38.024 kcal/mol  (  0.060596 au)
 Thermal correction to Energy     =   40.228 kcal/mol  (  0.064107 au)
 Thermal correction to Enthalpy   =   40.820 kcal/mol  (  0.065051 au)

 Total Entropy                    =   57.923 cal/mol-K
   - Translational                =   36.215 cal/mol-K (mol. weight =  31.0422)
   - Rotational                   =   19.325 cal/mol-K (symmetry #  =        1)
   - Vibrational                  =    2.384 cal/mol-K

 Cv (constant volume heat capacity) =    9.305 cal/mol-K
   - Translational                  =    2.979 cal/mol-K
   - Rotational                     =    2.979 cal/mol-K
   - Vibrational                    =    3.346 cal/mol-K



          -------------------------------------------------
          NORMAL MODE EIGENVECTORS IN CARTESIAN COORDINATES
          -------------------------------------------------
             (Projected Frequencies expressed in cm-1)

                    1           2           3           4           5           6
 
 P.Frequency     -599.75        0.00        0.00        0.00        0.00        0.00
 
           1     0.00000    -0.00012    -0.00052    -0.00086    -0.17942     0.00347
           2     0.00000     0.00068    -0.00267    -0.00091    -0.00078     0.10122
           3     0.11971    -0.00605     0.04650    -0.22857     0.00097     0.00010
           4     0.00000    -0.00016    -0.00056    -0.00087    -0.17948     0.00204
           5     0.00000     0.00429     0.00042     0.00021     0.00446     0.22670
           6    -0.03138     0.03715     0.23498     0.00788    -0.00081    -0.00030
           7     0.00000    -0.00230    -0.00239    -0.00153    -0.18259    -0.07231
           8     0.00000    -0.00069    -0.00384    -0.00133    -0.00277     0.05368
           9    -0.49862    -0.41645     0.03984    -0.29485     0.00176     0.00725
          10     0.00000     0.00247     0.00168    -0.00006    -0.17567     0.09326
          11     0.00000     0.00524     0.00123     0.00050     0.00584     0.25965
          12     0.04688     0.52140     0.20678     0.04201    -0.00142    -0.00880
          13     0.00000     0.00209     0.00136    -0.00018    -0.17622     0.08013
          14     0.00000    -0.00064    -0.00380    -0.00131    -0.00270     0.05537
          15    -0.72034     0.37125    -0.08694    -0.33820     0.00150    -0.00673
          16     0.01250     0.03039     0.11610     0.14711    -0.18241    -0.04149
          17    -0.04720    -0.40187     0.06826     0.02462     0.00618     0.27213
          18    -0.05877    -0.17044     0.32864     0.09293    -0.00129     0.00349
          19    -0.01250    -0.03320    -0.11934    -0.14961    -0.18017    -0.04082
          20     0.04720     0.41265    -0.06555    -0.02353     0.00594     0.25768
          21    -0.05877    -0.17044     0.32864     0.09293    -0.00129     0.00349

                    7           8           9          10          11          12
 
 P.Frequency        0.00      209.52      903.23     1119.48     1157.10     1229.48
 
           1    -0.00322     0.00000     0.00234     0.00000     0.16204     0.04453
           2     0.20687     0.00000     0.04132     0.00000    -0.02720     0.09309
           3    -0.00043    -0.01786     0.00000     0.04662     0.00000     0.00000
           4    -0.00017     0.00000    -0.00130     0.00000    -0.17771    -0.05273
           5    -0.06080     0.00000     0.03872     0.00000     0.03433    -0.12700
           6     0.00309    -0.01021     0.00000    -0.12365     0.00000     0.00000
           7     0.15843     0.00000    -0.46389     0.00000     0.30264    -0.26273
           8     0.30827     0.00000    -0.25136     0.00000     0.05173    -0.10595
           9    -0.00296     0.69381     0.00000     0.00308     0.00000     0.00000
          10    -0.19475     0.00000    -0.45254     0.00000    -0.30085     0.34608
          11    -0.13109     0.00000    -0.12883     0.00000    -0.00702     0.02296
          12     0.00545     0.36526     0.00000     0.26293     0.00000     0.00000
          13    -0.16674     0.00000     0.45526     0.00000     0.09169     0.41877
          14     0.30467     0.00000    -0.23004     0.00000     0.02712    -0.12267
          15    -0.00052    -0.43446     0.00000     0.15636     0.00000     0.00000
          16     0.09419     0.07713     0.22207     0.53615    -0.11448    -0.24650
          17    -0.14355    -0.26328    -0.21248     0.12374    -0.05131     0.21220
          18     0.00349    -0.12745    -0.02906     0.20106    -0.02858     0.09108
          19     0.08974    -0.07713     0.22207    -0.53615    -0.11448    -0.24650
          20    -0.14107     0.26328    -0.21248    -0.12375    -0.05131     0.21220
          21     0.00349    -0.12745     0.02906     0.20106     0.02858    -0.09108

                   13          14          15          16          17          18
 
 P.Frequency     1402.88     1422.78     1474.12     1587.59     2899.42     2946.31
 
           1     0.00812     0.00000     0.00250    -0.08978     0.00118     0.00000
           2    -0.00665     0.00000     0.02057    -0.00378    -0.00092     0.00000
           3     0.00000    -0.01192     0.00000     0.00000     0.00000    -0.00138
           4     0.11305     0.00000     0.03429     0.02221     0.04504     0.00000
           5    -0.01293     0.00000     0.03786     0.00340     0.02767     0.00000
           6     0.00000    -0.04733     0.00000     0.00000     0.00000     0.08970
           7    -0.04154     0.00000    -0.04792     0.54200     0.00956     0.00000
           8    -0.03494     0.00000    -0.01118     0.38018    -0.00731     0.00000
           9     0.00000    -0.01369     0.00000     0.00000     0.00000    -0.00429
          10    -0.57920     0.00000     0.24332    -0.06472    -0.08833     0.00000
          11    -0.24941     0.00000     0.09747    -0.02878     0.25672     0.00000
          12     0.00000     0.68598     0.00000     0.00000     0.00000     0.02077
          13    -0.06855     0.00000     0.05411     0.54192     0.00512     0.00000
          14     0.03825     0.00000    -0.01055    -0.36840     0.00973     0.00000
          15     0.00000    -0.01500     0.00000     0.00000     0.00000     0.00986
          16    -0.38483    -0.32366    -0.34627    -0.01809    -0.23952     0.24680
          17     0.24627     0.37451    -0.40618     0.01457    -0.28793     0.31310
          18    -0.07834     0.03590    -0.39451    -0.01074     0.54973    -0.53758
          19    -0.38483     0.32366    -0.34627    -0.01809    -0.23952    -0.24680
          20     0.24627    -0.37451    -0.40618     0.01457    -0.28793    -0.31310
          21     0.07834     0.03590     0.39451     0.01074    -0.54973    -0.53758

                   19          20          21
 
 P.Frequency     3056.46     3543.02     3659.79
 
           1    -0.00132    -0.05289    -0.00425
           2     0.00161     0.00652    -0.08201
           3     0.00000     0.00000     0.00000
           4     0.01641     0.00195     0.00064
           5    -0.08378     0.00022    -0.00119
           6     0.00000     0.00000     0.00000
           7     0.00284     0.38797    -0.32302
           8    -0.00865    -0.63999     0.51148
           9     0.00000     0.00000     0.00000
          10    -0.30494     0.00194    -0.00376
          11     0.86704    -0.00457     0.01305
          12     0.00000     0.00000     0.00000
          13    -0.00405     0.30913     0.37285
          14    -0.01068     0.54479     0.62716
          15     0.00000     0.00000     0.00000
          16     0.06460     0.00631     0.00270
          17     0.06371     0.00331     0.00096
          18    -0.14826    -0.00833    -0.00359
          19     0.06460     0.00631     0.00270
          20     0.06371     0.00331     0.00096
          21     0.14826     0.00833     0.00359



 ----------------------------------------------------------------------------
 Normal Eigenvalue ||    Projected Derivative Dipole Moments (debye/angs)
  Mode   [cm**-1]  ||      [d/dqX]             [d/dqY]           [d/dqZ]
 ------ ---------- || ------------------ ------------------ -----------------
    1     -599.755 ||       0.000               0.000             2.734
    2        0.000 ||       0.000              -0.001             0.044
    3        0.000 ||       0.000              -0.001            -0.060
    4        0.000 ||       0.000               0.000            -0.067
    5        0.000 ||       0.000              -0.001             0.000
    6        0.000 ||       0.011              -0.034            -0.001
    7        0.000 ||      -0.024               0.072            -0.001
    8      209.522 ||       0.000               0.000             0.814
    9      903.233 ||      -0.152              -0.566             0.000
   10     1119.476 ||       0.000               0.000             0.268
   11     1157.104 ||      -0.975              -0.099             0.000
   12     1229.482 ||      -0.164              -0.137             0.000
   13     1402.881 ||       0.100               0.298             0.000
   14     1422.779 ||       0.000               0.000             0.301
   15     1474.121 ||       0.414              -0.338             0.000
   16     1587.589 ||       1.046               0.091             0.000
   17     2899.419 ||       1.477               0.484             0.000
   18     2946.312 ||       0.000               0.000            -1.321
   19     3056.457 ||       0.052              -0.718             0.000
   20     3543.019 ||       0.619               0.017             0.000
   21     3659.789 ||       0.082               0.981             0.000
 ----------------------------------------------------------------------------



  
  
 ----------------------------------------------------------------------------
 Normal Eigenvalue ||           Projected Infra Red Intensities
  Mode   [cm**-1]  || [atomic units] [(debye/angs)**2] [(KM/mol)] [arbitrary]
 ------ ---------- || -------------- ----------------- ---------- -----------
    1     -599.755 ||    0.323892           7.472       315.746      91.339
    2        0.000 ||    0.000085           0.002         0.083       0.024
    3        0.000 ||    0.000155           0.004         0.151       0.044
    4        0.000 ||    0.000193           0.004         0.189       0.055
    5        0.000 ||    0.000000           0.000         0.000       0.000
    6        0.000 ||    0.000055           0.001         0.053       0.015
    7        0.000 ||    0.000249           0.006         0.243       0.070
    8      209.522 ||    0.028730           0.663        28.008       8.102
    9      903.233 ||    0.014871           0.343        14.497       4.194
   10     1119.476 ||    0.003102           0.072         3.024       0.875
   11     1157.104 ||    0.041618           0.960        40.571      11.737
   12     1229.482 ||    0.001978           0.046         1.928       0.558
   13     1402.881 ||    0.004283           0.099         4.176       1.208
   14     1422.779 ||    0.003928           0.091         3.829       1.108
   15     1474.121 ||    0.012361           0.285        12.050       3.486
   16     1587.589 ||    0.047759           1.102        46.557      13.468
   17     2899.419 ||    0.104654           2.414       102.022      29.513
   18     2946.312 ||    0.075662           1.746        73.759      21.337
   19     3056.457 ||    0.022440           0.518        21.876       6.328
   20     3543.019 ||    0.016630           0.384        16.212       4.690
   21     3659.789 ||    0.042019           0.969        40.962      11.849
 ----------------------------------------------------------------------------






 ===============================================================================
      Negative Nuclear Hessian Mode    1  Eigenvalue =   -599.75 cm**(-1)
 -------------------------------------------------------------------------------
   Raw step length:  0.893 a.u.      ;  The Raw step for this mode is:
    1 N                    7.0000     0.00000000     0.00000000     0.11970991
    2 C                    6.0000     0.00000000     0.00000000    -0.03138186
    3 H                    1.0000     0.00000001     0.00000000    -0.49862479
    4 H                    1.0000     0.00000001     0.00000000     0.04688304
    5 H                    1.0000     0.00000000     0.00000000    -0.72034432
    6 H                    1.0000     0.01249630    -0.04720018    -0.05877317
    7 H                    1.0000    -0.01249631     0.04720020    -0.05877321


  Geometry after  100.0% step for mode  1; Step length =  0.893 a.u.      
   Maximum component (any atom: x,y, or z) displacement:  0.720
    1 N                    7.0000     1.36885441     0.00853811     0.11970991
    2 C                    6.0000    -1.33065115    -0.02219908    -0.03138186
    3 H                    1.0000     2.39148749    -1.62166221    -0.49862479
    4 H                    1.0000    -2.03950186     1.94017717     0.04688304
    5 H                    1.0000     2.35521045     1.65765405    -0.72034432
    6 H                    1.0000    -2.14013873    -0.99857082     1.63817873
    7 H                    1.0000    -2.16513133    -0.90417045    -1.75572512


  Geometry after -100.0% step for mode  1; Step length =  0.893 a.u.      
   Maximum component (any atom: x,y, or z) displacement:  0.720
    1 N                    7.0000     1.36885441     0.00853811    -0.11970991
    2 C                    6.0000    -1.33065115    -0.02219907     0.03138186
    3 H                    1.0000     2.39148748    -1.62166221     0.49862479
    4 H                    1.0000    -2.03950188     1.94017716    -0.04688304
    5 H                    1.0000     2.35521045     1.65765404     0.72034432
    6 H                    1.0000    -2.16513133    -0.90417046     1.75572508
    7 H                    1.0000    -2.14013872    -0.99857084    -1.63817869


  Geometry after   50.0% step for mode  1; Step length =  0.446 a.u.      
   Maximum component (any atom: x,y, or z) displacement:  0.360
    1 N                    7.0000     1.36885441     0.00853811     0.05985495
    2 C                    6.0000    -1.33065115    -0.02219908    -0.01569093
    3 H                    1.0000     2.39148749    -1.62166221    -0.24931239
    4 H                    1.0000    -2.03950187     1.94017716     0.02344152
    5 H                    1.0000     2.35521045     1.65765404    -0.36017216
    6 H                    1.0000    -2.14638688    -0.97497073     1.66756532
    7 H                    1.0000    -2.15888318    -0.92777054    -1.72633851


  Geometry after  -50.0% step for mode  1; Step length =  0.446 a.u.      
   Maximum component (any atom: x,y, or z) displacement:  0.360
    1 N                    7.0000     1.36885441     0.00853811    -0.05985495
    2 C                    6.0000    -1.33065115    -0.02219907     0.01569093
    3 H                    1.0000     2.39148748    -1.62166221     0.24931239
    4 H                    1.0000    -2.03950187     1.94017716    -0.02344152
    5 H                    1.0000     2.35521045     1.65765404     0.36017216
    6 H                    1.0000    -2.15888318    -0.92777055     1.72633849
    7 H                    1.0000    -2.14638688    -0.97497074    -1.66756530


  Geometry after   27.8% step for mode  1; Step length =  0.248 a.u.      
   Maximum component (any atom: x,y, or z) displacement:  0.200
    1 N                    7.0000     1.36885441     0.00853811     0.03323686
    2 C                    6.0000    -1.33065115    -0.02219908    -0.00871302
    3 H                    1.0000     2.39148749    -1.62166221    -0.13844068
    4 H                    1.0000    -2.03950187     1.94017716     0.01301684
    5 H                    1.0000     2.35521045     1.65765404    -0.20000000
    6 H                    1.0000    -2.14916549    -0.96447553     1.68063383
    7 H                    1.0000    -2.15610457    -0.93826574    -1.71327000


  Geometry after  -27.8% step for mode  1; Step length =  0.248 a.u.      
   Maximum component (any atom: x,y, or z) displacement:  0.200
    1 N                    7.0000     1.36885441     0.00853811    -0.03323686
    2 C                    6.0000    -1.33065115    -0.02219908     0.00871302
    3 H                    1.0000     2.39148748    -1.62166221     0.13844068
    4 H                    1.0000    -2.03950187     1.94017716    -0.01301684
    5 H                    1.0000     2.35521045     1.65765404     0.20000000
    6 H                    1.0000    -2.15610456    -0.93826575     1.71326998
    7 H                    1.0000    -2.14916549    -0.96447554    -1.68063382


  Geometry after   13.9% step for mode  1; Step length =  0.124 a.u.      
   Maximum component (any atom: x,y, or z) displacement:  0.100
    1 N                    7.0000     1.36885441     0.00853811     0.01661843
    2 C                    6.0000    -1.33065115    -0.02219908    -0.00435651
    3 H                    1.0000     2.39148748    -1.62166221    -0.06922034
    4 H                    1.0000    -2.03950187     1.94017716     0.00650842
    5 H                    1.0000     2.35521045     1.65765404    -0.10000000
    6 H                    1.0000    -2.15090026    -0.95792309     1.68879287
    7 H                    1.0000    -2.15436980    -0.94481819    -1.70511095


  Geometry after  -13.9% step for mode  1; Step length =  0.124 a.u.      
   Maximum component (any atom: x,y, or z) displacement:  0.100
    1 N                    7.0000     1.36885441     0.00853811    -0.01661843
    2 C                    6.0000    -1.33065115    -0.02219908     0.00435651
    3 H                    1.0000     2.39148748    -1.62166221     0.06922034
    4 H                    1.0000    -2.03950187     1.94017716    -0.00650842
    5 H                    1.0000     2.35521045     1.65765404     0.10000000
    6 H                    1.0000    -2.15436980    -0.94481819     1.70511095
    7 H                    1.0000    -2.15090026    -0.95792309    -1.68879286


 vib:animation   F

 Task  times  cpu:       11.4s     wall:       13.5s


                                NWChem Input Module
                                -------------------




                           NWChem Geometry Optimization
                           ----------------------------




                          ch3nh2 optimization with tropt


 maximum gradient threshold         (gmax) =   0.000450
 rms gradient threshold             (grms) =   0.000300
 maximum cartesian step threshold   (xmax) =   0.001800
 rms cartesian step threshold       (xrms) =   0.001200
 maximum step size                 (maxdr) =   0.300000
 energy precision                  (eprec) =   5.0D-06
 maximum number of steps          (nptopt) =   50
 initial hessian option           (inhess) =    2
 hessian update option            (modupd) =    1
 saddle point option              (modsad) =    0
 initial eigen-mode to follow     (moddir) =    0
 source of zmatrix                (source) = autoz   


          -------------------
          Energy Minimization
          -------------------


 Names of Z-matrix variables 
    1              2              3              4              5         
    6              7              8              9             10         
   11             12             13             14             15         
   16             17             18             19             20         
   21         

 Variables with the same non-blank name are constrained to be equal


                                 NWChem DFT Module
                                 -----------------


                          ch3nh2 optimization with tropt



  The DFT is already converged 

         Total DFT energy =    -95.010492028486



                            NWChem DFT Gradient Module
                            --------------------------


                          ch3nh2 optimization with tropt



  charge          =   0.00
  wavefunction    = closed shell



                         DFT ENERGY GRADIENTS

    atom               coordinates                        gradient
                 x          y          z           x          y          z
   1 N       1.368854   0.008538   0.000000   -0.005069  -0.000781   0.000000
   2 C      -1.330651  -0.022199   0.000000   -0.000560   0.000604   0.000000
   3 H       2.391487  -1.621662   0.000000    0.002277  -0.002493   0.000000
   4 H      -2.039502   1.940177   0.000000    0.000149   0.000141   0.000000
   5 H       2.355210   1.657654   0.000000    0.002062   0.002765   0.000000
   6 H      -2.152635  -0.951371   1.696952    0.000571  -0.000118   0.000144
   7 H      -2.152635  -0.951371  -1.696952    0.000571  -0.000118  -0.000144

                 ----------------------------------------
                 |  Time  |  1-e(secs)   |  2-e(secs)   |
                 ----------------------------------------
                 |  CPU   |       0.00   |       0.22   |
                 ----------------------------------------
                 |  WALL  |       0.01   |       0.23   |
                 ----------------------------------------

  Using Cartesian Hessian from previous frequency calculation

          --------
          Step   0
          --------


                         Geometry "geometry" -> "geometry"
                         ---------------------------------

 Output coordinates in a.u. (scale by  1.000000000 to convert to a.u.)

  No.       Tag          Charge          X              Y              Z
 ---- ---------------- ---------- -------------- -------------- --------------
    1 N                    7.0000     1.36885441     0.00853811     0.00000000
    2 C                    6.0000    -1.33065115    -0.02219908     0.00000000
    3 H                    1.0000     2.39148748    -1.62166221     0.00000000
    4 H                    1.0000    -2.03950187     1.94017716     0.00000000
    5 H                    1.0000     2.35521045     1.65765404     0.00000000
    6 H                    1.0000    -2.15263503    -0.95137064     1.69695191
    7 H                    1.0000    -2.15263503    -0.95137064    -1.69695191

      Atomic Mass 
      ----------- 

      N                 14.003070
      C                 12.000000
      H                  1.007825


 Effective nuclear repulsion energy (a.u.)      42.0215099434

            Nuclear Dipole moment (a.u.) 
            ----------------------------
        X                 Y               Z
 ---------------- ---------------- ----------------
     0.0000000000     0.0000000000     0.0000000000


@ Step       Energy      Delta E   Gmax     Grms     Xrms     Xmax   Walltime
@ ---- ---------------- -------- -------- -------- -------- -------- --------
@    0     -95.01049203  0.0D+00  0.00343  0.00107  0.00000  0.00000     15.9
                                                       ok       ok  



                                Z-matrix (autoz)
                                -------- 

 Units are Angstrom for bonds and degrees for angles

      Type          Name      I     J     K     L     M      Value     Gradient
      ----------- --------  ----- ----- ----- ----- ----- ---------- ----------
    1 Stretch                  1     2                       1.42861   -0.00074
    2 Stretch                  1     3                       1.01835    0.00332
    3 Stretch                  1     5                       1.01686    0.00343
    4 Stretch                  2     4                       1.10412    0.00008
    5 Stretch                  2     6                       1.11236   -0.00006
    6 Stretch                  2     7                       1.11236   -0.00006
    7 Bend                     1     2     4               109.20841    0.00002
    8 Bend                     1     2     6               113.33112   -0.00036
    9 Bend                     1     2     7               113.33112   -0.00036
   10 Bend                     2     1     3               121.44791    0.00029
   11 Bend                     2     1     5               121.53650    0.00003
   12 Bend                     3     1     5               117.01559   -0.00032
   13 Bend                     4     2     6               106.43265    0.00021
   14 Bend                     4     2     7               106.43265    0.00021
   15 Bend                     6     2     7               107.66201    0.00033
   16 Torsion                  3     1     2     4         180.00000    0.00000
   17 Torsion                  3     1     2     6          61.54218   -0.00006
   18 Torsion                  3     1     2     7         -61.54218    0.00006
   19 Torsion                  4     2     1     5           0.00000    0.00000
   20 Torsion                  5     1     2     6        -118.45782   -0.00006
   21 Torsion                  5     1     2     7         118.45782    0.00006

 hard case encountered
lambda for step:  0.264E-02
step magnitude :  0.300    

                                 NWChem DFT Module
                                 -----------------


                          ch3nh2 optimization with tropt


  Caching 1-el integrals 

            General Information
            -------------------
          SCF calculation type: DFT
          Wavefunction type:  closed shell.
          No. of atoms     :     7
          No. of electrons :    18
           Alpha electrons :     9
            Beta electrons :     9
          Charge           :     0
          Spin multiplicity:     1
          Use of symmetry is: off; symmetry adaption is: off
          Maximum number of iterations:  30
          AO basis - number of functions:    40
                     number of shells:    22
          Convergence on energy requested: 1.00D-07
          Convergence on density requested: 1.00D-05
          Convergence on gradient requested: 1.00D-04

              XC Information
              --------------
                        Slater Exchange Functional  1.000 local    
                      VWN V Correlation Functional  1.000 local    

             Grid Information
             ----------------
          Grid used for XC integration:  fine      
          Radial quadrature: Mura-Knowles        
          Angular quadrature: Lebedev. 
          Tag              B.-S. Rad. Rad. Pts. Rad. Cut. Ang. Pts.
          ---              ---------- --------- --------- ---------
          N                   0.65       70           7.0       590
          C                   0.70       70           8.0       590
          H                   0.35       60           9.0       590
          Grid pruning is: on 
          Number of quadrature shells:   440
          Spatial weights used:  Erf1

          Convergence Information
          -----------------------
          Convergence aids based upon iterative change in 
          total energy or number of iterations. 
          Levelshifting, if invoked, occurs when the 
          HOMO/LUMO gap drops below (HL_TOL): 1.00D-02
          DIIS, if invoked, will attempt to extrapolate 
          using up to (NFOCK): 10 stored Fock matrices.

                    Damping( 0%)  Levelshifting(0.5)       DIIS
                  --------------- ------------------- ---------------
          dE  on:    start            ASAP                start   
          dE off:    2 iters         30 iters            30 iters 


      Screening Tolerance Information
      -------------------------------
          Density screening/tol_rho: 1.00D-11
          AO Gaussian exp screening on grid/accAOfunc:  16
          CD Gaussian exp screening on grid/accCDfunc:  20
          XC Gaussian exp screening on grid/accXCfunc:  20
          Schwarz screening/accCoul: 1.00D-08


 Loading old vectors from job with title :

ch3nh2 optimization with tropt

   Time after variat. SCF:     12.4
   Time prior to 1st pass:     12.4

 Grid_pts file          = ./ch3nh2.gridpts.0
 Record size in doubles =  12289        No. of grid_pts per rec  =   3070
 Max. records in memory =     13        Max. recs in file   =    903262


           Memory utilization after 1st SCF pass: 
           Heap Space remaining (MW):      104.70           104695150
          Stack Space remaining (MW):      104.86           104857216

   convergence    iter        energy       DeltaE   RMS-Dens  Diis-err    time
 ---------------- ----- ----------------- --------- --------- ---------  ------
 d= 0,ls=0.0,diis     1    -95.0100511007 -1.37D+02  1.95D-03  3.21D-03    12.6
 d= 0,ls=0.0,diis     2    -95.0106490305 -5.98D-04  3.34D-04  7.24D-05    12.7
 d= 0,ls=0.0,diis     3    -95.0106394627  9.57D-06  1.99D-04  1.70D-04    12.8
 d= 0,ls=0.0,diis     4    -95.0106573182 -1.79D-05  3.37D-05  2.03D-06    13.0
 d= 0,ls=0.0,diis     5    -95.0106575812 -2.63D-07  4.13D-06  1.85D-08    13.1
 d= 0,ls=0.0,diis     6    -95.0106575831 -1.92D-09  1.31D-06  5.34D-09    13.3


         Total DFT energy =      -95.010657583111
      One electron energy =     -211.650481400066
           Coulomb energy =       87.868048818250
    Exchange-Corr. energy =      -13.275206237131
 Nuclear repulsion energy =       42.046981235836

 Numeric. integr. density =       18.000000245761

     Total iterative time =      0.9s



                       DFT Final Molecular Orbital Analysis
                       ------------------------------------

 Vector    1  Occ=2.000000D+00  E=-1.383175D+01
              MO Center=  7.3D-01,  5.4D-03, -3.0D-02, r^2= 2.0D-02
   Bfn.  Coefficient  Atom+Function         Bfn.  Coefficient  Atom+Function  
  ----- ------------  ---------------      ----- ------------  ---------------
     1     -0.997772  1 N  s          

 Vector    2  Occ=2.000000D+00  E=-9.796889D+00
              MO Center= -7.0D-01, -1.3D-02, -3.8D-03, r^2= 2.8D-02
   Bfn.  Coefficient  Atom+Function         Bfn.  Coefficient  Atom+Function  
  ----- ------------  ---------------      ----- ------------  ---------------
    16      0.997946  2 C  s          

 Vector    3  Occ=2.000000D+00  E=-7.806642D-01
              MO Center=  4.6D-01,  8.3D-03, -9.0D-03, r^2= 9.4D-01
   Bfn.  Coefficient  Atom+Function         Bfn.  Coefficient  Atom+Function  
  ----- ------------  ---------------      ----- ------------  ---------------
     2      0.423916  1 N  s                  3      0.292948  1 N  s          
    17      0.216782  2 C  s                  1     -0.201366  1 N  s          

 Vector    4  Occ=2.000000D+00  E=-5.864069D-01
              MO Center= -2.8D-01,  1.3D-02, -5.5D-03, r^2= 1.8D+00
   Bfn.  Coefficient  Atom+Function         Bfn.  Coefficient  Atom+Function  
  ----- ------------  ---------------      ----- ------------  ---------------
    17     -0.371848  2 C  s                 18     -0.258029  2 C  s          
     4      0.235302  1 N  px                 2      0.188086  1 N  s          
    16      0.177145  2 C  s                  3      0.173719  1 N  s          

 Vector    5  Occ=2.000000D+00  E=-4.507203D-01
              MO Center=  6.0D-01,  4.1D-02, -1.0D-02, r^2= 1.4D+00
   Bfn.  Coefficient  Atom+Function         Bfn.  Coefficient  Atom+Function  
  ----- ------------  ---------------      ----- ------------  ---------------
     5     -0.495780  1 N  py                20     -0.236491  2 C  py         
    35     -0.216973  5 H  s                 31      0.210204  3 H  s          
     8     -0.175197  1 N  py         

 Vector    6  Occ=2.000000D+00  E=-3.966210D-01
              MO Center= -5.4D-02, -1.4D-02,  7.3D-03, r^2= 1.7D+00
   Bfn.  Coefficient  Atom+Function         Bfn.  Coefficient  Atom+Function  
  ----- ------------  ---------------      ----- ------------  ---------------
     4     -0.472704  1 N  px                19      0.454772  2 C  px         
     7     -0.159117  1 N  px         

[...]
          19     0.27494     0.00331     0.00531
          20     0.39494     0.00935     0.00913
          21     0.46684     0.01028     0.00947



 ----------------------------------------------------------------------------
 Normal Eigenvalue ||         Derivative Dipole Moments (debye/angs)
  Mode   [cm**-1]  ||      [d/dqX]             [d/dqY]           [d/dqZ]
 ------ ---------- || ------------------ ------------------ -----------------
    1       -5.703 ||      -0.225              -0.329            -0.127
    2       -2.816 ||       0.094              -0.017            -0.004
    3       -2.678 ||      -0.046               0.017             0.005
    4       -1.970 ||       0.132               0.037             0.017
    5        1.158 ||       0.054               0.048             0.019
    6        6.283 ||      -0.146               0.532             0.194
    7      318.414 ||       0.008               1.024             0.380
    8      810.011 ||       1.302               0.596            -1.636
    9      943.693 ||       0.001               0.099             0.037
   10     1087.737 ||       0.478               0.070            -0.199
   11     1131.367 ||      -0.328               0.071            -0.184
   12     1293.322 ||       0.001               0.103             0.038
   13     1396.771 ||      -0.044               0.091            -0.245
   14     1439.950 ||       0.394              -0.094             0.245
   15     1459.714 ||       0.003               0.366             0.136
   16     1619.700 ||       0.643              -0.224             0.591
   17     2893.292 ||       1.122               0.359            -0.992
   18     3009.266 ||       0.428              -0.263             0.700
   19     3057.923 ||      -0.006              -0.712            -0.265
   20     3425.704 ||       0.009              -0.020             0.053
   21     3522.737 ||       0.002               0.271             0.100
 ----------------------------------------------------------------------------



  
  
 ----------------------------------------------------------------------------
 Normal Eigenvalue ||                 Infra Red Intensities
  Mode   [cm**-1]  || [atomic units] [(debye/angs)**2] [(KM/mol)] [arbitrary]
 ------ ---------- || -------------- ----------------- ---------- -----------
    1       -5.703 ||    0.007589           0.175         7.398       3.077
    2       -2.816 ||    0.000392           0.009         0.382       0.159
    3       -2.678 ||    0.000104           0.002         0.102       0.042
    4       -1.970 ||    0.000826           0.019         0.805       0.335
    5        1.158 ||    0.000242           0.006         0.236       0.098
    6        6.283 ||    0.014810           0.342        14.438       6.004
    7      318.414 ||    0.051654           1.192        50.355      20.941
    8      810.011 ||    0.204830           4.726       199.678      83.041
    9      943.693 ||    0.000481           0.011         0.469       0.195
   10     1087.737 ||    0.011843           0.273        11.545       4.801
   11     1131.367 ||    0.006339           0.146         6.179       2.570
   12     1293.322 ||    0.000527           0.012         0.514       0.214
   13     1396.771 ||    0.003055           0.070         2.978       1.238
   14     1439.950 ||    0.009705           0.224         9.461       3.934
   15     1459.714 ||    0.006614           0.153         6.448       2.682
   16     1619.700 ||    0.035201           0.812        34.316      14.271
   17     2893.292 ||    0.102810           2.372       100.224      41.680
   18     3009.266 ||    0.032177           0.742        31.367      13.045
   19     3057.923 ||    0.025033           0.578        24.404      10.149
   20     3425.704 ||    0.000141           0.003         0.137       0.057
   21     3522.737 ||    0.003618           0.083         3.527       1.467
 ----------------------------------------------------------------------------





        Vibrational analysis via the FX method 
  --- with translations and rotations projected out ---
  --- via the Eckart algorithm                      ---
 Projected Nuclear Hessian trans-rot subspace norm:1.0310D-32
                         (should be close to zero!) 


From the projected analysis 
The Zero-Point Energy (Kcal/mol) =          39.19576222

 center of mass
 --------------
 x =   0.08664432 y =   0.08992021 z =  -0.22620816

 moments of inertia (a.u.)
 ------------------
          18.537625308110          -2.045223359759           6.820441716098
          -2.045223359759          79.174967469595          -0.856832263793
           6.820441716098          -0.856832263793          81.003886083705

 Rotational Constants
 --------------------
 A=   3.393428 cm-1  (  4.882276 K)
 B=   0.763566 cm-1  (  1.098577 K)
 C=   0.732938 cm-1  (  1.054511 K)


 Temperature                      =   298.15K
 frequency scaling parameter      =   1.0000

 Zero-Point correction to Energy  =   39.165 kcal/mol  (  0.062414 au)
 Thermal correction to Energy     =   41.319 kcal/mol  (  0.065846 au)
 Thermal correction to Enthalpy   =   41.911 kcal/mol  (  0.066790 au)

 Total Entropy                    =   57.423 cal/mol-K
   - Translational                =   36.215 cal/mol-K (mol. weight =  31.0422)
   - Rotational                   =   19.371 cal/mol-K (symmetry #  =        1)
   - Vibrational                  =    1.837 cal/mol-K

 Cv (constant volume heat capacity) =    9.705 cal/mol-K
   - Translational                  =    2.979 cal/mol-K
   - Rotational                     =    2.979 cal/mol-K
   - Vibrational                    =    3.746 cal/mol-K



          -------------------------------------------------
          NORMAL MODE EIGENVECTORS IN CARTESIAN COORDINATES
          -------------------------------------------------
             (Projected Frequencies expressed in cm-1)

                    1           2           3           4           5           6
 
 P.Frequency        0.00        0.00        0.00        0.00        0.00        0.00
 
           1     0.00111     0.01936    -0.17952    -0.00697    -0.01352     0.02011
           2    -0.16806     0.02770    -0.00108     0.15723     0.01137    -0.03983
           3    -0.01684     0.04521     0.00287     0.00786    -0.21957     0.06427
           4    -0.01241    -0.01739    -0.17887    -0.00838     0.00538    -0.00916
           5     0.11997    -0.01271    -0.01301     0.19826     0.00665     0.04037
           6    -0.00661    -0.19199     0.00299     0.01249    -0.10575    -0.08847
           7    -0.19113    -0.00638    -0.17021    -0.03764     0.01146     0.00996
           8    -0.26416    -0.00187     0.00453     0.13913     0.02920     0.00279
           9    -0.06626    -0.10027     0.01322    -0.02308    -0.16881     0.45826
          10     0.19543     0.01389    -0.18893     0.02470    -0.02332     0.00463
          11     0.22107     0.02422    -0.01913     0.21790    -0.01430    -0.01385
          12     0.04669    -0.03159    -0.00821     0.04589    -0.16212    -0.51247
          13     0.13792    -0.07991    -0.18616     0.01738     0.02641    -0.06877
          14    -0.29477    -0.13353     0.01094     0.12083     0.08101     0.21339
          15     0.00926     0.25639    -0.00374     0.02510    -0.30886    -0.10804
          16    -0.07995    -0.17498    -0.17562    -0.01596     0.08707    -0.13413
          17     0.13701    -0.24003    -0.00520     0.17763     0.09126     0.40763
          18    -0.02162    -0.32531     0.00689     0.00251    -0.04887     0.00738
          19    -0.15769     0.09277    -0.17181    -0.03434    -0.03935     0.08909
          20     0.25392     0.16547    -0.02601     0.23754    -0.06989    -0.23978
          21    -0.03436    -0.41437     0.00999    -0.00581    -0.01181     0.09525

                    7           8           9          10          11          12
 
 P.Frequency      318.42      810.02      943.69     1087.74     1131.38     1293.31
 
           1    -0.00030    -0.05804    -0.00002     0.13510     0.09781     0.00068
           2    -0.03738    -0.03072    -0.00391     0.01983    -0.02119     0.08153
           3    -0.01387     0.08409    -0.00146    -0.05642     0.05500     0.03023
           4    -0.00004     0.02076    -0.00049    -0.14198    -0.11601    -0.00094
           5    -0.00487    -0.00255    -0.06015    -0.03104     0.03163    -0.11323
           6    -0.00179     0.00641    -0.02231     0.08683    -0.08276    -0.04198
           7     0.08197     0.28961     0.40212     0.14169     0.15715    -0.45338
           8     0.06713     0.08855     0.16938     0.01809    -0.00569    -0.12699
           9     0.54141    -0.52067    -0.12953     0.02844    -0.15230     0.08558
          10     0.10793     0.10231     0.44620     0.01972    -0.32408     0.27623
          11     0.08950     0.02012     0.15112     0.00802    -0.01507     0.03053
          12     0.34256    -0.11550     0.01140    -0.14860     0.24716     0.08842
          13    -0.07824     0.29089    -0.40043     0.14120     0.15790     0.45202
          14     0.40493     0.26830     0.04950    -0.03428     0.10144    -0.04669
          15    -0.36632    -0.45399     0.21083     0.00908    -0.11261    -0.15009
          16    -0.00223    -0.22612     0.00225    -0.50958     0.35640     0.00219
          17    -0.27683     0.02158     0.27236     0.01179    -0.01775     0.27398
          18    -0.10261    -0.05329     0.10097    -0.02083     0.03999     0.10155
          19    -0.10486     0.10248    -0.44406     0.02041    -0.32495    -0.27537
          20     0.29265     0.05867     0.12822     0.09047    -0.14511     0.08456
          21    -0.20093    -0.10125     0.09223    -0.11800     0.19891    -0.04567

                   13          14          15          16          17          18
 
 P.Frequency     1396.77     1439.95     1459.71     1619.70     2893.29     3009.26
 
           1     0.00693    -0.00329    -0.00020    -0.07126     0.00175    -0.00145
           2    -0.00095     0.00484    -0.02428     0.00609     0.00009     0.00044
           3     0.00242    -0.01299    -0.00901    -0.01488    -0.00029    -0.00115
           4     0.11213     0.04007    -0.00023     0.00608     0.03256     0.03707
           5    -0.00328     0.01704    -0.03142     0.00667     0.01869    -0.02464
           6     0.00643    -0.04679    -0.01166    -0.01813    -0.05113     0.06551
           7    -0.03770    -0.01131     0.09494     0.49995     0.00240     0.00530
           8    -0.01926     0.00127     0.01836     0.28978     0.00274    -0.01453
           9    -0.00682     0.00777    -0.02105     0.34464     0.00544     0.00182
          10    -0.51188     0.06571    -0.31859    -0.05357    -0.09221    -0.25242
          11    -0.28503     0.10778    -0.09611    -0.01701     0.21386     0.58771
          12    -0.11086     0.54375     0.38961     0.00780    -0.04775    -0.07081
          13    -0.03736    -0.01134    -0.09478     0.49417     0.00233     0.00549
          14     0.01958    -0.00587     0.00149    -0.45136    -0.00566     0.00975
          15     0.00757     0.00511     0.02845     0.06984     0.00233     0.01081
          16    -0.33711    -0.53565     0.00468     0.03059    -0.22968     0.08017
          17     0.04139     0.06379     0.61137     0.00601    -0.30504     0.09986
          18    -0.10450    -0.16118     0.22655    -0.01685     0.82788    -0.27117
          19    -0.50733     0.06120     0.31922    -0.05340    -0.09493    -0.25988
          20     0.29556    -0.43715     0.17636     0.00856    -0.12972    -0.39543
          21     0.10439     0.34203    -0.35957     0.01728    -0.17507    -0.43478

                   19          20          21
 
 P.Frequency     3057.92     3425.71     3522.74
 
           1     0.00002    -0.04299    -0.00057
           2     0.00203     0.01250    -0.07284
           3     0.00075    -0.03284    -0.02700
           4    -0.00069     0.00100    -0.00002
           5    -0.08306     0.00130    -0.00212
           6    -0.03084    -0.00353    -0.00078
           7     0.00156     0.28337    -0.28564
           8    -0.01432    -0.62628     0.60610
           9     0.00509     0.04083    -0.07205
          10    -0.26660     0.00312    -0.00514
          11     0.60677    -0.01383     0.01317
          12    -0.09513     0.00168    -0.00121
          13    -0.00174     0.29196     0.29356
          14    -0.00753     0.44443     0.40842
          15    -0.01320     0.43795     0.44811
          16    -0.00020     0.00360     0.00000
          17    -0.01910    -0.00285     0.00041
          18    -0.00691     0.00762     0.00015
          19     0.27494     0.00331     0.00531
          20     0.39495     0.00934     0.00912
          21     0.46685     0.01027     0.00947



 ----------------------------------------------------------------------------
 Normal Eigenvalue ||    Projected Derivative Dipole Moments (debye/angs)
  Mode   [cm**-1]  ||      [d/dqX]             [d/dqY]           [d/dqZ]
 ------ ---------- || ------------------ ------------------ -----------------
    1        0.000 ||      -0.096              -0.062            -0.025
    2        0.000 ||       0.222               0.324             0.125
    3        0.000 ||       0.005               0.015             0.006
    4        0.000 ||      -0.011              -0.043            -0.016
    5        0.000 ||       0.115               0.127             0.050
    6        0.000 ||      -0.176               0.519             0.188
    7      318.424 ||       0.008               1.023             0.379
    8      810.020 ||       1.302               0.596            -1.636
    9      943.693 ||       0.001               0.099             0.037
   10     1087.737 ||       0.478               0.070            -0.199
   11     1131.378 ||      -0.328               0.071            -0.184
   12     1293.313 ||       0.001               0.103             0.038
   13     1396.771 ||      -0.044               0.091            -0.245
   14     1439.950 ||       0.394              -0.094             0.245
   15     1459.714 ||       0.003               0.366             0.136
   16     1619.701 ||       0.643              -0.224             0.591
   17     2893.290 ||       1.122               0.359            -0.992
   18     3009.265 ||       0.428              -0.263             0.700
   19     3057.922 ||      -0.006              -0.712            -0.265
   20     3425.707 ||       0.009              -0.020             0.053
   21     3522.741 ||       0.002               0.271             0.100
 ----------------------------------------------------------------------------



  
  
 ----------------------------------------------------------------------------
 Normal Eigenvalue ||           Projected Infra Red Intensities
  Mode   [cm**-1]  || [atomic units] [(debye/angs)**2] [(KM/mol)] [arbitrary]
 ------ ---------- || -------------- ----------------- ---------- -----------
    1        0.000 ||    0.000594           0.014         0.579       0.241
    2        0.000 ||    0.007370           0.170         7.185       2.988
    3        0.000 ||    0.000012           0.000         0.012       0.005
    4        0.000 ||    0.000096           0.002         0.094       0.039
    5        0.000 ||    0.001376           0.032         1.342       0.558
    6        0.000 ||    0.014556           0.336        14.190       5.901
    7      318.424 ||    0.051612           1.191        50.314      20.924
    8      810.020 ||    0.204829           4.726       199.677      83.040
    9      943.693 ||    0.000481           0.011         0.469       0.195
   10     1087.737 ||    0.011846           0.273        11.548       4.802
   11     1131.378 ||    0.006337           0.146         6.178       2.569
   12     1293.313 ||    0.000528           0.012         0.514       0.214
   13     1396.771 ||    0.003055           0.070         2.978       1.239
   14     1439.950 ||    0.009705           0.224         9.461       3.934
   15     1459.714 ||    0.006614           0.153         6.448       2.681
   16     1619.701 ||    0.035201           0.812        34.316      14.271
   17     2893.290 ||    0.102810           2.372       100.224      41.680
   18     3009.265 ||    0.032176           0.742        31.367      13.045
   19     3057.922 ||    0.025033           0.578        24.404      10.149
   20     3425.707 ||    0.000141           0.003         0.137       0.057
   21     3522.741 ||    0.003618           0.083         3.527       1.467
 ----------------------------------------------------------------------------



 vib:animation   F

 Task  times  cpu:        9.9s     wall:       11.2s


                                NWChem Input Module
                                -------------------


 Summary of allocated global arrays
-----------------------------------
  No active global arrays



                         GA Statistics for process    0
                         ------------------------------

       create   destroy   get      put      acc     scatter   gather  read&inc
calls: 5541     5541     2.93e+05 1.94e+04 1.60e+05 1096        0        0     
number of processes/call 1.30e+00 2.24e+00 1.51e+00 2.70e+00 0.00e+00
bytes total:             2.00e+08 2.07e+07 9.34e+07 1.50e+06 0.00e+00 0.00e+00
bytes remote:            1.17e+08 6.15e+06 7.03e+07 -1.05e+06 0.00e+00 0.00e+00
Max memory consumed for GA by this process: 492224 bytes

MA_summarize_allocated_blocks: starting scan ...
MA_summarize_allocated_blocks: scan completed: 0 heap blocks, 0 stack blocks
MA usage statistics:

	allocation statistics:
					      heap	     stack
					      ----	     -----
	current number of blocks	         0	         0
	maximum number of blocks	        24	        50
	current total bytes		         0	         0
	maximum total bytes		   1300968	  79987848
	maximum total K-bytes		      1301	     79988
	maximum total M-bytes		         2	        80


                                     CITATION
                                     --------
                Please cite the following reference when publishing
                           results obtained with NWChem:

                 M. Valiev, E.J. Bylaska, N. Govind, K. Kowalski,
              T.P. Straatsma, H.J.J. van Dam, D. Wang, J. Nieplocha,
                        E. Apra, T.L. Windus, W.A. de Jong
                 "NWChem: a comprehensive and scalable open-source
                  solution for large scale molecular simulations"
                      Comput. Phys. Commun. 181, 1477 (2010)
                           doi:10.1016/j.cpc.2010.04.018

                              AUTHORS & CONTRIBUTORS
                              ----------------------
      E. J. Bylaska, W. A. de Jong, N. Govind, K. Kowalski, T. P. Straatsma,
     M. Valiev, H. J. J. van Dam, D. Wang, E. Apra, T. L. Windus, J. Hammond,
     J. Autschbach, P. Nichols, S. Hirata, M. T. Hackler, Y. Zhao, P.-D. Fan,
      R. J. Harrison, M. Dupuis, D. M. A. Smith, K. Glaesemann, J. Nieplocha,
      V. Tipparaju, M. Krishnan, A. Vazquez-Mayagoitia, L. Jensen, M. Swart,
      Q. Wu, T. Van Voorhis, A. A. Auer, M. Nooijen, L. D. Crosby, E. Brown,
             G. Cisneros, G. I. Fann, H. Fruchtl, J. Garza, K. Hirao,
        R. Kendall, J. A. Nichols, K. Tsemekhman, K. Wolinski, J. Anchell,
       D. Bernholdt, P. Borowski, T. Clark, D. Clerc, H. Dachsel, M. Deegan,
        K. Dyall, D. Elwood, E. Glendening, M. Gutowski, A. Hess, J. Jaffe,
        B. Johnson, J. Ju, R. Kobayashi, R. Kutteh, Z. Lin, R. Littlefield,
    X. Long, B. Meng, T. Nakajima, S. Niu, L. Pollack, M. Rosing, G. Sandrone,
       M. Stave, H. Taylor, G. Thomas, J. H. van Lenthe, A. Wong, Z. Zhang.

 Total times  cpu:       43.8s     wall:       54.4s
