 argument  1 = /home/edo/park/nwchem.last/QA/tests/h2o2-response-uhf-damping/h2o2-response-uhf-damping.nw
  NWChem w/ OpenMP: maximum threads =    4



============================== echo of input deck ==============================
echo

title "h2o2"

memory 128 mb
#memory global 73 mb stack 20 mb heap 5 mb

start h2o2

geometry units bohr nocenter
symmetry c1
#
 O     0.00000000     0.00000000     1.41178038
 O     0.12488360     0.00000000    -1.40614001
 H    -1.06625676    -1.50151179     1.65190485
 H    -0.91573670     1.50151179    -1.74142163
end

basis spherical
 * library 6-31G**
end

scf
 direct
end

charge 0

dft
 odft
 mult 1
 direct
 xc xcamb88 1.00 lyp 0.81 vwn_5 0.19 hfexch 1.00
 cam 0.33 cam_alpha 0.19 cam_beta 0.46
 tolerances tight
 grid fine
 convergence energy 1e-10
#XC slater vwn_5
# XC pbe0
# XC hfexch
# XC becke88 lyp
end

property
 aoresponse  1  0.077318
 damping 0.1
 convergence 1e-7
 bdtensor
 # orbeta
 gprime
 giao
end

set cphf:acc 1.0d-10
set cphf:maxsub 30

task dft property

tddft
  rpa
  singlet
  notriplet
  nroots 10
  cdspectrum
  thresh 1e-6
  giao
  # velocity
end

# task tddft energy


================================================================================


                                         
                                         


              Northwest Computational Chemistry Package (NWChem) 6.8
              ------------------------------------------------------


                    Environmental Molecular Sciences Laboratory
                       Pacific Northwest National Laboratory
                                Richland, WA 99352

                              Copyright (c) 1994-2018
                       Pacific Northwest National Laboratory
                            Battelle Memorial Institute

             NWChem is an open-source computational chemistry package
                        distributed under the terms of the
                      Educational Community License (ECL) 2.0
             A copy of the license is included with this distribution
                              in the LICENSE.TXT file

                                  ACKNOWLEDGMENT
                                  --------------

            This software and its documentation were developed at the
            EMSL at Pacific Northwest National Laboratory, a multiprogram
            national laboratory, operated for the U.S. Department of Energy
            by Battelle under Contract Number DE-AC05-76RL01830. Support
            for this work was provided by the Department of Energy Office
            of Biological and Environmental Research, Office of Basic
            Energy Sciences, and the Office of Advanced Scientific Computing.


           Job information
           ---------------

    hostname        = lagrange
    program         = /home/edo/park/nwchem.last/bin/LINUX64/nwchem
    date            = Mon Mar 18 16:45:04 2019

    compiled        = Mon_Mar_18_16:43:08_2019
    source          = /home/edo/park/nwchem.last
    nwchem branch   = Development
    nwchem revision = nwchem_on_git-750-g29617e4
    ga revision     = 5.7.0
    use scalapack   = F
    input           = /home/edo/park/nwchem.last/QA/tests/h2o2-response-uhf-damping/h2o2-response-uhf-damping.nw
    prefix          = h2o2.
    data base       = ./h2o2.db
    status          = startup
    nproc           =        2
    time left       =     -1s



           Memory information
           ------------------

    heap     =    4194298 doubles =     32.0 Mbytes
    stack    =    4194303 doubles =     32.0 Mbytes
    global   =    8388608 doubles =     64.0 Mbytes (distinct from heap & stack)
    total    =   16777209 doubles =    128.0 Mbytes
    verify   = yes
    hardfail = no 


           Directory information
           ---------------------

  0 permanent = .
  0 scratch   = .




                                NWChem Input Module
                                -------------------


                                       h2o2
                                       ----
 Turning off AUTOSYM since
 SYMMETRY directive was detected!


          ------
          auto-z
          ------
  no constraints, skipping    0.0000000000000000     
  no constraints, skipping    0.0000000000000000     


                             Geometry "geometry" -> ""
                             -------------------------

 Output coordinates in a.u. (scale by  1.000000000 to convert to a.u.)

  No.       Tag          Charge          X              Y              Z
 ---- ---------------- ---------- -------------- -------------- --------------
    1 O                    8.0000     0.00000000     0.00000000     1.41178038
    2 O                    8.0000     0.12488360     0.00000000    -1.40614001
    3 H                    1.0000    -1.06625676    -1.50151179     1.65190485
    4 H                    1.0000    -0.91573670     1.50151179    -1.74142163

      Atomic Mass 
      ----------- 

      O                 15.994910
      H                  1.007825


 Effective nuclear repulsion energy (a.u.)      35.9572722911

            Nuclear Dipole moment (a.u.) 
            ----------------------------
        X                 Y               Z
 ---------------- ---------------- ----------------
    -0.9829246600     0.0000000000    -0.0443938200



                                Z-matrix (autoz)
                                -------- 

 Units are Angstrom for bonds and degrees for angles

      Type          Name      I     J     K     L     M      Value
      ----------- --------  ----- ----- ----- ----- ----- ----------
    1 Stretch                  1     2                       1.49264
    2 Stretch                  1     3                       0.98278
    3 Stretch                  2     4                       0.98288
    4 Bend                     1     2     4                98.94762
    5 Bend                     2     1     3                98.89289
    6 Torsion                  3     1     2     4         109.83925


            XYZ format geometry
            -------------------
     4
 geometry
 O                     0.00000000     0.00000000     0.74708206
 O                     0.06608556     0.00000000    -0.74409730
 H                    -0.56423882    -0.79456588     0.87415046
 H                    -0.48458703     0.79456588    -0.92152071

 ==============================================================================
                                internuclear distances
 ------------------------------------------------------------------------------
       center one      |      center two      | atomic units |       a.u.
 ------------------------------------------------------------------------------
    3 H                |   1 O                |     1.85718  |     1.85718
    4 H                |   2 O                |     1.85738  |     1.85738
 ------------------------------------------------------------------------------
                         number of included internuclear distances:          2
 ==============================================================================



  warning:::::::::::::: from_nwchemrc
  NWCHEM_BASIS_LIBRARY set to: </usr/local/Cellar/nwchem/6.8.1/share/nwchem/libraries/>
  but file does not exist !
  using compiled in library


 Summary of "ao basis" -> "" (spherical)
 ------------------------------------------------------------------------------
       Tag                 Description            Shells   Functions and Types
 ---------------- ------------------------------  ------  ---------------------
 *                          6-31G**                   on all atoms 


                              NWChem Property Module
                              ----------------------


                                       h2o2


                                 NWChem DFT Module
                                 -----------------


                                       h2o2


                      Basis "ao basis" -> "ao basis" (spherical)
                      -----
  O (Oxygen)
  ----------
            Exponent  Coefficients 
       -------------- ---------------------------------------------------------
  1 S  5.48467170E+03  0.001831
  1 S  8.25234950E+02  0.013950
  1 S  1.88046960E+02  0.068445
  1 S  5.29645000E+01  0.232714
  1 S  1.68975700E+01  0.470193
  1 S  5.79963530E+00  0.358521

  2 S  1.55396160E+01 -0.110778
  2 S  3.59993360E+00 -0.148026
  2 S  1.01376180E+00  1.130767

  3 P  1.55396160E+01  0.070874
  3 P  3.59993360E+00  0.339753
  3 P  1.01376180E+00  0.727159

  4 S  2.70005800E-01  1.000000

  5 P  2.70005800E-01  1.000000

  6 D  8.00000000E-01  1.000000

  H (Hydrogen)
  ------------
            Exponent  Coefficients 
       -------------- ---------------------------------------------------------
  1 S  1.87311370E+01  0.033495
  1 S  2.82539370E+00  0.234727
  1 S  6.40121700E-01  0.813757

  2 S  1.61277800E-01  1.000000

  3 P  1.10000000E+00  1.000000



 Summary of "ao basis" -> "ao basis" (spherical)
 ------------------------------------------------------------------------------
       Tag                 Description            Shells   Functions and Types
 ---------------- ------------------------------  ------  ---------------------
 O                          6-31G**                  6       14   3s2p1d
 H                          6-31G**                  3        5   2s1p




 Summary of "ao basis" -> "ao basis" (spherical)
 ------------------------------------------------------------------------------
       Tag                 Description            Shells   Functions and Types
 ---------------- ------------------------------  ------  ---------------------
 O                          6-31G**                  6       14   3s2p1d
 H                          6-31G**                  3        5   2s1p


  int_init: cando_txs set to always be  F
  Caching 1-el integrals 
  itol2e modified to match energy
  convergence criterion.
  tol_rho modified to match energy
  convergence criterion.

            General Information
            -------------------
          SCF calculation type: DFT
          Wavefunction type:  spin polarized.
          No. of atoms     :     4
          No. of electrons :    18
           Alpha electrons :     9
            Beta electrons :     9
          Charge           :     0
          Spin multiplicity:     1
          Use of symmetry is: off; symmetry adaption is: off
          Maximum number of iterations:  30
          This is a Direct SCF calculation.
          AO basis - number of functions:    38
                     number of shells:    18
          Convergence on energy requested:  1.00D-10
          Convergence on density requested:  1.00D-05
          Convergence on gradient requested:  5.00D-04

              XC Information
              --------------
                     Hartree-Fock (Exact) Exchange  1.000          
                   CAM-Becke88 Exchange Functional  1.000          
                      VWN V Correlation Functional  0.190 local    
              Lee-Yang-Parr Correlation Functional  0.810          

           Range-Separation Parameters        
           ---------------------------
           Alpha           :  0.19
           Beta            :  0.46
           Gamma           :  0.33
           Short-Range HF  :     F

             Grid Information
             ----------------
          Grid used for XC integration:  fine      
          Radial quadrature: Mura-Knowles        
          Angular quadrature: Lebedev. 
          Tag              B.-S. Rad. Rad. Pts. Rad. Cut. Ang. Pts.
          ---              ---------- --------- --------- ---------
          O                   0.60       70           7.0       590
          H                   0.35       60           8.0       590
          Grid pruning is: on 
          Number of quadrature shells:   260
          Spatial weights used:  Erf1

          Convergence Information
          -----------------------
          Convergence aids based upon iterative change in 
          total energy or number of iterations. 
          Levelshifting, if invoked, occurs when the 
          HOMO/LUMO gap drops below (HL_TOL):  1.00D-02
          DIIS, if invoked, will attempt to extrapolate 
          using up to (NFOCK): 10 stored Fock matrices.

                    Damping( 0%)  Levelshifting(0.5)       DIIS
                  --------------- ------------------- ---------------
          dE  on:    start            ASAP                start   
          dE off:    2 iters         30 iters            30 iters 


      Screening Tolerance Information
      -------------------------------
          Density screening/tol_rho:  1.00D-13
          AO Gaussian exp screening on grid/accAOfunc:  23
          CD Gaussian exp screening on grid/accCDfunc:  20
          XC Gaussian exp screening on grid/accXCfunc:  20
          Schwarz screening/accCoul:  1.00D-11


      Superposition of Atomic Density Guess
      -------------------------------------

 Sum of atomic energies:        -150.50516954

      Non-variational initial energy
      ------------------------------

 Total energy =    -150.594795
 1-e energy   =    -278.464275
 2-e energy   =      91.912208
 HOMO         =      -0.358499
 LUMO         =      -0.027517

   Time after variat. SCF:      0.5
   Time prior to 1st pass:      0.5

 Grid_pts file          = ./h2o2.gridpts.0
 Record size in doubles =  12289        No. of grid_pts per rec  =   3070
 Max. records in memory =     29        Max. recs in file   = 506625431


           Memory utilization after 1st SCF pass: 
           Heap Space remaining (MW):        0.00                  12
          Stack Space remaining (MW):        4.19             4193836

   convergence    iter        energy       DeltaE   RMS-Dens  Diis-err    time
 ---------------- ----- ----------------- --------- --------- ---------  ------
 d= 0,ls=0.0,diis     1   -151.4613551506 -1.87D+02  4.13D-03  6.59D-02     1.0
                                                     4.13D-03  6.59D-02
 d= 0,ls=0.0,diis     2   -151.4857252344 -2.44D-02  5.88D-04  3.63D-03     1.8
                                                     5.88D-04  3.63D-03
 d= 0,ls=0.0,diis     3   -151.4869934729 -1.27D-03  1.93D-04  8.45D-05     2.4
                                                     1.93D-04  8.45D-05
 d= 0,ls=0.0,diis     4   -151.4870253204 -3.18D-05  5.67D-05  1.95D-05     3.3
                                                     5.67D-05  1.95D-05
 d= 0,ls=0.0,diis     5   -151.4870323777 -7.06D-06  1.50D-05  4.45D-07     3.8
                                                     1.50D-05  4.45D-07
 d= 0,ls=0.0,diis     6   -151.4870326434 -2.66D-07  3.99D-06  2.27D-08     4.3
                                                     3.99D-06  2.27D-08
 d= 0,ls=0.0,diis     7   -151.4870326597 -1.64D-08  1.53D-06  5.36D-09     4.7
                                                     1.53D-06  5.36D-09
 d= 0,ls=0.0,diis     8   -151.4870326620 -2.33D-09  9.90D-07  2.31D-09     5.2
                                                     9.90D-07  2.31D-09
 d= 0,ls=0.0,diis     9   -151.4870326633 -1.30D-09  3.37D-07  3.79D-11     5.6
                                                     3.37D-07  3.79D-11
 d= 0,ls=0.0,diis    10   -151.4870326634 -7.55D-11  1.34D-07  2.05D-12     6.1
                                                     1.34D-07  2.05D-12


         Total DFT energy =     -151.487032663416
      One electron energy =     -279.844785474553
           Coulomb energy =      110.184913487325
    Exchange-Corr. energy =      -17.784432967285
 Nuclear repulsion energy =       35.957272291098

 Numeric. integr. density =       17.999999692671

     Total iterative time =      5.6s



                    DFT Final Alpha Molecular Orbital Analysis
                    ------------------------------------------

 Vector    1  Occ=1.000000D+00  E=-1.927392D+01
              MO Center=  6.4D-03, -8.2D-05,  6.0D-01, r^2= 2.1D-01
   Bfn.  Coefficient  Atom+Function         Bfn.  Coefficient  Atom+Function  
  ----- ------------  ---------------      ----- ------------  ---------------
     1      0.944655  1 O  s                 15      0.312574  2 O  s          
     2      0.026453  1 O  s          

 Vector    2  Occ=1.000000D+00  E=-1.927391D+01
              MO Center=  5.9D-02,  8.2D-05, -6.0D-01, r^2= 2.1D-01
   Bfn.  Coefficient  Atom+Function         Bfn.  Coefficient  Atom+Function  
  ----- ------------  ---------------      ----- ------------  ---------------
    15      0.944708  2 O  s                  1     -0.312736  1 O  s          
    16      0.026881  2 O  s          

 Vector    3  Occ=1.000000D+00  E=-1.174843D+00
              MO Center= -5.8D-02, -6.8D-05, -2.4D-03, r^2= 8.3D-01
   Bfn.  Coefficient  Atom+Function         Bfn.  Coefficient  Atom+Function  
  ----- ------------  ---------------      ----- ------------  ---------------
     2      0.333505  1 O  s                 16      0.333443  2 O  s          
     6      0.291298  1 O  s                 20      0.291259  2 O  s          
     1     -0.150357  1 O  s                 15     -0.150331  2 O  s          
    29      0.095284  3 H  s                 34      0.095211  4 H  s          
     5     -0.088242  1 O  pz                19      0.084943  2 O  pz         

 Vector    4  Occ=1.000000D+00  E=-9.708991D-01
              MO Center= -1.1D-01,  5.1D-05, -5.0D-03, r^2= 1.3D+00
   Bfn.  Coefficient  Atom+Function         Bfn.  Coefficient  Atom+Function  
  ----- ------------  ---------------      ----- ------------  ---------------
     6      0.352191  1 O  s                 20     -0.352283  2 O  s          
     2      0.350209  1 O  s                 16     -0.350288  2 O  s          
     1     -0.152126  1 O  s                 15      0.152162  2 O  s          
    29      0.138491  3 H  s                 34     -0.138517  4 H  s          
     4     -0.087906  1 O  py                18     -0.087913  2 O  py         

 Vector    5  Occ=1.000000D+00  E=-5.807833D-01
              MO Center= -7.4D-02,  3.3D-05, -3.4D-03, r^2= 1.3D+00
   Bfn.  Coefficient  Atom+Function         Bfn.  Coefficient  Atom+Function  
  ----- ------------  ---------------      ----- ------------  ---------------
    19     -0.300479  2 O  pz                 5      0.279689  1 O  pz         
     3     -0.246416  1 O  px                17     -0.220682  2 O  px         
    29      0.178800  3 H  s                 34      0.178852  4 H  s          
     4     -0.173294  1 O  py                18      0.173246  2 O  py         
    23     -0.159744  2 O  pz                 9      0.148445  1 O  pz         

 Vector    6  Occ=1.000000D+00  E=-5.485597D-01
              MO Center= -2.0D-02,  5.1D-05, -2.6D-04, r^2= 1.3D+00
   Bfn.  Coefficient  Atom+Function         Bfn.  Coefficient  Atom+Function  
  ----- ------------  ---------------      ----- ------------  ---------------
     4      0.364266  1 O  py                18      0.364146  2 O  py         
     6      0.223091  1 O  s                 20     -0.222750  2 O  s          
     8      0.212297  1 O  py                22      0.212255  2 O  py         
    29     -0.153100  3 H  s                 34      0.152974  4 H  s          
     2      0.138490  1 O  s                 16     -0.138284  2 O  s          

 Vector    7  Occ=1.000000D+00  E=-4.764127D-01
              MO Center=  1.2D-01, -9.2D-05,  5.0D-03, r^2= 1.3D+00
   Bfn.  Coefficient  Atom+Function         Bfn.  Coefficient  Atom+Function  
  ----- ------------  ---------------      ----- ------------  ---------------
     5      0.333864  1 O  pz                17      0.308309  2 O  px         
    19     -0.307807  2 O  pz                 3      0.279828  1 O  px         
     9      0.209483  1 O  pz                21      0.210326  2 O  px         
     7      0.192527  1 O  px                23     -0.191687  2 O  pz         
     6      0.172839  1 O  s                 20      0.172995  2 O  s          

 Vector    8  Occ=1.000000D+00  E=-3.797478D-01
              MO Center= -4.2D-02,  2.4D-06, -2.0D-03, r^2= 1.2D+00
   Bfn.  Coefficient  Atom+Function         Bfn.  Coefficient  Atom+Function  
  ----- ------------  ---------------      ----- ------------  ---------------
     4      0.403498  1 O  py                18     -0.403600  2 O  py         
     8      0.277287  1 O  py                22     -0.277354  2 O  py         
     3     -0.203864  1 O  px                17     -0.192475  2 O  px         
     7     -0.157555  1 O  px                21     -0.150161  2 O  px         
    19     -0.137806  2 O  pz                 6      0.133767  1 O  s          

 Vector    9  Occ=1.000000D+00  E=-3.480711D-01
              MO Center=  6.5D-02,  1.9D-05,  2.8D-03, r^2= 1.2D+00
   Bfn.  Coefficient  Atom+Function         Bfn.  Coefficient  Atom+Function  
  ----- ------------  ---------------      ----- ------------  ---------------
     3      0.457777  1 O  px                17     -0.459090  2 O  px         
    21     -0.326591  2 O  px                 7      0.324913  1 O  px         
     4     -0.152258  1 O  py                18     -0.152210  2 O  py         
     8     -0.128222  1 O  py                22     -0.128205  2 O  py         
     6      0.081176  1 O  s                 20     -0.081264  2 O  s          

 Vector   10  Occ=0.000000D+00  E= 6.612856D-02
              MO Center= -7.9D-02,  4.7D-04, -3.9D-03, r^2= 1.6D+00
   Bfn.  Coefficient  Atom+Function         Bfn.  Coefficient  Atom+Function  
  ----- ------------  ---------------      ----- ------------  ---------------
     6     -0.520398  1 O  s                 20      0.521142  2 O  s          
     9      0.501495  1 O  pz                23      0.494936  2 O  pz         
     5      0.474314  1 O  pz                19      0.470503  2 O  pz         
    30      0.380727  3 H  s                 35     -0.381868  4 H  s          
     2     -0.166997  1 O  s                 16      0.167142  2 O  s          

 Vector   11  Occ=0.000000D+00  E= 1.195853D-01
              MO Center= -6.3D-01, -2.4D-04, -2.8D-02, r^2= 3.2D+00
   Bfn.  Coefficient  Atom+Function         Bfn.  Coefficient  Atom+Function  
  ----- ------------  ---------------      ----- ------------  ---------------
    30      1.019265  3 H  s                 35      1.018966  4 H  s          
     6     -0.625928  1 O  s                 20     -0.625322  2 O  s          
     8      0.314808  1 O  py                22     -0.314609  2 O  py         
     7      0.229553  1 O  px                21      0.223200  2 O  px         
     4      0.173994  1 O  py                18     -0.173921  2 O  py         

 Vector   12  Occ=0.000000D+00  E= 1.676837D-01
              MO Center= -5.3D-01, -3.1D-04, -2.3D-02, r^2= 3.1D+00
   Bfn.  Coefficient  Atom+Function         Bfn.  Coefficient  Atom+Function  
  ----- ------------  ---------------      ----- ------------  ---------------
    30      1.046909  3 H  s                 35     -1.046458  4 H  s          
     6     -0.377206  1 O  s                 20      0.376806  2 O  s          
     8      0.333071  1 O  py                22      0.332991  2 O  py         
    23     -0.324124  2 O  pz                 9     -0.303710  1 O  pz         
    19     -0.247205  2 O  pz                 7      0.241240  1 O  px         

 Vector   13  Occ=0.000000D+00  E= 8.088302D-01
              MO Center= -4.2D-01,  4.5D-03, -2.5D-02, r^2= 2.3D+00
   Bfn.  Coefficient  Atom+Function         Bfn.  Coefficient  Atom+Function  
  ----- ------------  ---------------      ----- ------------  ---------------
    35      0.695462  4 H  s                 30      0.690256  3 H  s          
    34     -0.631243  4 H  s                 29     -0.626174  3 H  s          
     4     -0.391194  1 O  py                18      0.391878  2 O  py         
     8      0.285652  1 O  py                22     -0.285771  2 O  py         
    20     -0.256744  2 O  s                  6     -0.252402  1 O  s          

 Vector   14  Occ=0.000000D+00  E= 8.228117D-01
              MO Center= -3.0D-01, -4.2D-03, -6.4D-03, r^2= 2.6D+00
   Bfn.  Coefficient  Atom+Function         Bfn.  Coefficient  Atom+Function  
  ----- ------------  ---------------      ----- ------------  ---------------
    30     -0.670433  3 H  s                 35      0.665196  4 H  s          
     6      0.623183  1 O  s                 20     -0.621297  2 O  s          
    29      0.623005  3 H  s                 34     -0.618393  4 H  s          
     9     -0.593071  1 O  pz                23     -0.576095  2 O  pz         
     5      0.286721  1 O  pz                17     -0.267587  2 O  px         

 Vector   15  Occ=0.000000D+00  E= 9.063921D-01
              MO Center= -3.3D-02, -2.4D-04, -1.9D-03, r^2= 2.1D+00
   Bfn.  Coefficient  Atom+Function         Bfn.  Coefficient  Atom+Function  
  ----- ------------  ---------------      ----- ------------  ---------------
    23      0.816546  2 O  pz                 9      0.802908  1 O  pz         
     8      0.441065  1 O  py                22      0.440963  2 O  py         
     4     -0.421092  1 O  py                18     -0.421169  2 O  py         
    19     -0.384640  2 O  pz                 5     -0.368513  1 O  pz         
    29      0.265918  3 H  s                 34     -0.265330  4 H  s          

 Vector   16  Occ=0.000000D+00  E= 9.224975D-01
              MO Center=  2.1D-01,  1.8D-04,  8.6D-03, r^2= 1.6D+00
   Bfn.  Coefficient  Atom+Function         Bfn.  Coefficient  Atom+Function  
  ----- ------------  ---------------      ----- ------------  ---------------
    17      0.647065  2 O  px                21     -0.649593  2 O  px         
     7     -0.642049  1 O  px                 3      0.637710  1 O  px         
     2      0.153915  1 O  s                 16      0.153009  2 O  s          
    18      0.146901  2 O  py                 4     -0.145954  1 O  py         
     5      0.124840  1 O  pz                35     -0.113987  4 H  s          

 Vector   17  Occ=0.000000D+00  E= 1.004325D+00
              MO Center=  9.9D-02,  1.1D-04,  3.1D-03, r^2= 1.9D+00
   Bfn.  Coefficient  Atom+Function         Bfn.  Coefficient  Atom+Function  
  ----- ------------  ---------------      ----- ------------  ---------------
     8      0.668479  1 O  py                22     -0.669921  2 O  py         
    23      0.551880  2 O  pz                 9     -0.527432  1 O  pz         
    19     -0.468585  2 O  pz                 5      0.458096  1 O  pz         
    18      0.313220  2 O  py                 4     -0.311622  1 O  py         
     7      0.254111  1 O  px                 6     -0.244429  1 O  s          

 Vector   18  Occ=0.000000D+00  E= 1.021780D+00
              MO Center= -1.4D-03, -1.9D-04,  2.7D-03, r^2= 2.5D+00
   Bfn.  Coefficient  Atom+Function         Bfn.  Coefficient  Atom+Function  
  ----- ------------  ---------------      ----- ------------  ---------------
     9      0.825644  1 O  pz                23      0.776606  2 O  pz         
    30     -0.634296  3 H  s                 35      0.633306  4 H  s          
    21     -0.550626  2 O  px                 7      0.478365  1 O  px         
     8     -0.416017  1 O  py                22     -0.412287  2 O  py         
    17      0.375867  2 O  px                 4      0.355335  1 O  py         

 Vector   19  Occ=0.000000D+00  E= 1.079719D+00
              MO Center=  6.2D-02,  2.4D-03,  1.2D-04, r^2= 2.2D+00
   Bfn.  Coefficient  Atom+Function         Bfn.  Coefficient  Atom+Function  
  ----- ------------  ---------------      ----- ------------  ---------------
     7      0.899188  1 O  px                21     -0.834469  2 O  px         
    23     -0.776947  2 O  pz                 9     -0.693167  1 O  pz         
     8      0.653554  1 O  py                22      0.646987  2 O  py         
    35     -0.627857  4 H  s                 30      0.622934  3 H  s          
     3     -0.439539  1 O  px                17      0.418257  2 O  px         

 Vector   20  Occ=0.000000D+00  E= 1.084013D+00
              MO Center= -1.1D-02, -2.5D-03,  1.5D-03, r^2= 2.4D+00
   Bfn.  Coefficient  Atom+Function         Bfn.  Coefficient  Atom+Function  
  ----- ------------  ---------------      ----- ------------  ---------------
    22     -0.629233  2 O  py                 8      0.621292  1 O  py         
     6      0.586410  1 O  s                 20      0.585633  2 O  s          
     2     -0.444312  1 O  s                 16     -0.443916  2 O  s          
     9      0.431859  1 O  pz                23     -0.424456  2 O  pz         
    19      0.395563  2 O  pz                 5     -0.393030  1 O  pz         

 Vector   21  Occ=0.000000D+00  E= 1.369472D+00
              MO Center= -1.4D-01,  1.0D-04, -6.7D-03, r^2= 1.7D+00
   Bfn.  Coefficient  Atom+Function         Bfn.  Coefficient  Atom+Function  
  ----- ------------  ---------------      ----- ------------  ---------------
     6      1.347213  1 O  s                 20      1.348738  2 O  s          
     2     -0.944036  1 O  s                 16     -0.945145  2 O  s          
     8     -0.627068  1 O  py                22      0.626634  2 O  py         
    30     -0.606565  3 H  s                 35     -0.606470  4 H  s          
     7     -0.296066  1 O  px                21     -0.291992  2 O  px         

 Vector   22  Occ=0.000000D+00  E= 1.455554D+00
              MO Center= -8.4D-02, -1.7D-04, -3.7D-03, r^2= 1.4D+00
   Bfn.  Coefficient  Atom+Function         Bfn.  Coefficient  Atom+Function  
  ----- ------------  ---------------      ----- ------------  ---------------
     6      0.677727  1 O  s                 20     -0.677957  2 O  s          
    11      0.497466  1 O  d -1              25     -0.491276  2 O  d -1       
     2     -0.399134  1 O  s                 16      0.399281  2 O  s          
     9     -0.251849  1 O  pz                23     -0.248893  2 O  pz         
    33     -0.212806  3 H  pz                38     -0.204366  4 H  pz         

 Vector   23  Occ=0.000000D+00  E= 1.523235D+00
              MO Center= -7.4D-02,  1.8D-04, -2.8D-03, r^2= 1.3D+00
   Bfn.  Coefficient  Atom+Function         Bfn.  Coefficient  Atom+Function  
  ----- ------------  ---------------      ----- ------------  ---------------
    27      0.424372  2 O  d  1              13     -0.384877  1 O  d  1       
    14     -0.360621  1 O  d  2               6     -0.346947  1 O  s          
    20     -0.330129  2 O  s                 28     -0.324915  2 O  d  2       
     2      0.264708  1 O  s                 16      0.256307  2 O  s          
     8      0.181870  1 O  py                22     -0.180558  2 O  py         

 Vector   24  Occ=0.000000D+00  E= 1.553922D+00
              MO Center=  1.2D-02, -3.1D-04,  8.6D-04, r^2= 1.5D+00
   Bfn.  Coefficient  Atom+Function         Bfn.  Coefficient  Atom+Function  
  ----- ------------  ---------------      ----- ------------  ---------------
     6      1.859514  1 O  s                 20     -1.860606  2 O  s          
     2     -0.912122  1 O  s                 16      0.913016  2 O  s          
     9     -0.886248  1 O  pz                23     -0.874134  2 O  pz         
    24     -0.334339  2 O  d -2              10     -0.324593  1 O  d -2       
    29     -0.212608  3 H  s                 34      0.212961  4 H  s          

 Vector   25  Occ=0.000000D+00  E= 1.634241D+00
              MO Center= -1.3D-02, -9.6D-05, -8.4D-04, r^2= 1.4D+00
   Bfn.  Coefficient  Atom+Function         Bfn.  Coefficient  Atom+Function  
  ----- ------------  ---------------      ----- ------------  ---------------
    20      0.399445  2 O  s                  6      0.395850  1 O  s          
    28     -0.392756  2 O  d  2              13      0.380372  1 O  d  1       
    14     -0.360674  1 O  d  2              27     -0.351932  2 O  d  1       
    16     -0.285963  2 O  s                  2     -0.284208  1 O  s          
    21     -0.242086  2 O  px                 7     -0.237272  1 O  px         

 Vector   26  Occ=0.000000D+00  E= 1.703302D+00
              MO Center= -1.0D-01,  1.2D-04, -5.4D-03, r^2= 1.5D+00
   Bfn.  Coefficient  Atom+Function         Bfn.  Coefficient  Atom+Function  
  ----- ------------  ---------------      ----- ------------  ---------------
     6      0.548608  1 O  s                 20     -0.548226  2 O  s          
    14      0.480374  1 O  d  2              28     -0.480764  2 O  d  2       
    31     -0.273788  3 H  px                36      0.269536  4 H  px         
     2     -0.260349  1 O  s                 16      0.260084  2 O  s          
    23     -0.219142  2 O  pz                 9     -0.212866  1 O  pz         

 Vector   27  Occ=0.000000D+00  E= 1.979650D+00
              MO Center=  3.1D-02, -3.2D-05,  1.4D-03, r^2= 1.0D+00
   Bfn.  Coefficient  Atom+Function         Bfn.  Coefficient  Atom+Function  
  ----- ------------  ---------------      ----- ------------  ---------------
    26      0.562428  2 O  d  0              12      0.555578  1 O  d  0       
     5      0.337844  1 O  pz                19     -0.339199  2 O  pz         
     2     -0.317951  1 O  s                 16     -0.318042  2 O  s          
    24     -0.224799  2 O  d -2              10      0.222213  1 O  d -2       
     9     -0.201007  1 O  pz                23      0.200639  2 O  pz         

 Vector   28  Occ=0.000000D+00  E= 2.122012D+00
              MO Center= -1.8D-01,  9.4D-04, -7.9D-03, r^2= 1.5D+00
   Bfn.  Coefficient  Atom+Function         Bfn.  Coefficient  Atom+Function  
  ----- ------------  ---------------      ----- ------------  ---------------
    25      0.533848  2 O  d -1              11      0.524965  1 O  d -1       
    33     -0.393488  3 H  pz                38      0.389408  4 H  pz         
     8     -0.275845  1 O  py                22      0.276621  2 O  py         
    27     -0.206952  2 O  d  1              13      0.205021  1 O  d  1       
    23     -0.191723  2 O  pz                 9      0.190407  1 O  pz         

 Vector   29  Occ=0.000000D+00  E= 2.221053D+00
              MO Center= -9.6D-02, -5.1D-04, -4.2D-03, r^2= 1.5D+00
   Bfn.  Coefficient  Atom+Function         Bfn.  Coefficient  Atom+Function  
  ----- ------------  ---------------      ----- ------------  ---------------
    27      0.580895  2 O  d  1              13      0.575715  1 O  d  1       
    33      0.392134  3 H  pz                38      0.385785  4 H  pz         
     7      0.302776  1 O  px                21     -0.281206  2 O  px         
    11      0.264136  1 O  d -1              23     -0.262894  2 O  pz         
    25     -0.259091  2 O  d -1               9     -0.237411  1 O  pz         

 Vector   30  Occ=0.000000D+00  E= 2.405994D+00
              MO Center= -2.4D-01,  4.8D-03, -2.1D-02, r^2= 1.6D+00
   Bfn.  Coefficient  Atom+Function         Bfn.  Coefficient  Atom+Function  
  ----- ------------  ---------------      ----- ------------  ---------------
     6      0.975750  1 O  s                 20     -0.979132  2 O  s          
    34      0.655864  4 H  s                 29     -0.648172  3 H  s          
     2     -0.550376  1 O  s                 16      0.553012  2 O  s          
    10      0.478071  1 O  d -2              24      0.464999  2 O  d -2       
    21      0.354572  2 O  px                 7     -0.326691  1 O  px         

 Vector   31  Occ=0.000000D+00  E= 2.437395D+00
              MO Center= -2.3D-01, -5.0D-03, -2.9D-04, r^2= 1.6D+00
   Bfn.  Coefficient  Atom+Function         Bfn.  Coefficient  Atom+Function  
  ----- ------------  ---------------      ----- ------------  ---------------
    29      0.579401  3 H  s                 34      0.570383  4 H  s          
    10     -0.507815  1 O  d -2              24      0.501629  2 O  d -2       
     8      0.471360  1 O  py                22     -0.467361  2 O  py         
    32     -0.299416  3 H  py                37      0.297252  4 H  py         
     6     -0.261558  1 O  s                 20     -0.247953  2 O  s          

 Vector   32  Occ=0.000000D+00  E= 2.666152D+00
              MO Center= -3.4D-01,  1.0D-03, -1.7D-02, r^2= 1.7D+00
   Bfn.  Coefficient  Atom+Function         Bfn.  Coefficient  Atom+Function  
  ----- ------------  ---------------      ----- ------------  ---------------
    36      0.642666  4 H  px                31      0.639287  3 H  px         
    14      0.482894  1 O  d  2              28      0.477866  2 O  d  2       
    32     -0.355515  3 H  py                37      0.356127  4 H  py         
    24     -0.232215  2 O  d -2              10      0.228194  1 O  d -2       
    21     -0.153813  2 O  px                 7     -0.152293  1 O  px         

 Vector   33  Occ=0.000000D+00  E= 2.721960D+00
              MO Center= -2.8D-01, -5.0D-04, -1.2D-02, r^2= 1.7D+00
   Bfn.  Coefficient  Atom+Function         Bfn.  Coefficient  Atom+Function  
  ----- ------------  ---------------      ----- ------------  ---------------
    14      0.530321  1 O  d  2              28     -0.505934  2 O  d  2       
    32     -0.500166  3 H  py                37     -0.499957  4 H  py         
    31      0.429324  3 H  px                36     -0.405742  4 H  px         
    27      0.278304  2 O  d  1              38     -0.272286  4 H  pz         
    13      0.251868  1 O  d  1              33     -0.235341  3 H  pz         

 Vector   34  Occ=0.000000D+00  E= 2.761289D+00
              MO Center= -2.4D-01, -8.9D-04, -9.2D-03, r^2= 1.6D+00
   Bfn.  Coefficient  Atom+Function         Bfn.  Coefficient  Atom+Function  
  ----- ------------  ---------------      ----- ------------  ---------------
    13      0.565513  1 O  d  1              33     -0.527823  3 H  pz         
    27      0.511903  2 O  d  1              38     -0.493237  4 H  pz         
    36      0.399756  4 H  px                31     -0.355477  3 H  px         
    21     -0.301672  2 O  px                 7      0.292496  1 O  px         
    26     -0.256092  2 O  d  0              28      0.249495  2 O  d  2       

 Vector   35  Occ=0.000000D+00  E= 2.912750D+00
              MO Center= -2.1D-01,  6.0D-04, -1.0D-02, r^2= 1.7D+00
   Bfn.  Coefficient  Atom+Function         Bfn.  Coefficient  Atom+Function  
  ----- ------------  ---------------      ----- ------------  ---------------
    11      0.698477  1 O  d -1              25      0.688871  2 O  d -1       
    33      0.654259  3 H  pz                38     -0.651719  4 H  pz         
     8     -0.262370  1 O  py                22      0.262869  2 O  py         
     9     -0.233670  1 O  pz                23      0.231607  2 O  pz         
    13     -0.177825  1 O  d  1              27      0.174186  2 O  d  1       

 Vector   36  Occ=0.000000D+00  E= 3.027909D+00
              MO Center= -2.8D-02, -2.3D-04, -8.4D-04, r^2= 1.8D+00
   Bfn.  Coefficient  Atom+Function         Bfn.  Coefficient  Atom+Function  
  ----- ------------  ---------------      ----- ------------  ---------------
     6      2.690400  1 O  s                 20     -2.689340  2 O  s          
     9     -1.722301  1 O  pz                23     -1.703606  2 O  pz         
    12      0.962306  1 O  d  0              26     -0.944855  2 O  d  0       
     2     -0.785719  1 O  s                 16      0.785201  2 O  s          
    29     -0.399367  3 H  s                 34      0.398297  4 H  s          

 Vector   37  Occ=0.000000D+00  E= 3.446045D+00
              MO Center= -2.8D-01,  1.2D-03, -1.5D-02, r^2= 1.8D+00
   Bfn.  Coefficient  Atom+Function         Bfn.  Coefficient  Atom+Function  
  ----- ------------  ---------------      ----- ------------  ---------------
    29     -1.045021  3 H  s                 34     -1.047421  4 H  s          
     6      1.029914  1 O  s                 20      1.032350  2 O  s          
    32     -0.848889  3 H  py                37      0.850764  4 H  py         
    10      0.694799  1 O  d -2              24     -0.687155  2 O  d -2       
     8     -0.670051  1 O  py                22      0.671591  2 O  py         

 Vector   38  Occ=0.000000D+00  E= 3.528608D+00
              MO Center= -2.5D-01, -1.1D-03, -9.1D-03, r^2= 1.9D+00
   Bfn.  Coefficient  Atom+Function         Bfn.  Coefficient  Atom+Function  
  ----- ------------  ---------------      ----- ------------  ---------------
    29      1.000480  3 H  s                 34     -0.997506  4 H  s          
    32      0.806521  3 H  py                37      0.804294  4 H  py         
    12      0.669754  1 O  d  0              26     -0.658692  2 O  d  0       
    10     -0.637507  1 O  d -2              24     -0.618676  2 O  d -2       
    31      0.605600  3 H  px                 8      0.600604  1 O  py         


                     DFT Final Beta Molecular Orbital Analysis
                     -----------------------------------------

 Vector    1  Occ=1.000000D+00  E=-1.927392D+01
              MO Center=  6.4D-03, -8.2D-05,  6.0D-01, r^2= 2.1D-01
   Bfn.  Coefficient  Atom+Function         Bfn.  Coefficient  Atom+Function  
  ----- ------------  ---------------      ----- ------------  ---------------
     1      0.944655  1 O  s                 15      0.312574  2 O  s          
     2      0.026453  1 O  s          

 Vector    2  Occ=1.000000D+00  E=-1.927391D+01
              MO Center=  5.9D-02,  8.2D-05, -6.0D-01, r^2= 2.1D-01
   Bfn.  Coefficient  Atom+Function         Bfn.  Coefficient  Atom+Function  
  ----- ------------  ---------------      ----- ------------  ---------------
    15      0.944708  2 O  s                  1     -0.312736  1 O  s          
    16      0.026881  2 O  s          

 Vector    3  Occ=1.000000D+00  E=-1.174843D+00
              MO Center= -5.8D-02, -6.8D-05, -2.4D-03, r^2= 8.3D-01
   Bfn.  Coefficient  Atom+Function         Bfn.  Coefficient  Atom+Function  
  ----- ------------  ---------------      ----- ------------  ---------------
     2      0.333505  1 O  s                 16      0.333443  2 O  s          
     6      0.291298  1 O  s                 20      0.291259  2 O  s          
     1     -0.150357  1 O  s                 15     -0.150331  2 O  s          
    29      0.095284  3 H  s                 34      0.095211  4 H  s          
     5     -0.088242  1 O  pz                19      0.084943  2 O  pz         

 Vector    4  Occ=1.000000D+00  E=-9.708991D-01
              MO Center= -1.1D-01,  5.1D-05, -5.0D-03, r^2= 1.3D+00
   Bfn.  Coefficient  Atom+Function         Bfn.  Coefficient  Atom+Function  
  ----- ------------  ---------------      ----- ------------  ---------------
     6      0.352191  1 O  s                 20     -0.352283  2 O  s          
     2      0.350209  1 O  s                 16     -0.350288  2 O  s          
     1     -0.152126  1 O  s                 15      0.152162  2 O  s          
    29      0.138491  3 H  s                 34     -0.138517  4 H  s          
     4     -0.087906  1 O  py                18     -0.087913  2 O  py         

 Vector    5  Occ=1.000000D+00  E=-5.807833D-01
              MO Center= -7.4D-02,  3.3D-05, -3.4D-03, r^2= 1.3D+00
   Bfn.  Coefficient  Atom+Function         Bfn.  Coefficient  Atom+Function  
  ----- ------------  ---------------      ----- ------------  ---------------
    19     -0.300479  2 O  pz                 5      0.279689  1 O  pz         
     3     -0.246416  1 O  px                17     -0.220682  2 O  px         
    29      0.178800  3 H  s                 34      0.178852  4 H  s          
     4     -0.173294  1 O  py                18      0.173246  2 O  py         
    23     -0.159744  2 O  pz                 9      0.148445  1 O  pz         

 Vector    6  Occ=1.000000D+00  E=-5.485597D-01
              MO Center= -2.0D-02,  5.1D-05, -2.6D-04, r^2= 1.3D+00
   Bfn.  Coefficient  Atom+Function         Bfn.  Coefficient  Atom+Function  
  ----- ------------  ---------------      ----- ------------  ---------------
     4      0.364266  1 O  py                18      0.364146  2 O  py         
     6      0.223091  1 O  s                 20     -0.222750  2 O  s          
     8      0.212297  1 O  py                22      0.212255  2 O  py         
    29     -0.153100  3 H  s                 34      0.152974  4 H  s          
     2      0.138490  1 O  s                 16     -0.138284  2 O  s          

 Vector    7  Occ=1.000000D+00  E=-4.764127D-01
              MO Center=  1.2D-01, -9.2D-05,  5.0D-03, r^2= 1.3D+00
   Bfn.  Coefficient  Atom+Function         Bfn.  Coefficient  Atom+Function  
  ----- ------------  ---------------      ----- ------------  ---------------
     5      0.333864  1 O  pz                17      0.308309  2 O  px         
    19     -0.307807  2 O  pz                 3      0.279828  1 O  px         
     9      0.209483  1 O  pz                21      0.210326  2 O  px         
     7      0.192527  1 O  px                23     -0.191687  2 O  pz         
     6      0.172839  1 O  s                 20      0.172995  2 O  s          

 Vector    8  Occ=1.000000D+00  E=-3.797478D-01
              MO Center= -4.2D-02,  2.4D-06, -2.0D-03, r^2= 1.2D+00
   Bfn.  Coefficient  Atom+Function         Bfn.  Coefficient  Atom+Function  
  ----- ------------  ---------------      ----- ------------  ---------------
     4      0.403498  1 O  py                18     -0.403600  2 O  py         
     8      0.277287  1 O  py                22     -0.277354  2 O  py         
     3     -0.203864  1 O  px                17     -0.192475  2 O  px         
     7     -0.157555  1 O  px                21     -0.150161  2 O  px         
    19     -0.137806  2 O  pz                 6      0.133767  1 O  s          

 Vector    9  Occ=1.000000D+00  E=-3.480711D-01
              MO Center=  6.5D-02,  1.9D-05,  2.8D-03, r^2= 1.2D+00
   Bfn.  Coefficient  Atom+Function         Bfn.  Coefficient  Atom+Function  
  ----- ------------  ---------------      ----- ------------  ---------------
     3      0.457777  1 O  px                17     -0.459090  2 O  px         
    21     -0.326591  2 O  px                 7      0.324913  1 O  px         
     4     -0.152258  1 O  py                18     -0.152210  2 O  py         
     8     -0.128222  1 O  py                22     -0.128205  2 O  py         
     6      0.081176  1 O  s                 20     -0.081264  2 O  s          

 Vector   10  Occ=0.000000D+00  E= 6.612856D-02
              MO Center= -7.9D-02,  4.7D-04, -3.9D-03, r^2= 1.6D+00
   Bfn.  Coefficient  Atom+Function         Bfn.  Coefficient  Atom+Function  
  ----- ------------  ---------------      ----- ------------  ---------------
     6     -0.520398  1 O  s                 20      0.521142  2 O  s          
     9      0.501495  1 O  pz                23      0.494936  2 O  pz         
     5      0.474314  1 O  pz                19      0.470503  2 O  pz         
    30      0.380727  3 H  s                 35     -0.381868  4 H  s          
     2     -0.166997  1 O  s                 16      0.167142  2 O  s          

 Vector   11  Occ=0.000000D+00  E= 1.195853D-01
              MO Center= -6.3D-01, -2.4D-04, -2.8D-02, r^2= 3.2D+00
   Bfn.  Coefficient  Atom+Function         Bfn.  Coefficient  Atom+Function  
  ----- ------------  ---------------      ----- ------------  ---------------
    30      1.019265  3 H  s                 35      1.018966  4 H  s          
     6     -0.625928  1 O  s                 20     -0.625322  2 O  s          
     8      0.314808  1 O  py                22     -0.314609  2 O  py         
     7      0.229553  1 O  px                21      0.223200  2 O  px         
     4      0.173994  1 O  py                18     -0.173921  2 O  py         

 Vector   12  Occ=0.000000D+00  E= 1.676837D-01
              MO Center= -5.3D-01, -3.1D-04, -2.3D-02, r^2= 3.1D+00
   Bfn.  Coefficient  Atom+Function         Bfn.  Coefficient  Atom+Function  
  ----- ------------  ---------------      ----- ------------  ---------------
    30      1.046909  3 H  s                 35     -1.046458  4 H  s          
     6     -0.377206  1 O  s                 20      0.376806  2 O  s          
     8      0.333071  1 O  py                22      0.332991  2 O  py         
    23     -0.324124  2 O  pz                 9     -0.303710  1 O  pz         
    19     -0.247205  2 O  pz                 7      0.241240  1 O  px         

 Vector   13  Occ=0.000000D+00  E= 8.088302D-01
              MO Center= -4.2D-01,  4.5D-03, -2.5D-02, r^2= 2.3D+00
   Bfn.  Coefficient  Atom+Function         Bfn.  Coefficient  Atom+Function  
  ----- ------------  ---------------      ----- ------------  ---------------
    35      0.695462  4 H  s                 30      0.690256  3 H  s          
    34     -0.631243  4 H  s                 29     -0.626174  3 H  s          
     4     -0.391194  1 O  py                18      0.391878  2 O  py         
     8      0.285652  1 O  py                22     -0.285771  2 O  py         
    20     -0.256744  2 O  s                  6     -0.252402  1 O  s          

 Vector   14  Occ=0.000000D+00  E= 8.228117D-01
              MO Center= -3.0D-01, -4.2D-03, -6.4D-03, r^2= 2.6D+00
   Bfn.  Coefficient  Atom+Function         Bfn.  Coefficient  Atom+Function  
  ----- ------------  ---------------      ----- ------------  ---------------
    30     -0.670433  3 H  s                 35      0.665196  4 H  s          
     6      0.623183  1 O  s                 20     -0.621297  2 O  s          
    29      0.623005  3 H  s                 34     -0.618393  4 H  s          
     9     -0.593071  1 O  pz                23     -0.576095  2 O  pz         
     5      0.286721  1 O  pz                17     -0.267587  2 O  px         

 Vector   15  Occ=0.000000D+00  E= 9.063921D-01
              MO Center= -3.3D-02, -2.4D-04, -1.9D-03, r^2= 2.1D+00
   Bfn.  Coefficient  Atom+Function         Bfn.  Coefficient  Atom+Function  
  ----- ------------  ---------------      ----- ------------  ---------------
    23      0.816546  2 O  pz                 9      0.802908  1 O  pz         
     8      0.441065  1 O  py                22      0.440963  2 O  py         
     4     -0.421092  1 O  py                18     -0.421169  2 O  py         
    19     -0.384640  2 O  pz                 5     -0.368513  1 O  pz         
    29      0.265918  3 H  s                 34     -0.265330  4 H  s          

 Vector   16  Occ=0.000000D+00  E= 9.224975D-01
              MO Center=  2.1D-01,  1.8D-04,  8.6D-03, r^2= 1.6D+00
   Bfn.  Coefficient  Atom+Function         Bfn.  Coefficient  Atom+Function  
  ----- ------------  ---------------      ----- ------------  ---------------
    17      0.647065  2 O  px                21     -0.649593  2 O  px         
     7     -0.642049  1 O  px                 3      0.637710  1 O  px         
     2      0.153915  1 O  s                 16      0.153009  2 O  s          
    18      0.146901  2 O  py                 4     -0.145954  1 O  py         
     5      0.124840  1 O  pz                35     -0.113987  4 H  s          

 Vector   17  Occ=0.000000D+00  E= 1.004325D+00
              MO Center=  9.9D-02,  1.1D-04,  3.1D-03, r^2= 1.9D+00
   Bfn.  Coefficient  Atom+Function         Bfn.  Coefficient  Atom+Function  
  ----- ------------  ---------------      ----- ------------  ---------------
     8      0.668479  1 O  py                22     -0.669921  2 O  py         
    23      0.551880  2 O  pz                 9     -0.527432  1 O  pz         
    19     -0.468585  2 O  pz                 5      0.458096  1 O  pz         
    18      0.313220  2 O  py                 4     -0.311622  1 O  py         
     7      0.254111  1 O  px                 6     -0.244429  1 O  s          

 Vector   18  Occ=0.000000D+00  E= 1.021780D+00
              MO Center= -1.4D-03, -1.9D-04,  2.7D-03, r^2= 2.5D+00
   Bfn.  Coefficient  Atom+Function         Bfn.  Coefficient  Atom+Function  
  ----- ------------  ---------------      ----- ------------  ---------------
     9      0.825644  1 O  pz                23      0.776606  2 O  pz         
    30     -0.634296  3 H  s                 35      0.633306  4 H  s          
    21     -0.550626  2 O  px                 7      0.478365  1 O  px         
     8     -0.416017  1 O  py                22     -0.412287  2 O  py         
    17      0.375867  2 O  px                 4      0.355335  1 O  py         

 Vector   19  Occ=0.000000D+00  E= 1.079719D+00
              MO Center=  6.2D-02,  2.4D-03,  1.2D-04, r^2= 2.2D+00
   Bfn.  Coefficient  Atom+Function         Bfn.  Coefficient  Atom+Function  
  ----- ------------  ---------------      ----- ------------  ---------------
     7      0.899188  1 O  px                21     -0.834469  2 O  px         
    23     -0.776947  2 O  pz                 9     -0.693167  1 O  pz         
     8      0.653554  1 O  py                22      0.646987  2 O  py         
    35     -0.627857  4 H  s                 30      0.622934  3 H  s          
     3     -0.439539  1 O  px                17      0.418257  2 O  px         

 Vector   20  Occ=0.000000D+00  E= 1.084013D+00
              MO Center= -1.1D-02, -2.5D-03,  1.5D-03, r^2= 2.4D+00
   Bfn.  Coefficient  Atom+Function         Bfn.  Coefficient  Atom+Function  
  ----- ------------  ---------------      ----- ------------  ---------------
    22     -0.629233  2 O  py                 8      0.621292  1 O  py         
     6      0.586410  1 O  s                 20      0.585633  2 O  s          
     2     -0.444312  1 O  s                 16     -0.443916  2 O  s          
     9      0.431859  1 O  pz                23     -0.424456  2 O  pz         
    19      0.395563  2 O  pz                 5     -0.393030  1 O  pz         

 Vector   21  Occ=0.000000D+00  E= 1.369472D+00
              MO Center= -1.4D-01,  1.0D-04, -6.7D-03, r^2= 1.7D+00
   Bfn.  Coefficient  Atom+Function         Bfn.  Coefficient  Atom+Function  
  ----- ------------  ---------------      ----- ------------  ---------------
     6      1.347213  1 O  s                 20      1.348738  2 O  s          
     2     -0.944036  1 O  s                 16     -0.945145  2 O  s          
     8     -0.627068  1 O  py                22      0.626634  2 O  py         
    30     -0.606565  3 H  s                 35     -0.606470  4 H  s          
     7     -0.296066  1 O  px                21     -0.291992  2 O  px         

 Vector   22  Occ=0.000000D+00  E= 1.455554D+00
              MO Center= -8.4D-02, -1.7D-04, -3.7D-03, r^2= 1.4D+00
   Bfn.  Coefficient  Atom+Function         Bfn.  Coefficient  Atom+Function  
  ----- ------------  ---------------      ----- ------------  ---------------
     6      0.677727  1 O  s                 20     -0.677957  2 O  s          
    11      0.497466  1 O  d -1              25     -0.491276  2 O  d -1       
     2     -0.399134  1 O  s                 16      0.399281  2 O  s          
     9     -0.251849  1 O  pz                23     -0.248893  2 O  pz         
    33     -0.212806  3 H  pz                38     -0.204366  4 H  pz         

 Vector   23  Occ=0.000000D+00  E= 1.523235D+00
              MO Center= -7.4D-02,  1.8D-04, -2.8D-03, r^2= 1.3D+00
   Bfn.  Coefficient  Atom+Function         Bfn.  Coefficient  Atom+Function  
  ----- ------------  ---------------      ----- ------------  ---------------
    27      0.424372  2 O  d  1              13     -0.384877  1 O  d  1       
    14     -0.360621  1 O  d  2               6     -0.346947  1 O  s          
    20     -0.330129  2 O  s                 28     -0.324915  2 O  d  2       
     2      0.264708  1 O  s                 16      0.256307  2 O  s          
     8      0.181870  1 O  py                22     -0.180558  2 O  py         

 Vector   24  Occ=0.000000D+00  E= 1.553922D+00
              MO Center=  1.2D-02, -3.1D-04,  8.6D-04, r^2= 1.5D+00
   Bfn.  Coefficient  Atom+Function         Bfn.  Coefficient  Atom+Function  
  ----- ------------  ---------------      ----- ------------  ---------------
     6      1.859514  1 O  s                 20     -1.860606  2 O  s          
     2     -0.912122  1 O  s                 16      0.913016  2 O  s          
     9     -0.886248  1 O  pz                23     -0.874134  2 O  pz         
    24     -0.334339  2 O  d -2              10     -0.324593  1 O  d -2       
    29     -0.212608  3 H  s                 34      0.212961  4 H  s          

 Vector   25  Occ=0.000000D+00  E= 1.634241D+00
              MO Center= -1.3D-02, -9.6D-05, -8.4D-04, r^2= 1.4D+00
   Bfn.  Coefficient  Atom+Function         Bfn.  Coefficient  Atom+Function  
  ----- ------------  ---------------      ----- ------------  ---------------
    20      0.399445  2 O  s                  6      0.395850  1 O  s          
    28     -0.392756  2 O  d  2              13      0.380372  1 O  d  1       
    14     -0.360674  1 O  d  2              27     -0.351932  2 O  d  1       
    16     -0.285963  2 O  s                  2     -0.284208  1 O  s          
    21     -0.242086  2 O  px                 7     -0.237272  1 O  px         

 Vector   26  Occ=0.000000D+00  E= 1.703302D+00
              MO Center= -1.0D-01,  1.2D-04, -5.4D-03, r^2= 1.5D+00
   Bfn.  Coefficient  Atom+Function         Bfn.  Coefficient  Atom+Function  
  ----- ------------  ---------------      ----- ------------  ---------------
     6      0.548608  1 O  s                 20     -0.548226  2 O  s          
    14      0.480374  1 O  d  2              28     -0.480764  2 O  d  2       
    31     -0.273788  3 H  px                36      0.269536  4 H  px         
     2     -0.260349  1 O  s                 16      0.260084  2 O  s          
    23     -0.219142  2 O  pz                 9     -0.212866  1 O  pz         

 Vector   27  Occ=0.000000D+00  E= 1.979650D+00
              MO Center=  3.1D-02, -3.2D-05,  1.4D-03, r^2= 1.0D+00
   Bfn.  Coefficient  Atom+Function         Bfn.  Coefficient  Atom+Function  
  ----- ------------  ---------------      ----- ------------  ---------------
    26      0.562428  2 O  d  0              12      0.555578  1 O  d  0       
     5      0.337844  1 O  pz                19     -0.339199  2 O  pz         
     2     -0.317951  1 O  s                 16     -0.318042  2 O  s          
    24     -0.224799  2 O  d -2              10      0.222213  1 O  d -2       
     9     -0.201007  1 O  pz                23      0.200639  2 O  pz         

 Vector   28  Occ=0.000000D+00  E= 2.122012D+00
              MO Center= -1.8D-01,  9.4D-04, -7.9D-03, r^2= 1.5D+00
   Bfn.  Coefficient  Atom+Function         Bfn.  Coefficient  Atom+Function  
  ----- ------------  ---------------      ----- ------------  ---------------
    25      0.533848  2 O  d -1              11      0.524965  1 O  d -1       
    33     -0.393488  3 H  pz                38      0.389408  4 H  pz         
     8     -0.275845  1 O  py                22      0.276621  2 O  py         
    27     -0.206952  2 O  d  1              13      0.205021  1 O  d  1       
    23     -0.191723  2 O  pz                 9      0.190407  1 O  pz         

 Vector   29  Occ=0.000000D+00  E= 2.221053D+00
              MO Center= -9.6D-02, -5.1D-04, -4.2D-03, r^2= 1.5D+00
   Bfn.  Coefficient  Atom+Function         Bfn.  Coefficient  Atom+Function  
  ----- ------------  ---------------      ----- ------------  ---------------
    27      0.580895  2 O  d  1              13      0.575715  1 O  d  1       
    33      0.392134  3 H  pz                38      0.385785  4 H  pz         
     7      0.302776  1 O  px                21     -0.281206  2 O  px         
    11      0.264136  1 O  d -1              23     -0.262894  2 O  pz         
    25     -0.259091  2 O  d -1               9     -0.237411  1 O  pz         

 Vector   30  Occ=0.000000D+00  E= 2.405994D+00
              MO Center= -2.4D-01,  4.8D-03, -2.1D-02, r^2= 1.6D+00
   Bfn.  Coefficient  Atom+Function         Bfn.  Coefficient  Atom+Function  
  ----- ------------  ---------------      ----- ------------  ---------------
     6      0.975750  1 O  s                 20     -0.979132  2 O  s          
    34      0.655864  4 H  s                 29     -0.648172  3 H  s          
     2     -0.550376  1 O  s                 16      0.553012  2 O  s          
    10      0.478071  1 O  d -2              24      0.464999  2 O  d -2       
    21      0.354572  2 O  px                 7     -0.326691  1 O  px         

 Vector   31  Occ=0.000000D+00  E= 2.437395D+00
              MO Center= -2.3D-01, -5.0D-03, -2.9D-04, r^2= 1.6D+00
   Bfn.  Coefficient  Atom+Function         Bfn.  Coefficient  Atom+Function  
  ----- ------------  ---------------      ----- ------------  ---------------
    29      0.579401  3 H  s                 34      0.570383  4 H  s          
    10     -0.507815  1 O  d -2              24      0.501629  2 O  d -2       
     8      0.471360  1 O  py                22     -0.467361  2 O  py         
    32     -0.299416  3 H  py                37      0.297252  4 H  py         
     6     -0.261558  1 O  s                 20     -0.247953  2 O  s          

 Vector   32  Occ=0.000000D+00  E= 2.666152D+00
              MO Center= -3.4D-01,  1.0D-03, -1.7D-02, r^2= 1.7D+00
   Bfn.  Coefficient  Atom+Function         Bfn.  Coefficient  Atom+Function  
  ----- ------------  ---------------      ----- ------------  ---------------
    36      0.642666  4 H  px                31      0.639287  3 H  px         
    14      0.482894  1 O  d  2              28      0.477866  2 O  d  2       
    32     -0.355515  3 H  py                37      0.356127  4 H  py         
    24     -0.232215  2 O  d -2              10      0.228194  1 O  d -2       
    21     -0.153813  2 O  px                 7     -0.152293  1 O  px         

 Vector   33  Occ=0.000000D+00  E= 2.721960D+00
              MO Center= -2.8D-01, -5.0D-04, -1.2D-02, r^2= 1.7D+00
   Bfn.  Coefficient  Atom+Function         Bfn.  Coefficient  Atom+Function  
  ----- ------------  ---------------      ----- ------------  ---------------
    14      0.530321  1 O  d  2              28     -0.505934  2 O  d  2       
    32     -0.500166  3 H  py                37     -0.499957  4 H  py         
    31      0.429324  3 H  px                36     -0.405742  4 H  px         
    27      0.278304  2 O  d  1              38     -0.272286  4 H  pz         
    13      0.251868  1 O  d  1              33     -0.235341  3 H  pz         

 Vector   34  Occ=0.000000D+00  E= 2.761289D+00
              MO Center= -2.4D-01, -8.9D-04, -9.2D-03, r^2= 1.6D+00
   Bfn.  Coefficient  Atom+Function         Bfn.  Coefficient  Atom+Function  
  ----- ------------  ---------------      ----- ------------  ---------------
    13      0.565513  1 O  d  1              33     -0.527823  3 H  pz         
    27      0.511903  2 O  d  1              38     -0.493237  4 H  pz         
    36      0.399756  4 H  px                31     -0.355477  3 H  px         
    21     -0.301672  2 O  px                 7      0.292496  1 O  px         
    26     -0.256092  2 O  d  0              28      0.249495  2 O  d  2       

 Vector   35  Occ=0.000000D+00  E= 2.912750D+00
              MO Center= -2.1D-01,  6.0D-04, -1.0D-02, r^2= 1.7D+00
   Bfn.  Coefficient  Atom+Function         Bfn.  Coefficient  Atom+Function  
  ----- ------------  ---------------      ----- ------------  ---------------
    11      0.698477  1 O  d -1              25      0.688871  2 O  d -1       
    33      0.654259  3 H  pz                38     -0.651719  4 H  pz         
     8     -0.262370  1 O  py                22      0.262869  2 O  py         
     9     -0.233670  1 O  pz                23      0.231607  2 O  pz         
    13     -0.177825  1 O  d  1              27      0.174186  2 O  d  1       

 Vector   36  Occ=0.000000D+00  E= 3.027909D+00
              MO Center= -2.8D-02, -2.3D-04, -8.4D-04, r^2= 1.8D+00
   Bfn.  Coefficient  Atom+Function         Bfn.  Coefficient  Atom+Function  
  ----- ------------  ---------------      ----- ------------  ---------------
     6      2.690400  1 O  s                 20     -2.689340  2 O  s          
     9     -1.722301  1 O  pz                23     -1.703606  2 O  pz         
    12      0.962306  1 O  d  0              26     -0.944855  2 O  d  0       
     2     -0.785719  1 O  s                 16      0.785201  2 O  s          
    29     -0.399367  3 H  s                 34      0.398297  4 H  s          

 Vector   37  Occ=0.000000D+00  E= 3.446045D+00
              MO Center= -2.8D-01,  1.2D-03, -1.5D-02, r^2= 1.8D+00
   Bfn.  Coefficient  Atom+Function         Bfn.  Coefficient  Atom+Function  
  ----- ------------  ---------------      ----- ------------  ---------------
    29     -1.045021  3 H  s                 34     -1.047421  4 H  s          
     6      1.029914  1 O  s                 20      1.032350  2 O  s          
    32     -0.848889  3 H  py                37      0.850764  4 H  py         
    10      0.694799  1 O  d -2              24     -0.687155  2 O  d -2       
     8     -0.670051  1 O  py                22      0.671591  2 O  py         

 Vector   38  Occ=0.000000D+00  E= 3.528608D+00
              MO Center= -2.5D-01, -1.1D-03, -9.1D-03, r^2= 1.9D+00
   Bfn.  Coefficient  Atom+Function         Bfn.  Coefficient  Atom+Function  
  ----- ------------  ---------------      ----- ------------  ---------------
    29      1.000480  3 H  s                 34     -0.997506  4 H  s          
    32      0.806521  3 H  py                37      0.804294  4 H  py         
    12      0.669754  1 O  d  0              26     -0.658692  2 O  d  0       
    10     -0.637507  1 O  d -2              24     -0.618676  2 O  d -2       
    31      0.605600  3 H  px                 8      0.600604  1 O  py         


   alpha - beta orbital overlaps 
   ----------------------------- 


   alpha      1      2      3      4      5      6      7      8      9     10
    beta      1      2      3      4      5      6      7      8      9     10
 overlap   1.000  1.000  1.000  1.000  1.000  1.000  1.000  1.000  1.000  1.000


   alpha     11     12     13     14     15     16     17     18     19     20
    beta     11     12     13     14     15     16     17     18     19     20
 overlap   1.000  1.000  1.000  1.000  1.000  1.000  1.000  1.000  1.000  1.000


   alpha     21     22     23     24     25     26     27     28     29     30
    beta     21     22     23     24     25     26     27     28     29     30
 overlap   1.000  1.000  1.000  1.000  1.000  1.000  1.000  1.000  1.000  1.000


   alpha     31     32     33     34     35     36     37     38
    beta     31     32     33     34     35     36     37     38
 overlap   1.000  1.000  1.000  1.000  1.000  1.000  1.000  1.000

     --------------------------
     Expectation value of S2:  
     --------------------------
      <S2> =      0.0000 (Exact =     0.0000)


 center of mass
 --------------
 x =  -0.00000002 y =   0.00000000 z =  -0.00000000

 moments of inertia (a.u.)
 ------------------
          73.856228234860          -0.227776154541           2.976742618496
          -0.227776154541          71.552259934039           5.134989028825
           2.976742618496           5.134989028825           6.784749349832

     Multipole analysis of the density
     ---------------------------------

     L   x y z        total         alpha         beta         nuclear
     -   - - -        -----         -----         ----         -------
     0   0 0 0     -0.000000     -9.000000     -9.000000     18.000000

     1   1 0 0     -0.790758      0.096083      0.096083     -0.982925
     1   0 1 0      0.000019      0.000010      0.000010      0.000000
     1   0 0 1     -0.035488      0.004453      0.004453     -0.044394

     2   2 0 0     -8.290826     -5.195535     -5.195535      2.100244
     2   1 1 0      0.095521     -0.065243     -0.065243      0.226008
     2   1 0 1     -0.003663      0.783919      0.783919     -1.571502
     2   0 2 0     -7.003007     -5.756041     -5.756041      4.509075
     2   0 1 1     -2.150424      1.472348      1.472348     -5.095120
     2   0 0 2     -8.193099    -22.858633    -22.858633     37.524167

 *** CALLING NEW AORESP DRIVER FOR CLOSED AND OPEN SHELLS ***
 Entering AOResponse driver routine


--------------------------------------------------------------------------------

          ****************
          *** RESPONSE ***
          ****************

 Response module for NWChem and dynamic CPKS solver
 developed by J. Autschbach and coworkers, SUNY Buffalo
 The methodology used in this program is described in 
 ChemPhysChem 12 (2011), 3224-3235 (main reference)
 J. Chem. Phys. 123 (2005), 114103
 J. Chem. Phys. 122 (2005), 224115
 J. Chem. Phys. 122 (2005), 074105
 Comp. Lett. 3 (2007), 131-150 (contact JA for a copy)
 Please cite this work in publications based on results
 obtained with this code. Thank you!

 For extension of response module to open shell
 calculations please acknowledge:
 F. Aquino, Northwestern University, Schatz Rsrch Group
 The update to the methodology is described in
 J. Phys. Chem. A 118 (2014) 517-525



          -----------------------------------------------
          Solving response equations for perturbing field
          -----------------------------------------------

 number of frequencies:     1
 frequency in a.u.:  0.7731800E-01
 Perturbing field: electric
 Using GIAO formalism for OptRot
 Adding quadrupole terms to OptRot
 to create an origin in dependent tensor.
 Using El. Dipole Length Gauge

 Applying DAMPING constant of  0.100000 a.u.

 Setting up CPKS
 with frequency omega =      0.07731800 a.u.
 and a damping of            0.10000000 a.u.

  int_init: cando_txs set to always be  F

                            NWChem Dynamic CPHF Module
                            --------------------------


  int_init: cando_txs set to always be  F
    scftype = UHF 
     nalpha =    9
      nbeta =    9
  variables =     2088
  num. vecs =        3
  tolerance =   1.0D-07
  max. iter =   50

 SCF residual:    5.1341997534352720E-007


Iterative solution of linear equations
  No. of variables     1044
  No. of equations        3
  Maximum subspace       30
       Convergence  1.0D-07
        Start time      6.8


   iter   nsub   residual    time 
   ----  ------  --------  --------- 
 dft_CPHF2_read: failed to open./h2o2.aoresp_fiao_f1
     1      3    2.93D+00       9.6
     2      6    1.55D+00      13.0
     3      9    1.48D-01      15.9
     4     12    4.16D-02      18.7
     5     15    1.19D-02      21.6
     6     18    2.74D-03      24.5
     7     21    8.87D-04      27.3
     8     24    3.05D-04      30.5
     9     27    1.06D-04      33.3
    10     27    2.53D-05      36.1
    11     27    8.97D-06      39.0
    12     27    2.07D-06      41.8
    13     27    4.80D-07      45.5
    14     27    1.18D-07      48.6
    15     27    7.76D-08      51.6
  int_init: cando_txs set to always be  F

 Calculating some arrays needed for GIAO optical rotation

  int_init: cando_txs set to always be  F
    0 giaofock schwarz done =      98.82%
    0 giaofock schwarz done =      98.92%
    0 giaofock schwarz done =      98.93%
    0 giaofock schwarz done =      98.93%
    0 giaofock schwarz done =      98.93%
    0 giaofock schwarz done =      98.93%
 dip-quad polarizability Re:

              1        2        3        4        5        6      
    1   -2.7102  -0.3468   0.0573  -4.9451   5.5541  -1.4976
    2   -0.5166  -5.1926   5.8186   0.0012  -0.2357   0.5253
    3    0.1042   2.2570  -2.5404  -0.2234   0.3527  -0.2960
 traceless dip-quad polarizability:

              1        2        3      
    1    0.5111  -0.5202   0.0860
    2   -0.5202  -2.8412   8.3311
    3    0.0860   8.3311   2.3300

              1        2        3      
    1   -0.7798  -7.7889   8.7279
    2   -7.7889  -0.0031  -0.3535
    3    8.7279  -0.3535   0.7829

              1        2        3      
    1    0.3639   3.3855  -3.8106
    2    3.3855  -0.1274   0.5291
    3   -3.8106   0.5291  -0.2364

 Electric Dipole Response Matrix (nonzero elements):

              1        2        3      
    1    6.5996   0.1002  -0.3471
    2    0.1002   9.0475  -2.2666
    3   -0.3471  -2.2666  14.4543

 Imaginary part:

              1        2        3      
    1    0.1931   0.0077  -0.0256
    2    0.0077   0.3350  -0.1764
    3   -0.0256  -0.1764   0.7716

 ------------------------------------------
 average:        10.03379 + I       0.43325


 DFT Linear Response polarizability / au 
 Frequency  =       0.0773180 / au
 Wavelength =     589.2981324 / nm
              X              Y              Z
 -----------------------------------------------
 X       6.5996240      0.1002109     -0.3471380
 Y       0.1002109      9.0474909     -2.2665946
 Z      -0.3471380     -2.2665946     14.4542600
 -----------------------------------------------
 Eigenvalues =       6.5843120      8.2233888     15.2936742
 Isotropic   =      10.0337917
 Anisotropic =       8.0164986
 -----------------------------------------------
 *************************

 DFT Linear Response IMAG polarizability / au 
 Frequency  =       0.0773180 / au
 Wavelength =     589.2981324 / nm
              X              Y              Z
 -----------------------------------------------
 X       0.1931021      0.0077382     -0.0256121
 Y       0.0077382      0.3350364     -0.1764485
 Z      -0.0256121     -0.1764485      0.7716232
 -----------------------------------------------
 Eigenvalues =       0.1919704      0.2726603      0.8351310
 Isotropic   =       0.4332539
 Anisotropic =       0.6068524
 -----------------------------------------------
 *************************

 Magnetic Dipole Response Matrix (nonzero elements):
 Optical rotation tensor G' 
 (Buckingham-Dunn version including dipole-quadrupole terms)

              1        2        3      
    1    0.0487  -0.0047   0.0013
    2   -0.0047  -0.0892   0.1064
    3    0.0013   0.1064   0.0213

 Imaginary part:

              1        2        3      
    1    0.1780  -0.0102   0.0072
    2   -0.0023  -0.2168   0.0069
    3    0.0055   0.1966   0.0152

 ------------------------------------------
 average:        -0.00642 + I      -0.00786

 OR Beta:         0.08303 + I       0.10170

 Principal components and PAS (Real part)
                 -0.15399
                  0.08602
                  0.04871
 ------------------------
 average:        -0.00642

              1        2        3      
    1    0.0231  -0.0370   0.9990
    2    0.8545   0.5194  -0.0005
    3   -0.5189   0.8537   0.0437

 Chiral response tensor (Real part):

              1        2        3      
    1   -0.0340   0.0024  -0.0006
    2    0.0024   0.0350  -0.0532
    3   -0.0006  -0.0532  -0.0203

 Principal components and PAS (Real part)
                  0.06737
                 -0.05264
                 -0.03399
 ------------------------
 average:        -0.00642

              1        2        3      
    1    0.0231  -0.0370   0.9990
    2    0.8545   0.5194  -0.0005
    3   -0.5189   0.8537   0.0437
 Exiting AOResponse driver routine

 Task  times  cpu:       52.2s     wall:       58.3s


                                NWChem Input Module
                                -------------------


 Summary of allocated global arrays
-----------------------------------
  array 0 => double precision density matrix(38,38),  handle: -976 
  array 1 => double precision tmp(38,38),  handle: -973 
  array 2 => double precision tmp(38,38),  handle: -972 
  array 3 => double precision tmp(38,38),  handle: -971 



                         GA Statistics for process    0
                         ------------------------------

       create   destroy   get      put      acc     scatter   gather  read&inc
calls: 6629     6625     1.60e+06 1.98e+06 4.37e+05 7583        0      890     
number of processes/call 2.40e+11 -5.38e+11 1.29e+13 0.00e+00 0.00e+00
bytes total:             4.99e+08 1.08e+08 4.58e+08 1.52e+02 0.00e+00 7.12e+03
bytes remote:            1.40e+08 2.13e+07 2.72e+08 0.00e+00 0.00e+00 0.00e+00
Max memory consumed for GA by this process: 2715872 bytes

MA_summarize_allocated_blocks: starting scan ...
heap block 'gridpts', handle 73, address 0xeb6b9e8:
	type of elements:		double precision
	number of elements:		6291456
	address of client space:	0xeb6ba40
	index for client space:		8082535
	total number of bytes:		50331744
MA_summarize_allocated_blocks: scan completed: 1 heap block, 0 stack blocks
MA usage statistics:

	allocation statistics:
					      heap	     stack
					      ----	     -----
	current number of blocks	         1	         0
	maximum number of blocks	        22	        53
	current total bytes		  50331744	         0
	maximum total bytes		  53187776	  22512408
	maximum total K-bytes		     53188	     22513
	maximum total M-bytes		        54	        23


                                     CITATION
                                     --------
                Please cite the following reference when publishing
                           results obtained with NWChem:

                 M. Valiev, E.J. Bylaska, N. Govind, K. Kowalski,
              T.P. Straatsma, H.J.J. van Dam, D. Wang, J. Nieplocha,
                        E. Apra, T.L. Windus, W.A. de Jong
                 "NWChem: a comprehensive and scalable open-source
                  solution for large scale molecular simulations"
                      Comput. Phys. Commun. 181, 1477 (2010)
                           doi:10.1016/j.cpc.2010.04.018

                                      AUTHORS
                                      -------
          E. Apra, E. J. Bylaska, W. A. de Jong, N. Govind, K. Kowalski,
       T. P. Straatsma, M. Valiev, H. J. J. van Dam, D. Wang, T. L. Windus,
        J. Hammond, J. Autschbach, K. Bhaskaran-Nair, J. Brabec, K. Lopata,
    S. A. Fischer, S. Krishnamoorthy, M. Jacquelin, W. Ma, M. Klemm, O. Villa,
      Y. Chen, V. Anisimov, F. Aquino, S. Hirata, M. T. Hackler, V. Konjkov,
            D. Mejia-Rodriguez, T. Risthaus, M. Malagoli, A. Marenich,
   A. Otero-de-la-Roza, J. Mullin, P. Nichols, R. Peverati, J. Pittner, Y. Zhao,
        P.-D. Fan, A. Fonari, M. J. Williamson, R. J. Harrison, J. R. Rehr,
      M. Dupuis, D. Silverstein, D. M. A. Smith, J. Nieplocha, V. Tipparaju,
    M. Krishnan, B. E. Van Kuiken, A. Vazquez-Mayagoitia, L. Jensen, M. Swart,
      Q. Wu, T. Van Voorhis, A. A. Auer, M. Nooijen, L. D. Crosby, E. Brown,
      G. Cisneros, G. I. Fann, H. Fruchtl, J. Garza, K. Hirao, R. A. Kendall,
      J. A. Nichols, K. Tsemekhman, K. Wolinski, J. Anchell, D. E. Bernholdt,
      P. Borowski, T. Clark, D. Clerc, H. Dachsel, M. J. O. Deegan, K. Dyall,
    D. Elwood, E. Glendening, M. Gutowski, A. C. Hess, J. Jaffe, B. G. Johnson,
     J. Ju, R. Kobayashi, R. Kutteh, Z. Lin, R. Littlefield, X. Long, B. Meng,
      T. Nakajima, S. Niu, L. Pollack, M. Rosing, K. Glaesemann, G. Sandrone,
      M. Stave, H. Taylor, G. Thomas, J. H. van Lenthe, A. T. Wong, Z. Zhang.

 Total times  cpu:       52.2s     wall:       58.4s

Program received signal SIGABRT: Process abort signal.

Backtrace for this error:

Program received signal SIGABRT: Process abort signal.

Backtrace for this error:
#0  0x7F828F3FAE08
#1  0x7F828F3F9F90
#2  0x7F828E9094AF
#3  0x7F828E909428
#4  0x7F828E90B029
#5  0x7F828E94B7E9
#6  0x7F828E954379
#7  0x7F828E95853B
#8  0x7F829019C5A4
#9  0x7F82901458E4
#10  0x7F8290146F08
#11  0x7F82901704EE
#0  0x7FABBB37CE08
#1  0x7FABBB37BF90
#2  0x7FABBA88B4AF
#3  0x7FABBA88B428
#4  0x7FABBA88D029
#5  0x7FABBA8CD7E9
#6  0x7FABBA8D6379
#7  0x7FABBA8DA53B
#8  0x7FABACCD2477
#9  0x7FABBC0C7BA4
#10  0x7FABBC0C8F08
#11  0x7FABBC0F24EE
#12  0x2188842 in _igroup_free at groups.c:215
#13  0x2189B17 in comex_group_finalize at groups.c:518
#14  0x21847B5 in comex_finalize at comex.c:650
#12  0x2188842 in _igroup_free at groups.c:215
#13  0x2189B17 in comex_group_finalize at groups.c:518
#14  0x21847B5 in comex_finalize at comex.c:650
#15  0x2164F9C in pnga_terminate
#16  0x207ADB6 in ga_terminate_
#17  0x409957 in MAIN__ at nwchem.F:390
#15  0x2164F9C in pnga_terminate
#16  0x207ADB6 in ga_terminate_
#17  0x409957 in MAIN__ at nwchem.F:390
--------------------------------------------------------------------------
mpirun noticed that process rank 0 with PID 28817 on node lagrange exited on signal 6 (Aborted).
--------------------------------------------------------------------------
