 argument  1 = /var/lib/gitlab-runner/builds/PH7zszVW/0/edoapra/nwchem/QA/tests/mep-test/mep-test.nw
 


============================== echo of input deck ==============================
TITLE "mep test"

echo
start meptest2

GEOMETRY   noautosym
 C                    -0.63041882    -0.10565750     0.00000000
 N                     0.56689462    -0.05377250     0.00000000
 H                    -0.23798723     1.04344672     0.00000000
end

basis
* library DZVP_(DFT_Orbital)
end

task dft freq

freq
reuse meptest2.hess
end

mepgs
maxmep 30
maxiter 20
inhess 2
xyz
evib 0.0005
stride 0.1
print low
backward
end

task dft mepgs
================================================================================


                                         
                                         
 
 
              Northwest Computational Chemistry Package (NWChem) 6.8
              ------------------------------------------------------
 
 
                    Environmental Molecular Sciences Laboratory
                       Pacific Northwest National Laboratory
                                Richland, WA 99352
 
                              Copyright (c) 1994-2018
                       Pacific Northwest National Laboratory
                            Battelle Memorial Institute
 
             NWChem is an open-source computational chemistry package
                        distributed under the terms of the
                      Educational Community License (ECL) 2.0
             A copy of the license is included with this distribution
                              in the LICENSE.TXT file
 
                                  ACKNOWLEDGMENT
                                  --------------

            This software and its documentation were developed at the
            EMSL at Pacific Northwest National Laboratory, a multiprogram
            national laboratory, operated for the U.S. Department of Energy
            by Battelle under Contract Number DE-AC05-76RL01830. Support
            for this work was provided by the Department of Energy Office
            of Biological and Environmental Research, Office of Basic
            Energy Sciences, and the Office of Advanced Scientific Computing.


           Job information
           ---------------

    hostname        = durian
    program         = /var/lib/gitlab-runner/builds/PH7zszVW/0/edoapra/nwchem/bin/LINUX64/nwchem
    date            = Wed Oct  2 03:53:11 2019

    compiled        = Wed_Oct_02_00:45:30_2019
    source          = /var/lib/gitlab-runner/builds/PH7zszVW/0/edoapra/nwchem
    nwchem branch   = Development
    nwchem revision = ecda108c
    ga revision     = 5.7.0
    use scalapack   = T
    input           = /var/lib/gitlab-runner/builds/PH7zszVW/0/edoapra/nwchem/QA/tests/mep-test/mep-test.nw
    prefix          = meptest2.
    data base       = ./meptest2.db
    status          = startup
    nproc           =        3
    time left       =     -1s



           Memory information
           ------------------

    heap     =  208704538 doubles =   1592.3 Mbytes
    stack    =  208704543 doubles =   1592.3 Mbytes
    global   =  417409088 doubles =   3184.6 Mbytes (distinct from heap & stack)
    total    =  834818169 doubles =   6369.2 Mbytes
    verify   = yes
    hardfail = no 


           Directory information
           ---------------------
 
  0 permanent = .
  0 scratch   = .
 
 
 
 
                                NWChem Input Module
                                -------------------
 
 
                                     mep test
                                     --------

 Scaling coordinates for geometry "geometry" by  1.889725989
 (inverse scale =  0.529177249)


          ------
          auto-z
          ------
  no constraints, skipping   0.000000000000000E+000
  no constraints, skipping   0.000000000000000E+000
 
 
                             Geometry "geometry" -> ""
                             -------------------------
 
 Output coordinates in angstroms (scale by  1.889725989 to convert to a.u.)
 
  No.       Tag          Charge          X              Y              Z
 ---- ---------------- ---------- -------------- -------------- --------------
    1 C                    6.0000    -0.62668755    -0.10802137     0.00000000
    2 N                    7.0000     0.57062589    -0.05613637     0.00000000
    3 H                    1.0000    -0.23425596     1.04108285     0.00000000
 
      Atomic Mass 
      ----------- 
 
      C                 12.000000
      N                 14.003070
      H                  1.007825
 

 Effective nuclear repulsion energy (a.u.)      23.8823001097

            Nuclear Dipole moment (a.u.) 
            ----------------------------
        X                 Y               Z
 ---------------- ---------------- ----------------
    -0.0000000000     0.0000000000     0.0000000000
 


                                Z-matrix (autoz)
                                -------- 

 Units are Angstrom for bonds and degrees for angles
 
      Type          Name      I     J     K     L     M      Value
      ----------- --------  ----- ----- ----- ----- ----- ----------
    1 Stretch                  1     2                       1.19844
    2 Stretch                  1     3                       1.21427
    3 Bend                     2     1     3                68.66307
 
 
            XYZ format geometry
            -------------------
     3
 geometry
 C                    -0.62668755    -0.10802137     0.00000000
 N                     0.57062589    -0.05613637     0.00000000
 H                    -0.23425596     1.04108285     0.00000000
 
 ==============================================================================
                                internuclear distances
 ------------------------------------------------------------------------------
       center one      |      center two      | atomic units |  angstroms
 ------------------------------------------------------------------------------
    2 N                |   1 C                |     2.26472  |     1.19844
 ------------------------------------------------------------------------------
                         number of included internuclear distances:          1
 ==============================================================================





 Summary of "ao basis" -> "" (cartesian)
 ------------------------------------------------------------------------------
       Tag                 Description            Shells   Functions and Types
 ---------------- ------------------------------  ------  ---------------------
 *                     DZVP_(DFT_Orbital)             on all atoms 


 
 
                   NWChem Nuclear Hessian and Frequency Analysis
                   ---------------------------------------------
 
 
 
                              NWChem Analytic Hessian
                              -----------------------
 
 
                                 NWChem DFT Module
                                 -----------------
 
 
                                     mep test
 
 
                      Basis "ao basis" -> "ao basis" (cartesian)
                      -----
  C (Carbon)
  ----------
            Exponent  Coefficients 
       -------------- ---------------------------------------------------------
  1 S  2.80806450E+03  0.002018
  1 S  4.21138280E+02  0.015433
  1 S  9.55866160E+01  0.075581
  1 S  2.67390040E+01  0.247828
  1 S  8.43282680E+00  0.479372
  1 S  2.76058210E+00  0.333834
 
  2 S  5.44700450E+00 -0.077841
  2 S  4.79242200E-01  0.568956
 
  3 S  1.46156500E-01  1.000000
 
  4 P  1.81308520E+01  0.015855
  4 P  4.09988320E+00  0.095683
  4 P  1.18583700E+00  0.304912
  4 P  3.68597400E-01  0.493502
 
  5 P  1.09720000E-01  1.000000
 
  6 D  6.00000000E-01  1.000000
 
  N (Nitrogen)
  ------------
            Exponent  Coefficients 
       -------------- ---------------------------------------------------------
  1 S  3.84541490E+03  0.002019
  1 S  5.77533230E+02  0.015408
  1 S  1.31319830E+02  0.075371
  1 S  3.68237810E+01  0.248212
  1 S  1.16701150E+01  0.479827
  1 S  3.85426040E+00  0.331801
 
  2 S  7.82956110E+00 -0.077667
  2 S  6.87735100E-01  0.565460
 
  3 S  2.04038800E-01  1.000000
 
  4 P  2.68098410E+01  0.015466
  4 P  6.06815400E+00  0.096440
  4 P  1.76762560E+00  0.308361
  4 P  5.46672700E-01  0.491160
 
  5 P  1.58728900E-01  1.000000
 
  6 D  7.00000000E-01  1.000000
 
  H (Hydrogen)
  ------------
            Exponent  Coefficients 
       -------------- ---------------------------------------------------------
  1 S  5.09991780E+01  0.009660
  1 S  7.48321810E+00  0.073729
  1 S  1.77746760E+00  0.295858
  1 S  5.19329500E-01  0.715905
 
  2 S  1.54110000E-01  1.000000
 


 Summary of "ao basis" -> "ao basis" (cartesian)
 ------------------------------------------------------------------------------
       Tag                 Description            Shells   Functions and Types
 ---------------- ------------------------------  ------  ---------------------
 C                     DZVP (DFT Orbital)            6       15   3s2p1d
 N                     DZVP (DFT Orbital)            6       15   3s2p1d
 H                     DZVP (DFT Orbital)            2        2   2s




 Summary of "ao basis" -> "ao basis" (cartesian)
 ------------------------------------------------------------------------------
       Tag                 Description            Shells   Functions and Types
 ---------------- ------------------------------  ------  ---------------------
 C                     DZVP (DFT Orbital)            6       15   3s2p1d
 N                     DZVP (DFT Orbital)            6       15   3s2p1d
 H                     DZVP (DFT Orbital)            2        2   2s


  Caching 1-el integrals 
 
            General Information
            -------------------
          SCF calculation type: DFT
          Wavefunction type:  closed shell.
          No. of atoms     :     3
          No. of electrons :    14
           Alpha electrons :     7
            Beta electrons :     7
          Charge           :     0
          Spin multiplicity:     1
          Use of symmetry is: off; symmetry adaption is: off
          Maximum number of iterations:  30
          AO basis - number of functions:    32
                     number of shells:    14
          Convergence on energy requested:  1.00D-07
          Convergence on density requested:  1.00D-05
          Convergence on gradient requested:  1.00D-06
 
              XC Information
              --------------
                        Slater Exchange Functional  1.000 local    
                      VWN V Correlation Functional  1.000 local    
 
             Grid Information
             ----------------
          Grid used for XC integration:  fine      
          Radial quadrature: Mura-Knowles        
          Angular quadrature: Lebedev. 
          Tag              B.-S. Rad. Rad. Pts. Rad. Cut. Ang. Pts.
          ---              ---------- --------- --------- ---------
          C                   0.70       70           8.0       590
          N                   0.65       70           8.0       590
          H                   0.35       60           8.0       590
          Grid pruning is: on 
          Number of quadrature shells:   200
          Spatial weights used:  Erf1
 
          Convergence Information
          -----------------------
          Convergence aids based upon iterative change in 
          total energy or number of iterations. 
          Levelshifting, if invoked, occurs when the 
          HOMO/LUMO gap drops below (HL_TOL):  1.00D-02
          DIIS, if invoked, will attempt to extrapolate 
          using up to (NFOCK): 10 stored Fock matrices.

                    Damping( 0%)  Levelshifting(0.5)       DIIS
                  --------------- ------------------- ---------------
          dE  on:    start            ASAP                start   
          dE off:    2 iters         30 iters            30 iters 

 
      Screening Tolerance Information
      -------------------------------
          Density screening/tol_rho:  1.00D-11
          AO Gaussian exp screening on grid/accAOfunc:  16
          CD Gaussian exp screening on grid/accCDfunc:  20
          XC Gaussian exp screening on grid/accXCfunc:  20
          Schwarz screening/accCoul:  1.00D-12

 
      Superposition of Atomic Density Guess
      -------------------------------------
 
 Sum of atomic energies:         -92.45488911
 
      Non-variational initial energy
      ------------------------------

 Total energy =     -93.059701
 1-e energy   =    -171.439093
 2-e energy   =      54.497092
 HOMO         =      -0.338278
 LUMO         =      -0.024827
 
   Time after variat. SCF:      0.1
   Time prior to 1st pass:      0.1

 Grid_pts file          = ./meptest2.gridpts.0
 Record size in doubles =  12289        No. of grid_pts per rec  =   3070
 Max. records in memory =     16        Max. recs in file   = 337750284

 Grid integrated density:      14.000000153486
 Requested integration accuracy:   0.10E-13

           Memory utilization after 1st SCF pass: 
           Heap Space remaining (MW):      125.08           125082906
          Stack Space remaining (MW):      208.70           208704228

   convergence    iter        energy       DeltaE   RMS-Dens  Diis-err    time
 ---------------- ----- ----------------- --------- --------- ---------  ------
 d= 0,ls=0.0,diis     1    -92.5215003798 -1.16D+02  2.17D-02  4.51D-01     0.2
 Grid integrated density:      14.000000135201
 Requested integration accuracy:   0.10E-13
 d= 0,ls=0.0,diis     2    -92.4882494426  3.33D-02  2.26D-02  5.52D-01     0.2
 Grid integrated density:      14.000000175658
 Requested integration accuracy:   0.10E-13
 d= 0,ls=0.0,diis     3    -92.4877541152  4.95D-04  1.34D-02  5.85D-01     0.3
 Grid integrated density:      14.000000146239
 Requested integration accuracy:   0.10E-13
 d= 0,ls=0.0,diis     4    -92.5515986498 -6.38D-02  3.03D-03  1.10D-02     0.3
 Grid integrated density:      14.000000150018
 Requested integration accuracy:   0.10E-13
 d= 0,ls=0.0,diis     5    -92.5533503083 -1.75D-03  4.93D-04  2.32D-04     0.4
 Grid integrated density:      14.000000148983
 Requested integration accuracy:   0.10E-13
  Resetting Diis
 d= 0,ls=0.0,diis     6    -92.5533812495 -3.09D-05  1.47D-04  2.62D-05     0.4
 Grid integrated density:      14.000000149051
 Requested integration accuracy:   0.10E-13
 d= 0,ls=0.0,diis     7    -92.5533851031 -3.85D-06  2.99D-05  2.92D-07     0.5
 Grid integrated density:      14.000000149132
 Requested integration accuracy:   0.10E-13
 d= 0,ls=0.0,diis     8    -92.5533850686  3.45D-08  1.78D-05  7.11D-07     0.5
 Grid integrated density:      14.000000149081
 Requested integration accuracy:   0.10E-13
 d= 0,ls=0.0,diis     9    -92.5533851298 -6.12D-08  9.68D-06  2.15D-07     0.5


         Total DFT energy =      -92.553385129796
      One electron energy =     -172.334230656863
           Coulomb energy =       67.570365376067
    Exchange-Corr. energy =      -11.671819958696
 Nuclear repulsion energy =       23.882300109696

 Numeric. integr. density =       14.000000149081

     Total iterative time =      0.4s


 
                       DFT Final Molecular Orbital Analysis
                       ------------------------------------
 
 Vector    1  Occ=2.000000D+00  E=-1.394685D+01
              MO Center=  5.7D-01, -5.6D-02, -1.7D-13, r^2= 2.0D-02
   Bfn.  Coefficient  Atom+Function         Bfn.  Coefficient  Atom+Function  
  ----- ------------  ---------------      ----- ------------  ---------------
    16      0.997877  2 N  s          
 
 Vector    2  Occ=2.000000D+00  E=-9.873680D+00
              MO Center= -6.3D-01, -1.1D-01,  1.8D-15, r^2= 2.8D-02
   Bfn.  Coefficient  Atom+Function         Bfn.  Coefficient  Atom+Function  
  ----- ------------  ---------------      ----- ------------  ---------------
     1      0.997744  1 C  s          
 
 Vector    3  Occ=2.000000D+00  E=-9.118413D-01
              MO Center=  7.4D-02,  6.4D-02,  4.6D-11, r^2= 5.6D-01
   Bfn.  Coefficient  Atom+Function         Bfn.  Coefficient  Atom+Function  
  ----- ------------  ---------------      ----- ------------  ---------------
    17      0.379860  2 N  s                  2      0.273232  1 C  s          
     4      0.230041  1 C  px                19     -0.217149  2 N  px         
    18      0.208172  2 N  s                 16     -0.186858  2 N  s          
     1     -0.147891  1 C  s                  3      0.130924  1 C  s          
    31      0.119876  3 H  s                  5      0.065288  1 C  py         
 
 Vector    4  Occ=2.000000D+00  E=-4.828937D-01
              MO Center= -1.6D-02,  1.6D-01,  2.9D-11, r^2= 1.2D+00
   Bfn.  Coefficient  Atom+Function         Bfn.  Coefficient  Atom+Function  
  ----- ------------  ---------------      ----- ------------  ---------------
     5      0.365622  1 C  py                20      0.356596  2 N  py         
    31      0.274017  3 H  s                 17     -0.234170  2 N  s          
    18     -0.233854  2 N  s                 32      0.169762  3 H  s          
     4     -0.130006  1 C  px                16      0.103591  2 N  s          
    23      0.096894  2 N  py                 2      0.084980  1 C  s          
 
 Vector    5  Occ=2.000000D+00  E=-4.103846D-01
              MO Center=  3.6D-01, -4.1D-03,  1.4D-11, r^2= 1.2D+00
   Bfn.  Coefficient  Atom+Function         Bfn.  Coefficient  Atom+Function  
  ----- ------------  ---------------      ----- ------------  ---------------
    18      0.426731  2 N  s                 19      0.395431  2 N  px         
     2     -0.332974  1 C  s                  3     -0.321527  1 C  s          
    17      0.265098  2 N  s                 20      0.245734  2 N  py         
     1      0.149517  1 C  s                  5      0.128927  1 C  py         
    16     -0.124138  2 N  s                 22      0.115222  2 N  px         
 
 Vector    6  Occ=2.000000D+00  E=-3.574263D-01
              MO Center=  1.1D-01, -6.4D-02, -4.3D-11, r^2= 1.1D+00
   Bfn.  Coefficient  Atom+Function         Bfn.  Coefficient  Atom+Function  
  ----- ------------  ---------------      ----- ------------  ---------------
    21      0.557616  2 N  pz                 6      0.440783  1 C  pz         
    24      0.222477  2 N  pz                 9      0.112840  1 C  pz         
    12      0.071389  1 C  dxz               27     -0.059673  2 N  dxz        
    14      0.026435  1 C  dyz        
 
 Vector    7  Occ=2.000000D+00  E=-2.980199D-01
              MO Center= -4.6D-01, -1.4D-01, -2.9D-11, r^2= 1.5D+00
   Bfn.  Coefficient  Atom+Function         Bfn.  Coefficient  Atom+Function  
  ----- ------------  ---------------      ----- ------------  ---------------
     4     -0.501064  1 C  px                 3      0.459113  1 C  s          
    19      0.426947  2 N  px                 2      0.204217  1 C  s          
    22      0.174540  2 N  px                32      0.128953  3 H  s          
    20     -0.125394  2 N  py                 1     -0.098177  1 C  s          
     7     -0.096319  1 C  px                23     -0.081706  2 N  py         
 
 Vector    8  Occ=0.000000D+00  E=-1.066205D-01
              MO Center=  1.0D-02,  6.3D-02,  1.6D-13, r^2= 1.7D+00
   Bfn.  Coefficient  Atom+Function         Bfn.  Coefficient  Atom+Function  
  ----- ------------  ---------------      ----- ------------  ---------------
    20      0.629919  2 N  py                23      0.537733  2 N  py         
    32     -0.474398  3 H  s                  5     -0.376455  1 C  py         
     8     -0.289275  1 C  py                 3      0.241339  1 C  s          
    31     -0.207031  3 H  s                 18      0.185330  2 N  s          
     2      0.112079  1 C  s                  4     -0.086383  1 C  px         
 
 Vector    9  Occ=0.000000D+00  E=-4.907696D-02
              MO Center= -2.6D-01, -8.4D-02, -7.7D-12, r^2= 1.7D+00
   Bfn.  Coefficient  Atom+Function         Bfn.  Coefficient  Atom+Function  
  ----- ------------  ---------------      ----- ------------  ---------------
     6      0.616577  1 C  pz                 9      0.573498  1 C  pz         
    21     -0.526356  2 N  pz                24     -0.490843  2 N  pz         
    12     -0.032165  1 C  dxz               27     -0.026874  2 N  dxz        
 
 Vector   10  Occ=0.000000D+00  E= 1.538110D-02
              MO Center= -3.7D-01,  5.1D-01, -9.5D-12, r^2= 2.3D+00
   Bfn.  Coefficient  Atom+Function         Bfn.  Coefficient  Atom+Function  
  ----- ------------  ---------------      ----- ------------  ---------------
    32      1.537795  3 H  s                  8     -0.772970  1 C  py         
     5     -0.587393  1 C  py                 3     -0.539891  1 C  s          
    18     -0.430591  2 N  s                 31      0.223093  3 H  s          
     2     -0.154497  1 C  s                  7      0.150941  1 C  px         
    17     -0.135935  2 N  s                  4      0.094519  1 C  px         
 
 Vector   11  Occ=0.000000D+00  E= 1.717907D-01
              MO Center= -1.0D+00, -6.0D-02, -3.7D-11, r^2= 4.4D+00
   Bfn.  Coefficient  Atom+Function         Bfn.  Coefficient  Atom+Function  
  ----- ------------  ---------------      ----- ------------  ---------------
     3      2.193141  1 C  s                 18     -2.021767  2 N  s          
     7      1.903596  1 C  px                32     -0.934100  3 H  s          
    22      0.684530  2 N  px                 8      0.245892  1 C  py         
    23      0.195052  2 N  py                 5      0.182531  1 C  py         
     2      0.151049  1 C  s                 16      0.098039  2 N  s          
 
 Vector   12  Occ=0.000000D+00  E= 2.353131D-01
              MO Center= -7.5D-01, -6.1D-01,  2.4D-13, r^2= 3.1D+00
   Bfn.  Coefficient  Atom+Function         Bfn.  Coefficient  Atom+Function  
  ----- ------------  ---------------      ----- ------------  ---------------
     8      1.451786  1 C  py                 3      0.815908  1 C  s          
     5     -0.697549  1 C  py                32     -0.678059  3 H  s          
     7      0.420114  1 C  px                18     -0.411516  2 N  s          
    31     -0.170152  3 H  s                 22      0.121528  2 N  px         
    26      0.097853  2 N  dxy               23      0.080956  2 N  py         
 
 Vector   13  Occ=0.000000D+00  E= 2.539959D-01
              MO Center= -6.1D-01, -1.1D-01, -1.0D-11, r^2= 3.1D+00
   Bfn.  Coefficient  Atom+Function         Bfn.  Coefficient  Atom+Function  
  ----- ------------  ---------------      ----- ------------  ---------------
     9      1.097239  1 C  pz                 6     -0.832206  1 C  pz         
    21     -0.128407  2 N  pz                27      0.096659  2 N  dxz        
    12     -0.046693  1 C  dxz        
 
 Vector   14  Occ=0.000000D+00  E= 3.426987D-01
              MO Center=  7.9D-01, -3.2D-02,  1.1D-11, r^2= 3.2D+00
   Bfn.  Coefficient  Atom+Function         Bfn.  Coefficient  Atom+Function  
  ----- ------------  ---------------      ----- ------------  ---------------
    22      1.658646  2 N  px                 3      1.586832  1 C  s          
    18     -1.076715  2 N  s                  4      0.540189  1 C  px         
    19     -0.426617  2 N  px                32      0.355774  3 H  s          
    31     -0.209620  3 H  s                 17     -0.124245  2 N  s          
    23     -0.116155  2 N  py                 5      0.102455  1 C  py         
 
 Vector   15  Occ=0.000000D+00  E= 4.400353D-01
              MO Center=  2.5D-01, -1.4D-02, -1.4D-11, r^2= 2.8D+00
   Bfn.  Coefficient  Atom+Function         Bfn.  Coefficient  Atom+Function  
  ----- ------------  ---------------      ----- ------------  ---------------
    23      1.184035  2 N  py                 3     -0.985812  1 C  s          
     8     -0.746744  1 C  py                20     -0.712149  2 N  py         
     2      0.678573  1 C  s                 22      0.349532  2 N  px         
     7     -0.283415  1 C  px                18      0.264530  2 N  s          
    31      0.223235  3 H  s                 13      0.148871  1 C  dyy        
 
 Vector   16  Occ=0.000000D+00  E= 4.750506D-01
              MO Center=  4.8D-01, -5.9D-02,  1.3D-10, r^2= 2.8D+00
   Bfn.  Coefficient  Atom+Function         Bfn.  Coefficient  Atom+Function  
  ----- ------------  ---------------      ----- ------------  ---------------
    24      1.490212  2 N  pz                 9     -0.891572  1 C  pz         
    21     -0.847653  2 N  pz                 6      0.195249  1 C  pz         
    12     -0.130605  1 C  dxz        
 
 Vector   17  Occ=0.000000D+00  E= 5.032118D-01
              MO Center= -2.9D-02, -8.0D-02, -1.8D-11, r^2= 2.6D+00
   Bfn.  Coefficient  Atom+Function         Bfn.  Coefficient  Atom+Function  
  ----- ------------  ---------------      ----- ------------  ---------------
     3      2.163638  1 C  s                  2     -1.055856  1 C  s          
    23      1.034568  2 N  py                32     -0.942859  3 H  s          
     7      0.448423  1 C  px                20     -0.445335  2 N  py         
    22     -0.393215  2 N  px                31     -0.318668  3 H  s          
    13     -0.285279  1 C  dyy                5      0.256307  1 C  py         
 
 Vector   18  Occ=0.000000D+00  E= 5.597777D-01
              MO Center= -2.2D-01,  1.3D-01, -3.0D-11, r^2= 1.6D+00
   Bfn.  Coefficient  Atom+Function         Bfn.  Coefficient  Atom+Function  
  ----- ------------  ---------------      ----- ------------  ---------------
    32      1.213814  3 H  s                  3     -0.996486  1 C  s          
     4     -0.818078  1 C  px                19     -0.613343  2 N  px         
     8     -0.510205  1 C  py                31     -0.454362  3 H  s          
    10      0.305832  1 C  dxx               17      0.267489  2 N  s          
     7      0.197736  1 C  px                25     -0.182274  2 N  dxx        
 
 Vector   19  Occ=0.000000D+00  E= 6.972663D-01
              MO Center= -1.3D-01,  6.1D-01, -8.4D-12, r^2= 2.2D+00
   Bfn.  Coefficient  Atom+Function         Bfn.  Coefficient  Atom+Function  
  ----- ------------  ---------------      ----- ------------  ---------------
    32      2.184817  3 H  s                  3     -1.347501  1 C  s          
    18     -1.114310  2 N  s                 31     -0.894434  3 H  s          
     8     -0.859856  1 C  py                 2      0.756552  1 C  s          
    19      0.417323  2 N  px                17      0.405954  2 N  s          
     5      0.303469  1 C  py                 4      0.296827  1 C  px         
 
 Vector   20  Occ=0.000000D+00  E= 1.022569D+00
              MO Center= -1.7D-02, -1.3D-01, -1.3D-11, r^2= 3.1D+00
   Bfn.  Coefficient  Atom+Function         Bfn.  Coefficient  Atom+Function  
  ----- ------------  ---------------      ----- ------------  ---------------
    18      5.588603  2 N  s                  3     -4.279404  1 C  s          
     7     -1.782881  1 C  px                17     -1.760922  2 N  s          
    22     -1.421765  2 N  px                32      0.722651  3 H  s          
     2      0.594929  1 C  s                 25     -0.426110  2 N  dxx        
    28     -0.352833  2 N  dyy                8     -0.316742  1 C  py         
 
 Vector   21  Occ=0.000000D+00  E= 1.058035D+00
              MO Center= -3.3D-01, -1.1D-01,  4.0D-12, r^2= 1.0D+00
   Bfn.  Coefficient  Atom+Function         Bfn.  Coefficient  Atom+Function  
  ----- ------------  ---------------      ----- ------------  ---------------
    14      1.437579  1 C  dyz               29      0.724631  2 N  dyz        
    27     -0.081920  2 N  dxz               12      0.050306  1 C  dxz        
     6     -0.030686  1 C  pz         
 
 Vector   22  Occ=0.000000D+00  E= 1.157205D+00
              MO Center= -2.6D-01, -7.5D-02,  1.6D-12, r^2= 1.1D+00
   Bfn.  Coefficient  Atom+Function         Bfn.  Coefficient  Atom+Function  
  ----- ------------  ---------------      ----- ------------  ---------------
    11      1.083368  1 C  dxy               26     -0.578507  2 N  dxy        
    15      0.439225  1 C  dzz               13     -0.430136  1 C  dyy        
     3     -0.400609  1 C  s                 32      0.368578  3 H  s          
    28     -0.238691  2 N  dyy               20     -0.212962  2 N  py         
    30      0.197203  2 N  dzz                5     -0.153342  1 C  py         
 
 Vector   23  Occ=0.000000D+00  E= 1.205356D+00
              MO Center= -2.3D-01, -9.1D-02, -2.8D-12, r^2= 1.1D+00
   Bfn.  Coefficient  Atom+Function         Bfn.  Coefficient  Atom+Function  
  ----- ------------  ---------------      ----- ------------  ---------------
    12      1.334113  1 C  dxz               27     -0.739472  2 N  dxz        
    21     -0.290874  2 N  pz                 6     -0.189735  1 C  pz         
     9      0.160791  1 C  pz                29     -0.082581  2 N  dyz        
    14     -0.061486  1 C  dyz               24     -0.059820  2 N  pz         
 
 Vector   24  Occ=0.000000D+00  E= 1.528687D+00
              MO Center= -7.9D-02, -7.1D-02, -2.6D-12, r^2= 1.3D+00
   Bfn.  Coefficient  Atom+Function         Bfn.  Coefficient  Atom+Function  
  ----- ------------  ---------------      ----- ------------  ---------------
    15     -0.717010  1 C  dzz               13      0.707563  1 C  dyy        
    28     -0.659800  2 N  dyy               30      0.586316  2 N  dzz        
    18      0.473687  2 N  s                 31     -0.442557  3 H  s          
    11      0.362122  1 C  dxy                3     -0.209512  1 C  s          
    22     -0.210389  2 N  px                17     -0.159877  2 N  s          
 
 Vector   25  Occ=0.000000D+00  E= 1.531094D+00
              MO Center=  1.2D-01,  1.2D-01, -8.0D-13, r^2= 1.3D+00
   Bfn.  Coefficient  Atom+Function         Bfn.  Coefficient  Atom+Function  
  ----- ------------  ---------------      ----- ------------  ---------------
    31      0.874578  3 H  s                 11     -0.700544  1 C  dxy        
    30      0.608533  2 N  dzz               28     -0.566104  2 N  dyy        
    26      0.519273  2 N  dxy               18     -0.465935  2 N  s          
    15      0.442531  1 C  dzz               17      0.332880  2 N  s          
    13     -0.325098  1 C  dyy               22      0.316807  2 N  px         
 
 Vector   26  Occ=0.000000D+00  E= 1.539838D+00
              MO Center=  2.7D-01, -7.5D-02,  1.5D-12, r^2= 1.1D+00
   Bfn.  Coefficient  Atom+Function         Bfn.  Coefficient  Atom+Function  
  ----- ------------  ---------------      ----- ------------  ---------------
    29      1.602972  2 N  dyz               14     -1.019492  1 C  dyz        
    27     -0.097225  2 N  dxz        
 
 Vector   27  Occ=0.000000D+00  E= 1.816591D+00
              MO Center= -3.1D-01, -1.0D-01, -1.5D-12, r^2= 1.4D+00
   Bfn.  Coefficient  Atom+Function         Bfn.  Coefficient  Atom+Function  
  ----- ------------  ---------------      ----- ------------  ---------------
    18     -1.021412  2 N  s                 17      0.999671  2 N  s          
    10     -0.861344  1 C  dxx               15      0.825007  1 C  dzz        
    13      0.773303  1 C  dyy               22      0.751172  2 N  px         
    19     -0.628018  2 N  px                32      0.393322  3 H  s          
    30      0.364429  2 N  dzz               28      0.359358  2 N  dyy        
 
 Vector   28  Occ=0.000000D+00  E= 2.032794D+00
              MO Center=  1.3D-01, -7.9D-02,  1.2D-13, r^2= 1.4D+00
   Bfn.  Coefficient  Atom+Function         Bfn.  Coefficient  Atom+Function  
  ----- ------------  ---------------      ----- ------------  ---------------
    26      2.031776  2 N  dxy               11      1.788954  1 C  dxy        
    23     -0.463981  2 N  py                 5      0.461532  1 C  py         
     8      0.262478  1 C  py                20     -0.258754  2 N  py         
    18      0.103060  2 N  s                 28      0.103480  2 N  dyy        
    10     -0.096732  1 C  dxx               25     -0.093371  2 N  dxx        
 
 Vector   29  Occ=0.000000D+00  E= 2.061952D+00
              MO Center=  1.5D-01, -7.5D-02,  3.0D-13, r^2= 1.4D+00
   Bfn.  Coefficient  Atom+Function         Bfn.  Coefficient  Atom+Function  
  ----- ------------  ---------------      ----- ------------  ---------------
    27      2.049591  2 N  dxz               12      1.772110  1 C  dxz        
    24     -0.461355  2 N  pz                 6      0.458192  1 C  pz         
     9      0.284135  1 C  pz                21     -0.258934  2 N  pz         
    29      0.110415  2 N  dyz               14      0.056361  1 C  dyz        
 
 Vector   30  Occ=0.000000D+00  E= 2.223223D+00
              MO Center=  4.3D-01, -6.9D-02,  2.5D-12, r^2= 1.2D+00
   Bfn.  Coefficient  Atom+Function         Bfn.  Coefficient  Atom+Function  
  ----- ------------  ---------------      ----- ------------  ---------------
    18      2.281775  2 N  s                  4     -1.427681  1 C  px         
    25      1.271156  2 N  dxx                3     -1.074527  1 C  s          
     2     -1.065928  1 C  s                 22     -1.040019  2 N  px         
    10     -0.976434  1 C  dxx               19     -0.973313  2 N  px         
    30     -0.726779  2 N  dzz               28     -0.649239  2 N  dyy        
 
 Vector   31  Occ=0.000000D+00  E= 2.677694D+00
              MO Center= -6.2D-01, -8.6D-02,  3.0D-13, r^2= 1.1D+00
   Bfn.  Coefficient  Atom+Function         Bfn.  Coefficient  Atom+Function  
  ----- ------------  ---------------      ----- ------------  ---------------
     3      2.039738  1 C  s                  2      1.738279  1 C  s          
    10     -1.686820  1 C  dxx               13     -1.304337  1 C  dyy        
    15     -1.279439  1 C  dzz               32     -0.839266  3 H  s          
    17      0.718158  2 N  s                  1     -0.457533  1 C  s          
    19     -0.334153  2 N  px                31      0.325437  3 H  s          
 
 Vector   32  Occ=0.000000D+00  E= 3.279379D+00
              MO Center=  5.0D-01, -6.6D-02, -1.4D-11, r^2= 1.4D+00
   Bfn.  Coefficient  Atom+Function         Bfn.  Coefficient  Atom+Function  
  ----- ------------  ---------------      ----- ------------  ---------------
    18      4.807204  2 N  s                  3     -2.516573  1 C  s          
    25     -1.794829  2 N  dxx               30     -1.630250  2 N  dzz        
    28     -1.597694  2 N  dyy                7     -1.002331  1 C  px         
    22     -0.872429  2 N  px                10      0.739888  1 C  dxx        
    16     -0.543519  2 N  s                  4      0.468790  1 C  px         
 

 center of mass
 --------------
 x =   0.01638324 y =  -0.07227796 z =   0.00000000

 moments of inertia (a.u.)
 ------------------
           4.417305244686          -0.453374330683           0.000000000000
          -0.453374330683          33.302734433919           0.000000000000
           0.000000000000           0.000000000000          37.720039678605
 
     Multipole analysis of the density
     ---------------------------------
 
     L   x y z        total         alpha         beta         nuclear
     -   - - -        -----         -----         ----         -------
     0   0 0 0     -0.000000     -7.000000     -7.000000     14.000000
 
     1   1 0 0     -0.044494     -0.022247     -0.022247     -0.000000
     1   0 1 0      0.532315      0.266157      0.266157      0.000000
     1   0 0 1     -0.000000     -0.000000     -0.000000      0.000000
 
     2   2 0 0    -10.820527    -13.785475    -13.785475     16.750423
     2   1 1 0     -0.278653     -0.028738     -0.028738     -0.221178
     2   1 0 1     -0.000000     -0.000000     -0.000000      0.000000
     2   0 2 0     -7.186339     -5.692820     -5.692820      4.199301
     2   0 1 1      0.000000      0.000000      0.000000      0.000000
     2   0 0 2     -9.093305     -4.546653     -4.546653      0.000000
 

 HESSIAN: the one electron contributions are done in       0.0s


 HESSIAN: 2-el 1st deriv. term done in                     0.2s


 HESSIAN: 2-el 2nd deriv. term done in                     0.3s

  stpr_wrt_fd_from_sq: overwrite of existing file:./meptest2.hess
 stpr_wrt_fd_dipole: overwrite of existing file./meptest2.fd_ddipole

 HESSIAN: the two electron contributions are done in       0.7s

                                NWChem CPHF Module
                                ------------------
 
 
  scftype          =     RHF 
  nclosed          =        7
  nopen            =        0
  variables        =      175
  # of vectors     =        9
  tolerance        = 0.10D-03
  level shift      = 0.00D+00
  max iterations   =       50
  max subspace     =       90

 Grid integrated density:      14.000000149094
 Requested integration accuracy:   0.10E-13
 SCF residual:   9.421020390244481E-005


Iterative solution of linear equations
  No. of variables      175
  No. of equations        9
  Maximum subspace       90
        Iterations       50
       Convergence  1.0D-04
        Start time      1.5


   iter   nsub   residual    time
   ----  ------  --------  ---------
     1      9    4.44D-01       1.8
     2     18    2.47D-01       2.1
     3     27    7.16D-03       2.3
     4     36    1.99D-04       2.5
     5     45    5.51D-06       2.7
 HESSIAN: the CPHF contributions are done
  stpr_wrt_fd_from_sq: overwrite of existing file:./meptest2.hess
 stpr_wrt_fd_dipole: overwrite of existing file./meptest2.fd_ddipole

 Derivative Dipole

  
  
 X vector of derivative dipole (au) [debye/angstrom]
 d_dipole_x/<atom=   1,x> =    -0.0567     [   -0.2725]
 d_dipole_x/<atom=   1,y> =     0.0258     [    0.1240]
 d_dipole_x/<atom=   1,z> =     0.0000     [    0.0000]
 d_dipole_x/<atom=   2,x> =    -0.2487     [   -1.1946]
 d_dipole_x/<atom=   2,y> =     0.0826     [    0.3967]
 d_dipole_x/<atom=   2,z> =     0.0000     [    0.0000]
 d_dipole_x/<atom=   3,x> =     0.3054     [    1.4671]
 d_dipole_x/<atom=   3,y> =    -0.1084     [   -0.5207]
 d_dipole_x/<atom=   3,z> =    -0.0000     [   -0.0000]
  
 Y vector of derivative dipole (au) [debye/angstrom]
 d_dipole_y/<atom=   1,x> =     0.2008     [    0.9645]
 d_dipole_y/<atom=   1,y> =    -0.2551     [   -1.2251]
 d_dipole_y/<atom=   1,z> =    -0.0000     [   -0.0000]
 d_dipole_y/<atom=   2,x> =    -0.2442     [   -1.1729]
 d_dipole_y/<atom=   2,y> =    -0.1074     [   -0.5159]
 d_dipole_y/<atom=   2,z> =     0.0000     [    0.0000]
 d_dipole_y/<atom=   3,x> =     0.0434     [    0.2084]
 d_dipole_y/<atom=   3,y> =     0.3625     [    1.7411]
 d_dipole_y/<atom=   3,z> =     0.0000     [    0.0000]
  
 Z vector of derivative dipole (au) [debye/angstrom]
 d_dipole_z/<atom=   1,x> =    -0.0000     [   -0.0000]
 d_dipole_z/<atom=   1,y> =     0.0000     [    0.0000]
 d_dipole_z/<atom=   1,z> =    -0.1482     [   -0.7119]
 d_dipole_z/<atom=   2,x> =     0.0000     [    0.0000]
 d_dipole_z/<atom=   2,y> =    -0.0000     [   -0.0000]
 d_dipole_z/<atom=   2,z> =    -0.1015     [   -0.4876]
 d_dipole_z/<atom=   3,x> =     0.0000     [    0.0000]
 d_dipole_z/<atom=   3,y> =     0.0000     [    0.0000]
 d_dipole_z/<atom=   3,z> =     0.2497     [    1.1996]
  
  
 HESSIAN: the Hessian is done
 
 
  Vibrational analysis via the FX method 
 
  See chapter 2 in "Molecular Vibrations" by Wilson, Decius and Cross
 
  Vib: Default input used 
 
  Nuclear Hessian passed symmetry test 
 


 ---------------------------- Atom information ----------------------------
     atom    #        X              Y              Z            mass
 --------------------------------------------------------------------------
    C        1 -1.1842677D+00 -2.0413080D-01  0.0000000D+00  1.2000000D+01
    N        2  1.0783266D+00 -1.0608236D-01  0.0000000D+00  1.4003070D+01
    H        3 -4.4267957D-01  1.9673613D+00  0.0000000D+00  1.0078250D+00
 --------------------------------------------------------------------------




          ----------------------------------------------------
          MASS-WEIGHTED NUCLEAR HESSIAN (Hartree/Bohr/Bohr/Kamu)
          ----------------------------------------------------


               1            2            3            4            5            6            7            8            9
   ----- ----- ----- ----- -----
    1    7.97229D+01
    2    1.37703D+00  8.65776D+00
    3   -6.38303D-08 -2.99561D-08 -1.51310D-03
    4   -7.74752D+01 -2.73989D+00 -7.19902D-09  7.26634D+01
    5    8.72273D-01  5.82462D+00  1.62489D-08  2.10138D+00 -1.39015D+00
    6   -5.89905D-09  1.14211D-08  1.38245D-03  4.79419D-07  8.82070D-07 -1.17370D-03
    7    1.36955D+01  5.46159D+00 -1.05662D-07 -3.51549D+00 -1.08429D+01  1.23043D-08 -3.41541D+01
    8   -8.00302D+00 -5.15860D+01 -2.58401D-08  1.62162D+00 -1.49168D+01 -6.75029D-09  2.15709D+01  2.33607D+02
    9    2.27816D-07  1.07060D-07  1.26044D-04 -2.51939D-07  3.46654D-08 -4.47897D-04  1.46516D-07 -4.97597D-07  1.23715D-03



          -------------------------------------------------
          NORMAL MODE EIGENVECTORS IN CARTESIAN COORDINATES
          -------------------------------------------------
                 (Frequencies expressed in cm-1)

                    1           2           3           4           5           6
 
 Frequency      -1065.94       -8.56       -7.43       -0.82        0.09        0.64
 
           1     0.04805     0.00003     0.02508    -0.15113     0.00447     0.11829
           2     0.06646    -0.00006    -0.19582     0.11548     0.00430     0.15342
           3    -0.00000     0.21350    -0.00015    -0.00097    -0.19350     0.00605
           4     0.02458     0.00002     0.00912    -0.15139     0.00448     0.11845
           5    -0.06453     0.00011     0.17251     0.12136     0.00407     0.14971
           6     0.00000    -0.17797     0.00004    -0.00095    -0.19144     0.00605
           7    -0.91367    -0.00014    -0.32844    -0.15678     0.00468     0.12185
           8     0.10531    -0.00001    -0.07510     0.11741     0.00422     0.15221
           9     0.00000    -0.09721     0.00006    -0.00092    -0.19036     0.00612

                    7           8           9
 
 Frequency          5.92     2018.78     2559.31
 
           1     0.00001    -0.20796    -0.01713
           2     0.00001     0.00017    -0.06064
           3     0.01657     0.00000    -0.00000
           4     0.00001     0.18347     0.00971
           5     0.00003     0.00439    -0.01761
           6     0.05528     0.00000    -0.00000
           7    -0.00001    -0.07307     0.06909
           8     0.00002    -0.06301     0.96673
           9    -0.97289    -0.00000    -0.00000



 ----------------------------------------------------------------------------
 Normal Eigenvalue ||         Derivative Dipole Moments (debye/angs)
  Mode   [cm**-1]  ||      [d/dqX]             [d/dqY]           [d/dqZ]
 ------ ---------- || ------------------ ------------------ -----------------
    1    -1065.938 ||      -1.455              -0.038            -0.000
    2       -8.563 ||      -0.000              -0.000            -0.182
    3       -7.428 ||      -0.416              -0.035             0.000
    4       -0.817 ||      -0.007              -0.001             0.000
    5        0.091 ||      -0.000              -0.000            -0.003
    6        0.638 ||       0.004               0.000             0.000
    7        5.916 ||       0.000               0.000             1.206
    8     2018.781 ||      -0.235              -0.543             0.000
    9     2559.305 ||      -0.423               1.753             0.000
 ----------------------------------------------------------------------------



  
  
 ----------------------------------------------------------------------------
 Normal Eigenvalue ||                 Infra Red Intensities
  Mode   [cm**-1]  || [atomic units] [(debye/angs)**2] [(KM/mol)] [arbitrary]
 ------ ---------- || -------------- ----------------- ---------- -----------
    1    -1065.938 ||    0.091835           2.119        89.526      25.827
    2       -8.563 ||    0.001433           0.033         1.397       0.403
    3       -7.428 ||    0.007565           0.175         7.375       2.128
    4       -0.817 ||    0.000002           0.000         0.002       0.001
    5        0.091 ||    0.000000           0.000         0.000       0.000
    6        0.638 ||    0.000001           0.000         0.001       0.000
    7        5.916 ||    0.063022           1.454        61.437      17.724
    8     2018.781 ||    0.015186           0.350        14.804       4.271
    9     2559.305 ||    0.140975           3.252       137.429      39.647
 ----------------------------------------------------------------------------



 
 
        Vibrational analysis via the FX method 
  --- with translations and rotations projected out ---
  --- via the Eckart algorithm                      ---
 Projected Nuclear Hessian trans-rot subspace norm:9.5543D-33
                         (should be close to zero!) 

          --------------------------------------------------------
          MASS-WEIGHTED PROJECTED HESSIAN (Hartree/Bohr/Bohr/Kamu)
          --------------------------------------------------------


               1            2            3            4            5            6            7            8            9
   ----- ----- ----- ----- -----
    1    7.97230D+01
    2    1.37665D+00  8.65857D+00
    3    7.32400D-23  6.46235D-24  0.00000D+00
    4   -7.74753D+01 -2.73999D+00 -3.29027D-23  7.26631D+01
    5    8.72615D-01  5.82379D+00 -6.97937D-23  2.10138D+00 -1.38932D+00
    6    1.27623D-22  1.59528D-23  2.61371D-19 -5.90714D-23  0.00000D+00  0.00000D+00
    7    1.36957D+01  5.46305D+00 -1.78393D-22 -3.51431D+00 -1.08440D+01 -1.75463D-22 -3.41589D+01
    8   -8.00299D+00 -5.15857D+01  2.30425D-22  1.62179D+00 -1.49170D+01  2.04707D-22  2.15701D+01  2.33606D+02
    9    2.24850D-22  4.27401D-23 -1.52229D-20 -9.80530D-23 -9.63328D-23  0.00000D+00 -3.07784D-22  1.79541D-22  0.00000D+00

 center of mass
 --------------
 x =   0.01638324 y =  -0.07227796 z =   0.00000000

 moments of inertia (a.u.)
 ------------------
           4.417305244686          -0.453374330683           0.000000000000
          -0.453374330683          33.302734433919           0.000000000000
           0.000000000000           0.000000000000          37.720039678605

 Rotational Constants
 --------------------
 A=  13.650242 cm-1  ( 19.639215 K)
 B=   1.807279 cm-1  (  2.600213 K)
 C=   1.595973 cm-1  (  2.296198 K)


 Temperature                      =   298.15K
 frequency scaling parameter      =   1.0000

 Zero-Point correction to Energy  =    6.542 kcal/mol  (  0.010425 au)
 Thermal correction to Energy     =    8.319 kcal/mol  (  0.013257 au)
 Thermal correction to Enthalpy   =    8.911 kcal/mol  (  0.014200 au)

 Total Entropy                    =   52.162 cal/mol-K
   - Translational                =   35.800 cal/mol-K (mol. weight =  27.0109)
   - Rotational                   =   16.361 cal/mol-K (symmetry #  =        1)
   - Vibrational                  =    0.001 cal/mol-K

 Cv (constant volume heat capacity) =    5.971 cal/mol-K
   - Translational                  =    2.979 cal/mol-K
   - Rotational                     =    2.979 cal/mol-K
   - Vibrational                    =    0.012 cal/mol-K



          -------------------------------------------------
          NORMAL MODE EIGENVECTORS IN CARTESIAN COORDINATES
          -------------------------------------------------
             (Projected Frequencies expressed in cm-1)

                    1           2           3           4           5           6
 
 P.Frequency    -1066.00       -0.00       -0.00        0.00        0.00        0.00
 
           1     0.04805    -0.19345    -0.00586     0.00000     0.00000     0.00000
           2     0.06646     0.01321     0.27388     0.00000     0.00000     0.00000
           3     0.00000     0.00000     0.00000     0.28868     0.00000     0.00000
           4     0.02458    -0.19231     0.00518     0.00000     0.00000     0.00000
           5    -0.06453    -0.01314     0.01923     0.00000     0.00000     0.00000
           6     0.00000     0.00000     0.00000     0.00000     0.26723     0.00000
           7    -0.91368    -0.16816     0.23854     0.00000     0.00000     0.00000
           8     0.10530     0.00458     0.19042     0.00000     0.00000     0.00000
           9     0.00000     0.00000     0.00000     0.00000     0.00000     0.99611

                    7           8           9
 
 P.Frequency        0.00     2018.78     2559.30
 
           1     0.00498    -0.20796    -0.01713
           2    -0.00727     0.00017    -0.06064
           3     0.00000     0.00000     0.00000
           4    -0.00650     0.18347     0.00971
           5     0.25764     0.00439    -0.01761
           6     0.00000     0.00000     0.00000
           7    -0.24926    -0.07307     0.06909
           8     0.07955    -0.06301     0.96673
           9     0.00000     0.00000     0.00000



 ----------------------------------------------------------------------------
 Normal Eigenvalue ||    Projected Derivative Dipole Moments (debye/angs)
  Mode   [cm**-1]  ||      [d/dqX]             [d/dqY]           [d/dqZ]
 ------ ---------- || ------------------ ------------------ -----------------
    1    -1066.002 ||      -1.455              -0.038            -0.000
    2       -0.000 ||       0.030               0.002             0.000
    3       -0.000 ||       0.288               0.024             0.000
    4        0.000 ||       0.000              -0.000            -0.206
    5        0.000 ||       0.000               0.000            -0.130
    6        0.000 ||      -0.000               0.000             1.195
    7        0.000 ||      -0.299              -0.025            -0.000
    8     2018.781 ||      -0.235              -0.543             0.000
    9     2559.303 ||      -0.423               1.753             0.000
 ----------------------------------------------------------------------------



  
  
 ----------------------------------------------------------------------------
 Normal Eigenvalue ||           Projected Infra Red Intensities
  Mode   [cm**-1]  || [atomic units] [(debye/angs)**2] [(KM/mol)] [arbitrary]
 ------ ---------- || -------------- ----------------- ---------- -----------
    1    -1066.002 ||    0.091836           2.119        89.527      25.827
    2       -0.000 ||    0.000039           0.001         0.038       0.011
    3       -0.000 ||    0.003615           0.083         3.524       1.017
    4        0.000 ||    0.001831           0.042         1.785       0.515
    5        0.000 ||    0.000736           0.017         0.718       0.207
    6        0.000 ||    0.061888           1.428        60.332      17.405
    7        0.000 ||    0.003913           0.090         3.814       1.100
    8     2018.781 ||    0.015186           0.350        14.804       4.271
    9     2559.303 ||    0.140975           3.252       137.429      39.647
 ----------------------------------------------------------------------------






 ===============================================================================
      Negative Nuclear Hessian Mode    1  Eigenvalue =  -1066.00 cm**(-1)
 -------------------------------------------------------------------------------
   Raw step length:  0.490 angstroms ;  The Raw step for this mode is:
    1 C                    6.0000    -0.02542786    -0.03516797     0.00000000
    2 N                    7.0000    -0.01300773     0.03414795     0.00000000
    3 H                    1.0000     0.48349909    -0.05572441     0.00000000


  Geometry after  100.0% step for mode  1; Step length =  0.490 angstroms 
   Maximum component (any atom: x,y, or z) displacement:  0.914
    1 C                    6.0000    -0.65211541    -0.14318935     0.00000000
    2 N                    7.0000     0.55761817    -0.02198842     0.00000000
    3 H                    1.0000     0.24924313     0.98535844     0.00000000


  Geometry after -100.0% step for mode  1; Step length =  0.490 angstroms 
   Maximum component (any atom: x,y, or z) displacement:  0.914
    1 C                    6.0000    -0.60125968    -0.07285340     0.00000000
    2 N                    7.0000     0.58363362    -0.09028432     0.00000000
    3 H                    1.0000    -0.71775505     1.09680726     0.00000000


  Geometry after   50.0% step for mode  1; Step length =  0.245 angstroms 
   Maximum component (any atom: x,y, or z) displacement:  0.457
    1 C                    6.0000    -0.63940148    -0.12560536     0.00000000
    2 N                    7.0000     0.56412203    -0.03906240     0.00000000
    3 H                    1.0000     0.00749359     1.01322064     0.00000000


  Geometry after  -50.0% step for mode  1; Step length =  0.245 angstroms 
   Maximum component (any atom: x,y, or z) displacement:  0.457
    1 C                    6.0000    -0.61397362    -0.09043739     0.00000000
    2 N                    7.0000     0.57712976    -0.07321035     0.00000000
    3 H                    1.0000    -0.47600550     1.06894505     0.00000000


  Geometry after   21.9% step for mode  1; Step length =  0.107 angstroms 
   Maximum component (any atom: x,y, or z) displacement:  0.200
    1 C                    6.0000    -0.63225358    -0.11571946     0.00000000
    2 N                    7.0000     0.56777857    -0.04866156     0.00000000
    3 H                    1.0000    -0.12842051     1.02888506     0.00000000


  Geometry after  -21.9% step for mode  1; Step length =  0.107 angstroms 
   Maximum component (any atom: x,y, or z) displacement:  0.200
    1 C                    6.0000    -0.62112152    -0.10032329     0.00000000
    2 N                    7.0000     0.57347322    -0.06361118     0.00000000
    3 H                    1.0000    -0.34009141     1.05328063     0.00000000


  Geometry after   10.9% step for mode  1; Step length =  0.054 angstroms 
   Maximum component (any atom: x,y, or z) displacement:  0.100
    1 C                    6.0000    -0.62947056    -0.11187042     0.00000000
    2 N                    7.0000     0.56920223    -0.05239897     0.00000000
    3 H                    1.0000    -0.18133823     1.03498395     0.00000000


  Geometry after  -10.9% step for mode  1; Step length =  0.054 angstroms 
   Maximum component (any atom: x,y, or z) displacement:  0.100
    1 C                    6.0000    -0.62390453    -0.10417233     0.00000000
    2 N                    7.0000     0.57204955    -0.05987378     0.00000000
    3 H                    1.0000    -0.28717368     1.04718174     0.00000000


 vib:animation  F

 Task  times  cpu:        2.4s     wall:        2.7s
 
 
                                NWChem Input Module
                                -------------------
 
 
 
 
                                     mep test
 
 
 energy decrease                  (evib) =   5.0D-04
 initial stride                 (stride) =   1.0D-01
 maximum number of steps       (nircopt) =   30
 initial hessian option         (inhess) =    2
 mass weight coordinates          (mswg) =    F

          ------------------------------------
          Gonzalez & Schlegel IRC Optimization
          ------------------------------------

 
                                 NWChem DFT Module
                                 -----------------
 
 
                                     mep test
 
 
 
  Caching 1-el integrals 
   Time after variat. SCF:      2.7
   Time prior to 1st pass:      2.7


         Total DFT energy =      -92.553385151700
      One electron energy =     -172.334349504094
           Coulomb energy =       67.570496402738
    Exchange-Corr. energy =      -11.671832160041
 Nuclear repulsion energy =       23.882300109696

 Numeric. integr. density =       14.000000149005

     Total iterative time =      0.1s


 
 
                   NWChem Nuclear Hessian and Frequency Analysis
                   ---------------------------------------------
 
                       reusing previously generated Hessian
                       ------------------------------------
  re-using hessian in file meptest2.hess
 
 
  Vib: Default input used 
 
  Nuclear Hessian passed symmetry test 
 


 ---------------------------- Atom information ----------------------------
     atom    #        X              Y              Z            mass
 --------------------------------------------------------------------------
    C        1 -1.1842677D+00 -2.0413080D-01  0.0000000D+00  1.2000000D+01
    N        2  1.0783266D+00 -1.0608236D-01  0.0000000D+00  1.4003070D+01
    H        3 -4.4267957D-01  1.9673613D+00  0.0000000D+00  1.0078250D+00
 --------------------------------------------------------------------------



 
 
        Vibrational analysis via the FX method 
  --- with translations and rotations projected out ---
  --- via the Eckart algorithm                      ---
  
  
 ----------------------------------------------------------------------------
 Normal Eigenvalue ||           Projected Infra Red Intensities
  Mode   [cm**-1]  || [atomic units] [(debye/angs)**2] [(KM/mol)] [arbitrary]
 ------ ---------- || -------------- ----------------- ---------- -----------
    1       -0.043 ||    0.114750           2.647       111.864      17.742
    2       -0.000 ||    0.027110           0.625        26.428       4.192
    3       -0.000 ||    0.038257           0.883        37.295       5.915
    4        0.000 ||    0.021970           0.507        21.417       3.397
    5        0.000 ||    0.010307           0.238        10.048       1.594
    6        0.000 ||    0.062373           1.439        60.804       9.644
    7        0.000 ||    0.004851           0.112         4.729       0.750
    8        0.154 ||    0.136587           3.151       133.152      21.119
    9        0.248 ||    0.165879           3.827       161.707      25.648
 ----------------------------------------------------------------------------






 ==============================================================================
      Negative Nuclear Hessian Mode    1  Eigenvalue =     -0.04 a.u.
 ------------------------------------------------------------------------------
   Raw step length:  0.152 angstroms ;  The Raw step for this mode is:
    1 C                    6.0000    -0.02538315    -0.03510614     0.00000000
    2 N                    7.0000    -0.01402678     0.03682318     0.00000000
    3 H                    1.0000     0.13987280    -0.01612067     0.00000000
------------------------------------------------------------------------------

          -------------------------
          Backward IRC optimization
          -------------------------
 
                                 NWChem DFT Module
                                 -----------------
 
 
                                     mep test
 
 
 
  Caching 1-el integrals 
   Time after variat. SCF:      2.9
   Time prior to 1st pass:      2.9


         Total DFT energy =      -92.553894967285
      One electron energy =     -172.302032497587
           Coulomb energy =       67.567675394885
    Exchange-Corr. energy =      -11.671772317288
 Nuclear repulsion energy =       23.852234452705

 Numeric. integr. density =       14.000000013584

     Total iterative time =      0.3s




                         DFT ENERGY GRADIENTS

    atom               coordinates                        gradient
                 x          y          z           x          y          z
   1 C      -1.176940  -0.193997   0.000000   -0.004021  -0.005651   0.000000
   2 N       1.082075  -0.115923   0.000000   -0.002188   0.006002   0.000000
   3 H      -0.582008   1.983419   0.000000    0.006210  -0.000351   0.000000
 

          Expected decrease in energy              0.000500

          Obtained decrease in energy              0.000510
 
  Using Cartesian Hessian from previous frequency calculation

          -----------
          GS Step   0
          -----------
 
                                 NWChem DFT Module
                                 -----------------
 
 
                                     mep test
 
 
 
  Caching 1-el integrals 
   Time after variat. SCF:      3.4
   Time prior to 1st pass:      3.4


         Total DFT energy =      -92.555420141281
      One electron energy =     -172.596251219466
           Coulomb energy =       67.731435584636
    Exchange-Corr. energy =      -11.684370904663
 Nuclear repulsion energy =       23.993766398212

 Numeric. integr. density =       13.999999909516

     Total iterative time =      0.4s




                         DFT ENERGY GRADIENTS

    atom               coordinates                        gradient
                 x          y          z           x          y          z
   1 C      -1.141342  -0.143970  -0.000000    0.004636  -0.004767  -0.000000
   2 N       1.101448  -0.169057  -0.000000   -0.017395   0.014504  -0.000000
   3 H      -0.636980   1.986527  -0.000000    0.012759  -0.009737   0.000000
 
 
 
                                     mep test
 
 
 maximum gradient threshold         (gmax) =   0.000450
 rms gradient threshold             (grms) =   0.000300
 maximum cartesian step threshold   (xmax) =   0.001800
 rms cartesian step threshold       (xrms) =   0.001200
 energy precision                  (eprec) =   5.0D-06
 maximum number of steps          (nptopt) =   20
 initial hessian option           (inhess) =    0
 hessian update option            (modupd) =    1


          -------------------
          Energy Minimization
          -------------------

 
 Using old Hessian from previous optimization

          --------
          Step   0
          --------

@ Step       Energy      Delta E   Gmax     Grms     Xrms     Xmax   Walltime
@ ---- ---------------- -------- -------- -------- -------- -------- --------
@    0     -92.55542014  0.0D+00  0.01369  0.00706  0.00000  0.00000      4.1
                                                       ok       ok  

lambda for step:  0.455    
step magnitude :  0.152E-01
 
                                 NWChem DFT Module
                                 -----------------
 
 
                                     mep test
 
 
 
  Caching 1-el integrals 
   Time after variat. SCF:      4.1
   Time prior to 1st pass:      4.1


         Total DFT energy =      -92.555555331746
      One electron energy =     -172.368271375576
           Coulomb energy =       67.616072527708
    Exchange-Corr. energy =      -11.676493632998
 Nuclear repulsion energy =       23.873137149120

 Numeric. integr. density =       13.999999935372

     Total iterative time =      0.5s




                         DFT ENERGY GRADIENTS

    atom               coordinates                        gradient
                 x          y          z           x          y          z
   1 C      -1.146182  -0.151605   0.000000   -0.005906  -0.008343  -0.000000
   2 N       1.106820  -0.172003   0.000000   -0.006675   0.013141  -0.000000
   3 H      -0.637512   1.997108   0.000000    0.012580  -0.004798   0.000000
 

          --------
          Step   1
          --------

  Step       Energy      Delta E   Gmax     Grms     Xrms     Xmax   Walltime
  ---- ---------------- -------- -------- -------- -------- -------- --------
@    1     -92.55555533 -1.4D-04  0.00064  0.00029  0.00507  0.01058      4.8
                                              ok                    

lambda for step:  0.450    
step magnitude :  0.985E-03
 
                                 NWChem DFT Module
                                 -----------------
 
 
                                     mep test
 
 
 
  Caching 1-el integrals 
   Time after variat. SCF:      4.8
   Time prior to 1st pass:      4.8


         Total DFT energy =      -92.555555729389
      One electron energy =     -172.372348092105
           Coulomb energy =       67.617874712138
    Exchange-Corr. energy =      -11.676668891541
 Nuclear repulsion energy =       23.875586542119

 Numeric. integr. density =       13.999999933944

     Total iterative time =      0.2s




                         DFT ENERGY GRADIENTS

    atom               coordinates                        gradient
                 x          y          z           x          y          z
   1 C      -1.146170  -0.150956   0.000000   -0.005890  -0.008063  -0.000000
   2 N       1.106803  -0.171916  -0.000000   -0.006689   0.013214   0.000000
   3 H      -0.637507   1.996372  -0.000000    0.012579  -0.005150   0.000000
 

          --------
          Step   2
          --------

  Step       Energy      Delta E   Gmax     Grms     Xrms     Xmax   Walltime
  ---- ---------------- -------- -------- -------- -------- -------- --------
@    2     -92.55555573 -4.0D-07  0.00007  0.00003  0.00033  0.00074      5.2
                                     ok       ok       ok       ok  
 Convergence reached over gradient and energy

 Energy change =   3.976420259732549E-007
 Energy precision =   4.999999873689376E-006
 Convergence reached over gradient and energy
 Convergence reached over gradient and energy
 Energy change =   3.976420259732549E-007
 Energy precision =   4.999999873689376E-006

      ----------------------
      Optimization converged
      ----------------------

 Energy change =   3.976420259732549E-007

  Step       Energy      Delta E   Gmax     Grms     Xrms     Xmax   Walltime
  ---- ---------------- -------- -------- -------- -------- -------- --------
 Energy precision =   4.999999873689376E-006
@    2     -92.55555573 -4.0D-07  0.00007  0.00003  0.00033  0.00074      5.2
                                     ok       ok       ok       ok  

 
 
                         Geometry "geometry" -> "geometry"
                         ---------------------------------
 
 Output coordinates in angstroms (scale by  1.889725989 to convert to a.u.)
 
  No.       Tag          Charge          X              Y              Z
 ---- ---------------- ---------- -------------- -------------- --------------
    1 C                    6.0000    -0.60652711    -0.07988265     0.00000000
    2 N                    7.0000     0.58569506    -0.09097394    -0.00000000
    3 H                    1.0000    -0.33735405     1.05643475    -0.00000000
 
      Atomic Mass 
      ----------- 
 
      C                 12.000000
      N                 14.003070
      H                  1.007825
 

 Effective nuclear repulsion energy (a.u.)      23.8755865421

            Nuclear Dipole moment (a.u.) 
            ----------------------------
        X                 Y               Z
 ---------------- ---------------- ----------------
     0.2330952430    -0.1127764467     0.0000000000
 


                                Z-matrix (autoz)
                                -------- 

 Units are Angstrom for bonds and degrees for angles
 
      Type          Name      I     J     K     L     M      Value
      ----------- --------  ----- ----- ----- ----- ----- ----------
    1 Stretch                  1     2                       1.19227
    2 Stretch                  1     3                       1.16776
    3 Bend                     2     1     3                77.20632
 

&  Point      Energy     svalue   stotal 
& -------  ------------ -------- --------
&    0     -92.55555573  0.09931  0.09931


          -----------
          GS Step   1
          -----------
 
                                 NWChem DFT Module
                                 -----------------
 
 
                                     mep test
 
 
 
  Caching 1-el integrals 
   Time after variat. SCF:      5.2
   Time prior to 1st pass:      5.2


         Total DFT energy =      -92.558242363158
      One electron energy =     -172.175857806739
           Coulomb energy =       67.532868764854
    Exchange-Corr. energy =      -11.673576417593
 Nuclear repulsion energy =       23.758323096319

 Numeric. integr. density =       13.999999819054

     Total iterative time =      0.4s




                         DFT ENERGY GRADIENTS

    atom               coordinates                        gradient
                 x          y          z           x          y          z
   1 C      -1.119929  -0.115031  -0.000000   -0.021476  -0.011650   0.000000
   2 N       1.136603  -0.230786   0.000000    0.003582   0.017927  -0.000000
   3 H      -0.693547   2.019318  -0.000000    0.017894  -0.006277   0.000000
 
 
 
                                     mep test
 
 
 maximum gradient threshold         (gmax) =   0.000450
 rms gradient threshold             (grms) =   0.000300
 maximum cartesian step threshold   (xmax) =   0.001800
 rms cartesian step threshold       (xrms) =   0.001200
 energy precision                  (eprec) =   5.0D-06
 maximum number of steps          (nptopt) =   20
 initial hessian option           (inhess) =    0
 hessian update option            (modupd) =    1


          -------------------
          Energy Minimization
          -------------------

 
 Using old Hessian from previous optimization

          --------
          Step   0
          --------

@ Step       Energy      Delta E   Gmax     Grms     Xrms     Xmax   Walltime
@ ---- ---------------- -------- -------- -------- -------- -------- --------
@    0     -92.55824236  0.0D+00  0.01340  0.00618  0.00000  0.00000      5.8
                                                       ok       ok  

lambda for step:  0.632    
step magnitude :  0.711E-02
 
                                 NWChem DFT Module
                                 -----------------
 
 
                                     mep test
 
 
 
  Caching 1-el integrals 
   Time after variat. SCF:      5.8
   Time prior to 1st pass:      5.8


         Total DFT energy =      -92.558307623074
      One electron energy =     -172.347264178848
           Coulomb energy =       67.621278544513
    Exchange-Corr. energy =      -11.678800779744
 Nuclear repulsion energy =       23.846478791006

 Numeric. integr. density =       13.999999813461

     Total iterative time =      0.3s




                         DFT ENERGY GRADIENTS

    atom               coordinates                        gradient
                 x          y          z           x          y          z
   1 C      -1.114954  -0.114769  -0.000000   -0.011511  -0.012279   0.000000
   2 N       1.131599  -0.230375   0.000000   -0.006698   0.018874  -0.000000
   3 H      -0.693518   2.018644  -0.000000    0.018209  -0.006595   0.000000
 

          --------
          Step   1
          --------

  Step       Energy      Delta E   Gmax     Grms     Xrms     Xmax   Walltime
  ---- ---------------- -------- -------- -------- -------- -------- --------
@    1     -92.55830762 -6.5D-05  0.00043  0.00024  0.00237  0.00500      6.3
                                     ok       ok                    

lambda for step:  0.652    
step magnitude :  0.597E-03
 
                                 NWChem DFT Module
                                 -----------------
 
 
                                     mep test
 
 
 
  Caching 1-el integrals 
   Time after variat. SCF:      6.3
   Time prior to 1st pass:      6.3


         Total DFT energy =      -92.558307795784
      One electron energy =     -172.346156175114
           Coulomb energy =       67.620579592073
    Exchange-Corr. energy =      -11.678808697503
 Nuclear repulsion energy =       23.846077484760

 Numeric. integr. density =       13.999999812660

     Total iterative time =      0.4s




                         DFT ENERGY GRADIENTS

    atom               coordinates                        gradient
                 x          y          z           x          y          z
   1 C      -1.115064  -0.114368  -0.000000   -0.011725  -0.012073   0.000000
   2 N       1.131669  -0.230355   0.000000   -0.006478   0.018891   0.000000
   3 H      -0.693479   2.018223  -0.000000    0.018202  -0.006818   0.000000
 

          --------
          Step   2
          --------

  Step       Energy      Delta E   Gmax     Grms     Xrms     Xmax   Walltime
  ---- ---------------- -------- -------- -------- -------- -------- --------
 Convergence reached over gradient and energy
 Energy change =   1.727105143345398E-007
 Energy precision =   4.999999873689376E-006
@    2     -92.55830780 -1.7D-07  0.00006  0.00003  0.00020  0.00042      6.9
                                     ok       ok       ok       ok  

 Convergence reached over gradient and energy
 Energy change =   1.727105143345398E-007
 Energy precision =   4.999999873689376E-006
 Convergence reached over gradient and energy
 Energy change =   1.727105143345398E-007
 Energy precision =   4.999999873689376E-006

      ----------------------
      Optimization converged
      ----------------------


  Step       Energy      Delta E   Gmax     Grms     Xrms     Xmax   Walltime
  ---- ---------------- -------- -------- -------- -------- -------- --------
@    2     -92.55830780 -1.7D-07  0.00006  0.00003  0.00020  0.00042      6.9
                                     ok       ok       ok       ok  

 
 
                         Geometry "geometry" -> "geometry"
                         ---------------------------------
 
 Output coordinates in angstroms (scale by  1.889725989 to convert to a.u.)
 
  No.       Tag          Charge          X              Y              Z
 ---- ---------------- ---------- -------------- -------------- --------------
    1 C                    6.0000    -0.59006629    -0.06052097    -0.00000000
    2 N                    7.0000     0.59885352    -0.12189870     0.00000000
    3 H                    1.0000    -0.36697334     1.06799782    -0.00000000
 
      Atomic Mass 
      ----------- 
 
      C                 12.000000
      N                 14.003070
      H                  1.007825
 

 Effective nuclear repulsion energy (a.u.)      23.8460774848

            Nuclear Dipole moment (a.u.) 
            ----------------------------
        X                 Y               Z
 ---------------- ---------------- ----------------
     0.5378228118    -0.2804710119     0.0000000000
 


                                Z-matrix (autoz)
                                -------- 

 Units are Angstrom for bonds and degrees for angles
 
      Type          Name      I     J     K     L     M      Value
      ----------- --------  ----- ----- ----- ----- ----- ----------
    1 Stretch                  1     2                       1.19050
    2 Stretch                  1     3                       1.15036
    3 Bend                     2     1     3                81.77284
 

&  Point      Energy     svalue   stotal 
& -------  ------------ -------- --------
&    1     -92.55830780  0.09983  0.19914


          -----------
          GS Step   2
          -----------
 
                                 NWChem DFT Module
                                 -----------------
 
 
                                     mep test
 
 
 
  Caching 1-el integrals 
   Time after variat. SCF:      7.0
   Time prior to 1st pass:      7.0


         Total DFT energy =      -92.561990361836
      One electron energy =     -172.434318933262
           Coulomb energy =       67.681886830741
    Exchange-Corr. energy =      -11.685163450068
 Nuclear repulsion energy =       23.875605190753

 Numeric. integr. density =       13.999999791038

     Total iterative time =      0.3s




                         DFT ENERGY GRADIENTS

    atom               coordinates                        gradient
                 x          y          z           x          y          z
   1 C      -1.079049  -0.077283  -0.000000   -0.011206  -0.015142   0.000000
   2 N       1.151566  -0.288383   0.000000   -0.011782   0.024275  -0.000000
   3 H      -0.749390   2.039166  -0.000000    0.022988  -0.009133   0.000000
 
 
 
                                     mep test
 
 
 maximum gradient threshold         (gmax) =   0.000450
 rms gradient threshold             (grms) =   0.000300
 maximum cartesian step threshold   (xmax) =   0.001800
 rms cartesian step threshold       (xrms) =   0.001200
 energy precision                  (eprec) =   5.0D-06
 maximum number of steps          (nptopt) =   20
 initial hessian option           (inhess) =    0
 hessian update option            (modupd) =    1


          -------------------
          Energy Minimization
          -------------------

 
 Using old Hessian from previous optimization

          --------
          Step   0
          --------

@ Step       Energy      Delta E   Gmax     Grms     Xrms     Xmax   Walltime
@ ---- ---------------- -------- -------- -------- -------- -------- --------
@    0     -92.56199036  0.0D+00  0.00365  0.00171  0.00000  0.00000      7.5
                                                       ok       ok  

lambda for step:  0.825    
step magnitude :  0.186E-02
 
                                 NWChem DFT Module
                                 -----------------
 
 
                                     mep test
 
 
 
  Caching 1-el integrals 
   Time after variat. SCF:      7.5
   Time prior to 1st pass:      7.5


         Total DFT energy =      -92.561994963917
      One electron energy =     -172.388595017459
           Coulomb energy =       67.657931824511
    Exchange-Corr. energy =      -11.683690846173
 Nuclear repulsion energy =       23.852359075204

 Numeric. integr. density =       13.999999791183

     Total iterative time =      0.3s




                         DFT ENERGY GRADIENTS

    atom               coordinates                        gradient
                 x          y          z           x          y          z
   1 C      -1.080315  -0.077412  -0.000000   -0.013861  -0.014915   0.000000
   2 N       1.152867  -0.288589   0.000000   -0.009048   0.023903  -0.000000
   3 H      -0.749426   2.039501  -0.000000    0.022908  -0.008988   0.000000
 

          --------
          Step   1
          --------

  Step       Energy      Delta E   Gmax     Grms     Xrms     Xmax   Walltime
  ---- ---------------- -------- -------- -------- -------- -------- --------
 Convergence reached over gradient and energy
 Energy change =   4.602080736049174E-006
 Energy precision =   4.999999873689376E-006
@    1     -92.56199496 -4.6D-06  0.00016  0.00010  0.00062  0.00130      8.0
                                     ok       ok       ok       ok  

 Convergence reached over gradient and energy
 Energy change =   4.602080736049174E-006
 Energy precision =   4.999999873689376E-006
 Convergence reached over gradient and energy
 Energy change =   4.602080736049174E-006
 Energy precision =   4.999999873689376E-006

      ----------------------
      Optimization converged
      ----------------------


  Step       Energy      Delta E   Gmax     Grms     Xrms     Xmax   Walltime
  ---- ---------------- -------- -------- -------- -------- -------- --------
@    1     -92.56199496 -4.6D-06  0.00016  0.00010  0.00062  0.00130      8.0
                                     ok       ok       ok       ok  

 
 
                         Geometry "geometry" -> "geometry"
                         ---------------------------------
 
 Output coordinates in angstroms (scale by  1.889725989 to convert to a.u.)
 
  No.       Tag          Charge          X              Y              Z
 ---- ---------------- ---------- -------------- -------------- --------------
[...]
                                                       ok       ok  

lambda for step: -0.656E-01
step magnitude :  0.394E-02
 
                                 NWChem DFT Module
                                 -----------------
 
 
                                     mep test
 
 
 
  Caching 1-el integrals 
   Time after variat. SCF:     40.1
   Time prior to 1st pass:     40.1


         Total DFT energy =      -92.627278954130
      One electron energy =     -172.185004877952
           Coulomb energy =       67.637862575215
    Exchange-Corr. energy =      -11.711520835218
 Nuclear repulsion energy =       23.631384183825

 Numeric. integr. density =       13.999999962365

     Total iterative time =      0.3s




                         DFT ENERGY GRADIENTS

    atom               coordinates                        gradient
                 x          y          z           x          y          z
   1 C      -0.245629   0.607884  -0.000000    0.000469   0.001431  -0.000000
   2 N       1.155026  -1.093384   0.000000   -0.000641  -0.000204   0.000000
   3 H      -1.586270   2.159000   0.000000    0.000173  -0.001227   0.000000
 

          --------
          Step   2
          --------

  Step       Energy      Delta E   Gmax     Grms     Xrms     Xmax   Walltime
  ---- ---------------- -------- -------- -------- -------- -------- --------
@    2     -92.62727895  4.0D-07  0.00063  0.00039  0.00131  0.00240     40.5
                                                                    

lambda for step: -0.640E-01
step magnitude :  0.224E-02
 
                                 NWChem DFT Module
                                 -----------------
 
 
                                     mep test
 
 
 
  Caching 1-el integrals 
   Time after variat. SCF:     40.6
   Time prior to 1st pass:     40.6


         Total DFT energy =      -92.627280150606
      One electron energy =     -172.172696673023
           Coulomb energy =       67.631594291482
    Exchange-Corr. energy =      -11.710915613989
 Nuclear repulsion energy =       23.624737844925

 Numeric. integr. density =       14.000000017010

     Total iterative time =      0.5s




                         DFT ENERGY GRADIENTS

    atom               coordinates                        gradient
                 x          y          z           x          y          z
   1 C      -0.244994   0.607364  -0.000000    0.000996   0.000842  -0.000000
   2 N       1.155635  -1.094195   0.000000   -0.000509  -0.000373   0.000000
   3 H      -1.587515   2.160331   0.000000   -0.000488  -0.000469   0.000000
 

 Convergence reached over gradient and energy
 Energy change =   1.196475736264802E-006
 Energy precision =   4.999999873689376E-006
 Convergence reached over gradient and energy
 Energy change =   1.196475736264802E-006
 Energy precision =   4.999999873689376E-006
          --------
          Step   3
          --------

  Step       Energy      Delta E   Gmax     Grms     Xrms     Xmax   Walltime
  ---- ---------------- -------- -------- -------- -------- -------- --------
@    3     -92.62728015 -1.2D-06  0.00000  0.00000  0.00075  0.00133     41.2
                                     ok       ok       ok       ok  

 Convergence reached over gradient and energy
 Energy change =   1.196475736264802E-006
 Energy precision =   4.999999873689376E-006

      ----------------------
      Optimization converged
      ----------------------


  Step       Energy      Delta E   Gmax     Grms     Xrms     Xmax   Walltime
  ---- ---------------- -------- -------- -------- -------- -------- --------
@    3     -92.62728015 -1.2D-06  0.00000  0.00000  0.00075  0.00133     41.2
                                     ok       ok       ok       ok  

 
 
                         Geometry "geometry" -> "geometry"
                         ---------------------------------
 
 Output coordinates in angstroms (scale by  1.889725989 to convert to a.u.)
 
  No.       Tag          Charge          X              Y              Z
 ---- ---------------- ---------- -------------- -------------- --------------
    1 C                    6.0000    -0.12964515     0.32140340    -0.00000000
    2 N                    7.0000     0.61153594    -0.57902305     0.00000000
    3 H                    1.0000    -0.84007690     1.14319781     0.00000000
 
      Atomic Mass 
      ----------- 
 
      C                 12.000000
      N                 14.003070
      H                  1.007825
 

 Effective nuclear repulsion energy (a.u.)      23.6247378449

            Nuclear Dipole moment (a.u.) 
            ----------------------------
        X                 Y               Z
 ---------------- ---------------- ----------------
     5.0319695618    -1.8548476406    -0.0000000000
 


                                Z-matrix (autoz)
                                -------- 

 Units are Angstrom for bonds and degrees for angles
 
      Type          Name      I     J     K     L     M      Value
      ----------- --------  ----- ----- ----- ----- ----- ----------
    1 Stretch                  1     2                       1.16624
    2 Stretch                  1     3                       1.08631
    3 Bend                     2     1     3               178.61628
 
 Rejecting the optimized Point
 
                                 NWChem DFT Module
                                 -----------------
 
 
                                     mep test
 
 
 
  Caching 1-el integrals 
   Time after variat. SCF:     41.3
   Time prior to 1st pass:     41.3


         Total DFT energy =      -92.627296105989
      One electron energy =     -172.162252622555
           Coulomb energy =       67.626283112599
    Exchange-Corr. energy =      -11.710546256911
 Nuclear repulsion energy =       23.619219660879

 Numeric. integr. density =       14.000000014776

     Total iterative time =      0.3s




                         DFT ENERGY GRADIENTS

    atom               coordinates                        gradient
                 x          y          z           x          y          z
   1 C      -0.260537   0.594166  -0.000000   -0.000397   0.000079   0.000000
   2 N       1.163589  -1.088382   0.000000    0.000437  -0.000330  -0.000000
   3 H      -1.579926   2.167716  -0.000000   -0.000041   0.000251  -0.000000
 
 
 
                                     mep test
 
 
 maximum gradient threshold         (gmax) =   0.000450
 rms gradient threshold             (grms) =   0.000300
 maximum cartesian step threshold   (xmax) =   0.001800
 rms cartesian step threshold       (xrms) =   0.001200
 energy precision                  (eprec) =   5.0D-06
 maximum number of steps          (nptopt) =   20
 initial hessian option           (inhess) =    0
 hessian update option            (modupd) =    1


          -------------------
          Energy Minimization
          -------------------

 
 Using old Hessian from previous optimization

          --------
          Step   0
          --------

@ Step       Energy      Delta E   Gmax     Grms     Xrms     Xmax   Walltime
@ ---- ---------------- -------- -------- -------- -------- -------- --------
@    0     -92.62729611  0.0D+00  0.00041  0.00022  0.00000  0.00000     41.7
                                     ok       ok       ok       ok  


      ----------------------
      Optimization converged
      ----------------------


@ Step       Energy      Delta E   Gmax     Grms     Xrms     Xmax   Walltime
@ ---- ---------------- -------- -------- -------- -------- -------- --------
@    0     -92.62729611  0.0D+00  0.00041  0.00022  0.00000  0.00000     41.7
                                     ok       ok       ok       ok  

 
 
                         Geometry "geometry" -> "geometry"
                         ---------------------------------
 
 Output coordinates in angstroms (scale by  1.889725989 to convert to a.u.)
 
  No.       Tag          Charge          X              Y              Z
 ---- ---------------- ---------- -------------- -------------- --------------
    1 C                    6.0000    -0.13787040     0.31441909    -0.00000000
    2 N                    7.0000     0.61574507    -0.57594711     0.00000000
    3 H                    1.0000    -0.83606078     1.14710618    -0.00000000
 
      Atomic Mass 
      ----------- 
 
      C                 12.000000
      N                 14.003070
      H                  1.007825
 

 Effective nuclear repulsion energy (a.u.)      23.6192196609

            Nuclear Dipole moment (a.u.) 
            ----------------------------
        X                 Y               Z
 ---------------- ---------------- ----------------
     5.0019768289    -1.8859636459     0.0000000000
 


                                Z-matrix (autoz)
                                -------- 

 Units are Angstrom for bonds and degrees for angles
 
      Type          Name      I     J     K     L     M      Value
      ----------- --------  ----- ----- ----- ----- ----- ----------
    1 Stretch                  1     2                       1.16649
    2 Stretch                  1     3                       1.08666
    3 Bend                     2     1     3               179.73418
 

&  Point      Energy     svalue   stotal 
& -------  ------------ -------- --------
&   19     -92.62729611  0.02208  1.92065


          -----------
          GS Step  20
          -----------
 
                                 NWChem DFT Module
                                 -----------------
 
 
                                     mep test
 
 
 
  Caching 1-el integrals 
   Time after variat. SCF:     41.7
   Time prior to 1st pass:     41.7


         Total DFT energy =      -92.626768606233
      One electron energy =     -172.673571300420
           Coulomb energy =       67.892749902686
    Exchange-Corr. energy =      -11.726520062843
 Nuclear repulsion energy =       23.880572854344

 Numeric. integr. density =       13.999999958897

     Total iterative time =      0.3s




                         DFT ENERGY GRADIENTS

    atom               coordinates                        gradient
                 x          y          z           x          y          z
   1 C      -0.246892   0.591441   0.000000    0.025255  -0.029506   0.000000
   2 N       1.148541  -1.077038  -0.000000   -0.023840   0.028181  -0.000000
   3 H      -1.578523   2.159098  -0.000000   -0.001414   0.001325  -0.000000
 
 Rejecting the proposed Point
 
                                 NWChem DFT Module
                                 -----------------
 
 
                                     mep test
 
 
 
  Caching 1-el integrals 
   Time after variat. SCF:     42.3
   Time prior to 1st pass:     42.3


         Total DFT energy =      -92.627170855313
      One electron energy =     -172.416679439301
           Coulomb energy =       67.758860606249
    Exchange-Corr. energy =      -11.718474139890
 Nuclear repulsion energy =       23.749122117629

 Numeric. integr. density =       13.999999959431

     Total iterative time =      0.3s




                         DFT ENERGY GRADIENTS

    atom               coordinates                        gradient
                 x          y          z           x          y          z
   1 C      -0.253715   0.592803   0.000000    0.012171  -0.014335  -0.000000
   2 N       1.156065  -1.082710  -0.000000   -0.011449   0.013545   0.000000
   3 H      -1.579224   2.163407  -0.000000   -0.000722   0.000790   0.000000
 
 Rejecting the proposed Point
 
                                 NWChem DFT Module
                                 -----------------
 
 
                                     mep test
 
 
 
  Caching 1-el integrals 
   Time after variat. SCF:     42.8
   Time prior to 1st pass:     42.8


         Total DFT energy =      -92.627267309653
      One electron energy =     -172.289129119129
           Coulomb energy =       67.692374975656
    Exchange-Corr. energy =      -11.714492063864
 Nuclear repulsion energy =       23.683978897684

 Numeric. integr. density =       13.999999960174

     Total iterative time =      0.5s




                         DFT ENERGY GRADIENTS

    atom               coordinates                        gradient
                 x          y          z           x          y          z
   1 C      -0.257126   0.593485   0.000000    0.005823  -0.007035  -0.000000
   2 N       1.159827  -1.085546  -0.000000   -0.005443   0.006514   0.000000
   3 H      -1.579575   2.165562  -0.000000   -0.000380   0.000521   0.000000
 
 Rejecting the proposed Point
 
                                 NWChem DFT Module
                                 -----------------
 
 
                                     mep test
 
 
 
  Caching 1-el integrals 
   Time after variat. SCF:     43.5
   Time prior to 1st pass:     43.5


         Total DFT energy =      -92.627290060638
      One electron energy =     -172.225475431263
           Coulomb energy =       67.659133052235
    Exchange-Corr. energy =      -11.712499154568
 Nuclear repulsion energy =       23.651551472958

 Numeric. integr. density =       13.999999963456

     Total iterative time =      0.3s




                         DFT ENERGY GRADIENTS

    atom               coordinates                        gradient
                 x          y          z           x          y          z
   1 C      -0.258832   0.593825   0.000000    0.002697  -0.003454   0.000000
   2 N       1.161708  -1.086964  -0.000000   -0.002487   0.003069  -0.000000
   3 H      -1.579750   2.166639  -0.000000   -0.000210   0.000385  -0.000000
 
 Rejecting the proposed Point
 
                                 NWChem DFT Module
                                 -----------------
 
 
                                     mep test
 
 
 
  Caching 1-el integrals 
   Time after variat. SCF:     44.0
   Time prior to 1st pass:     44.0


         Total DFT energy =      -92.627294166996
      One electron energy =     -172.202704367609
           Coulomb energy =       67.647305372368
    Exchange-Corr. energy =      -11.711796197729
 Nuclear repulsion energy =       23.639901025973

 Numeric. integr. density =       14.000000014883

     Total iterative time =      0.3s




                         DFT ENERGY GRADIENTS

    atom               coordinates                        gradient
                 x          y          z           x          y          z
   1 C      -0.259446   0.593948   0.000000    0.001579  -0.002177   0.000000
   2 N       1.162386  -1.087475  -0.000000   -0.001431   0.001840  -0.000000
   3 H      -1.579814   2.167027  -0.000000   -0.000149   0.000337  -0.000000
 
 Rejecting the proposed Point

      ----------------------
      IRC Optimization converged
      ----------------------

 
 
                         Geometry "geometry" -> "geometry"
                         ---------------------------------
 
 Output coordinates in angstroms (scale by  1.889725989 to convert to a.u.)
 
  No.       Tag          Charge          X              Y              Z
 ---- ---------------- ---------- -------------- -------------- --------------
    1 C                    6.0000    -0.13729273     0.31430372     0.00000000
    2 N                    7.0000     0.61510802    -0.57546688    -0.00000000
    3 H                    1.0000    -0.83600140     1.14674132    -0.00000000
 
      Atomic Mass 
      ----------- 
 
      C                 12.000000
      N                 14.003070
      H                  1.007825
 

 Effective nuclear repulsion energy (a.u.)      23.6192196609

            Nuclear Dipole moment (a.u.) 
            ----------------------------
        X                 Y               Z
 ---------------- ---------------- ----------------
     5.0019768289    -1.8859636459     0.0000000000
 


                                Z-matrix (autoz)
                                -------- 

 Units are Angstrom for bonds and degrees for angles
 
      Type          Name      I     J     K     L     M      Value
      ----------- --------  ----- ----- ----- ----- ----- ----------
    1 Stretch                  1     2                       1.16525
    2 Stretch                  1     3                       1.08681
    3 Bend                     2     1     3               179.79024
 

 Task  times  cpu:       37.1s     wall:       41.8s
 
 
                                NWChem Input Module
                                -------------------
 
 
 Summary of allocated global arrays
-----------------------------------
  No active global arrays



                         GA Statistics for process    0
                         ------------------------------

       create   destroy   get      put      acc     scatter   gather  read&inc
calls: 9609     9609     5.62e+05 2.22e+04 9.07e+04  227        0     2.49e+04 
number of processes/call -6.71e+12 -1.85e+13 1.09e+13 0.00e+00 0.00e+00
bytes total:             2.51e+08 5.11e+07 1.09e+08 0.00e+00 0.00e+00 1.99e+05
bytes remote:            5.66e+06 1.23e+06 1.81e+07 -1.40e+03 0.00e+00 0.00e+00
Max memory consumed for GA by this process: 349936 bytes
 
MA_summarize_allocated_blocks: starting scan ...
MA_summarize_allocated_blocks: scan completed: 0 heap blocks, 0 stack blocks
MA usage statistics:

	allocation statistics:
					      heap	     stack
					      ----	     -----
	current number of blocks	         0	         0
	maximum number of blocks	        25	        51
	current total bytes		         0	         0
	maximum total bytes		 668974320	  70529560
	maximum total K-bytes		    668975	     70530
	maximum total M-bytes		       669	        71
 
 
                                     CITATION
                                     --------
                Please cite the following reference when publishing
                           results obtained with NWChem:
 
                 M. Valiev, E.J. Bylaska, N. Govind, K. Kowalski,
              T.P. Straatsma, H.J.J. van Dam, D. Wang, J. Nieplocha,
                        E. Apra, T.L. Windus, W.A. de Jong
                 "NWChem: a comprehensive and scalable open-source
                  solution for large scale molecular simulations"
                      Comput. Phys. Commun. 181, 1477 (2010)
                           doi:10.1016/j.cpc.2010.04.018
 
                                      AUTHORS
                                      -------
     E. Apra, E. J. Bylaska, N. Govind, K. Kowalski, M. Valiev, W. A. de Jong,
      T. P. Straatsma, H. J. J. van Dam, D. Wang, T. L. Windus, N. P. Bauman,
       A. Panyala, J. Hammond, J. Autschbach, K. Bhaskaran-Nair, J. Brabec,
    K. Lopata, S. A. Fischer, S. Krishnamoorthy, M. Jacquelin, W. Ma, M. Klemm,
       O. Villa, Y. Chen, V. Anisimov, F. Aquino, S. Hirata, M. T. Hackler,
          Eric Hermes, L. Janssen, J. E. Moore, J. C. Becca, V. Konjkov,
            D. Mejia-Rodriguez, T. Risthaus, M. Malagoli, A. Marenich,
   A. Otero-de-la-Roza, J. Mullin, P. Nichols, R. Peverati, J. Pittner, Y. Zhao,
        P.-D. Fan, A. Fonari, M. J. Williamson, R. J. Harrison, J. R. Rehr,
      M. Dupuis, D. Silverstein, D. M. A. Smith, J. Nieplocha, V. Tipparaju,
    M. Krishnan, B. E. Van Kuiken, A. Vazquez-Mayagoitia, L. Jensen, M. Swart,
      Q. Wu, T. Van Voorhis, A. A. Auer, M. Nooijen, L. D. Crosby, E. Brown,
      G. Cisneros, G. I. Fann, H. Fruchtl, J. Garza, K. Hirao, R. A. Kendall,
      J. A. Nichols, K. Tsemekhman, K. Wolinski, J. Anchell, D. E. Bernholdt,
      P. Borowski, T. Clark, D. Clerc, H. Dachsel, M. J. O. Deegan, K. Dyall,
    D. Elwood, E. Glendening, M. Gutowski, A. C. Hess, J. Jaffe, B. G. Johnson,
     J. Ju, R. Kobayashi, R. Kutteh, Z. Lin, R. Littlefield, X. Long, B. Meng,
      T. Nakajima, S. Niu, L. Pollack, M. Rosing, K. Glaesemann, G. Sandrone,
      M. Stave, H. Taylor, G. Thomas, J. H. van Lenthe, A. T. Wong, Z. Zhang.

 Total times  cpu:       39.5s     wall:       44.5s
