 argument  1 = test.nw



============================== echo of input deck ==============================
permanent_dir ./data
scratch_dir ./perm

memory 800 mb
echo

title "       hexaachloroethene C2Cl6"

start c2cl6

geometry
h  0.93452655 0.0 0.0
h  0.0  0.0   0.0
h  -0.93452655 0.0 0.0
end

scf
  doublet
  rohf
  ADAPT off
  SYM off
end

basis spherical
 * Library 6-31+G*
end

mymd
 temp 298.15
 nsteps 20
 timestep 0.5
end

#task leps energy
#task leps gradient
#task scf saddle
#task scf frequencies
task scf dynamics
================================================================================


                                         
                                         


              Northwest Computational Chemistry Package (NWChem) 5.1
              ------------------------------------------------------


                    Environmental Molecular Sciences Laboratory
                       Pacific Northwest National Laboratory
                                Richland, WA 99352

                                         
                                         


                  COPYRIGHT (C) 1994, 1995, 1996, 1997, 1998, 1999
                   2000, 2001, 2002, 2003, 2004, 2005, 2006, 2007
                        Pacific Northwest National Laboratory,
                             Battelle Memorial Institute.

                            >>> All Rights Reserved <<<


                                    DISCLAIMER
                                    ----------

            This material was prepared as an account of work sponsored
            by an agency of the United States Government.  Neither the
            United States Government nor the United States Department
            of Energy, nor Battelle, nor any of their employees, MAKES
            ANY WARRANTY, EXPRESS OR IMPLIED, OR ASSUMES ANY LEGAL
            LIABILITY OR RESPONSIBILITY FOR THE ACCURACY, COMPLETENESS,
            OR USEFULNESS OF ANY INFORMATION, APPARATUS, PRODUCT,
            SOFTWARE, OR PROCESS DISCLOSED, OR REPRESENTS THAT ITS USE
            WOULD NOT INFRINGE PRIVATELY OWNED RIGHTS.


                                    LIMITED USE
                                    -----------

            This software (including any documentation) is being made
            available to you for your internal use only, solely for use
            in performance of work directly for the U.S. Federal
            Government or work under contracts with the U.S. Department
            of Energy or other U.S. Federal Government agencies.  This
            software is a version which has not yet been evaluated and
            cleared for commercialization.  Adherence to this notice
            may be necessary for the author, Battelle Memorial
            Institute, to successfully assert copyright in and
            commercialize this software. This software is not intended
            for duplication or distribution to third parties without
            the permission of the Manager of Software Products at
            Pacific Northwest National Laboratory, Richland,
            Washington, 99352.


                                  ACKNOWLEDGMENT
                                  --------------

            This software and its documentation were produced with
            Government support under Contract Number DE-AC05-76RL01830
            awarded by the United States Department of Energy.  The
            Government retains a paid-up non-exclusive, irrevocable
            worldwide license to reproduce, prepare derivative works,
            perform publicly and display publicly by or for the
            Government, including the right to distribute to other
            Government contractors.


           Job information
           ---------------

    hostname      = hondo
    program       = /scratch2/bojana/nwchem/bin/LINUX/nwchem
    date          = Sat Jul 26 15:13:37 2008

    compiled      = Sat_Jul_26_15:13:24_2008
    source        = /scratch2/bojana/nwchem
    nwchem branch = Development
    input         = test.nw
    prefix        = c2cl6.
    data base     = ./data/c2cl6.db
    status        = startup
    nproc         =    1
    time left     =     -1s



           Memory information
           ------------------

    heap      =   26214401 doubles =    200.0 Mbytes
    stack     =   26214401 doubles =    200.0 Mbytes
    global    =   52428800 doubles =    400.0 Mbytes (distinct from heap & stack)
    total     =  104857602 doubles =    800.0 Mbytes
    verify    = yes
    hardfail  = no 


           Directory information
           ---------------------

  0 permanent = ./data
  0 scratch   = ./perm




                                NWChem Input Module
                                -------------------


                              hexaachloroethene C2Cl6
                              -----------------------

 Scaling coordinates for geometry "geometry" by  1.889725989
 (inverse scale =  0.529177249)

 ORDER OF PRIMARY AXIS IS BEING SET TO 4
 D4H symmetry detected

          ------
          auto-z
          ------
  autoz: insufficient variables  2 3
     1 autoz failed with cvr_scaling = 1.2 changing to 1.3
  autoz: insufficient variables  2 3
     2 autoz failed with cvr_scaling = 1.3 changing to 1.4
  autoz: insufficient variables  2 3
     3 autoz failed with cvr_scaling = 1.4 changing to 1.5
  autoz: insufficient variables  2 3
     4 autoz failed with cvr_scaling = 1.5 changing to 1.6
  autoz: insufficient variables  2 3
     5 autoz failed with cvr_scaling = 1.6 changing to 1.7
  autoz: insufficient variables  2 3

 AUTOZ failed to generate good internal coordinates.
 Cartesian coordinates will be used in optimizations.



                             Geometry "geometry" -> ""
                             -------------------------

 Output coordinates in angstroms (scale by  1.889725989 to convert to a.u.)

  No.       Tag          Charge          X              Y              Z
 ---- ---------------- ---------- -------------- -------------- --------------
    1 h                    1.0000     0.00000000     0.00000000     0.93452655
    2 h                    1.0000     0.00000000     0.00000000     0.00000000
    3 h                    1.0000     0.00000000     0.00000000    -0.93452655

      Atomic Mass 
      ----------- 

      h                  1.007825


 Effective nuclear repulsion energy (a.u.)       1.4156292537

            Nuclear Dipole moment (a.u.) 
            ----------------------------
        X                 Y               Z
 ---------------- ---------------- ----------------
     0.0000000000     0.0000000000     0.0000000000

      Symmetry information
      --------------------

 Group name             D4h       
 Group number             28
 Group order              16
 No. of unique centers     2

      Symmetry unique atoms

     1    2


            XYZ format geometry
            -------------------
     3
 geometry
 h                     0.00000000     0.00000000     0.93452655
 h                     0.00000000     0.00000000     0.00000000
 h                     0.00000000     0.00000000    -0.93452655

  warning:::::::::::::: from_nwchemrc
  NWCHEM_BASIS_LIBRARY set to: <
 /afs/msrc.pnl.gov/files/share/ecce/v4.0.1/nwchem/usr.local.lib.nwchem/libraries/
 >
  but file does not exist !
  using compiled in library


 Summary of "ao basis" -> "" (spherical)
 ------------------------------------------------------------------------------
       Tag                 Description            Shells   Functions and Types
 ---------------- ------------------------------  ------  ---------------------
 *                          6-31+G*                   on all atoms 


 in mymd_input:                     
 str1: scf                             
 str2: :gradient
 str:                                                                 
 Long string : scf:gradient                                                    

 input params 20  0.5  298.15
 Done with all the allocation
 -241792102 -241792074 -241792085 -241792049 -1934336463 -241792032 -241792015
 -241791998 -241791981
 Done with all the allocation
 Filled cartesians and masses  
 -241792102 -241792074 -241792085 -1934336463 -241792049 -241792032 -241792015
 -241791998 -241791981
 Filled cartesians and masses  
                      Basis "ao basis" -> "ao basis" (spherical)
                      -----
  h (Hydrogen)
  ------------
            Exponent  Coefficients 
       -------------- ---------------------------------------------------------
  1 S  1.87311370E+01  0.033495
  1 S  2.82539370E+00  0.234727
  1 S  6.40121700E-01  0.813757

  2 S  1.61277800E-01  1.000000



 Summary of "ao basis" -> "ao basis" (spherical)
 ------------------------------------------------------------------------------
       Tag                 Description            Shells   Functions and Types
 ---------------- ------------------------------  ------  ---------------------
 h                          6-31+G*                  2        2   2s


                                 NWChem SCF Module
                                 -----------------


                              hexaachloroethene C2Cl6



  ao basis        = "ao basis"
  functions       =     6
  atoms           =     3
  closed shells   =     1
  open shells     =     1
  charge          =   0.00
  wavefunction    = ROHF
  input vectors   = atomic
  output vectors  = ./data/c2cl6.movecs
  use symmetry    = F
  symmetry adapt  = F


 Summary of "ao basis" -> "ao basis" (spherical)
 ------------------------------------------------------------------------------
       Tag                 Description            Shells   Functions and Types
 ---------------- ------------------------------  ------  ---------------------
 h                          6-31+G*                  2        2   2s



 Forming initial guess at       0.1s


      Superposition of Atomic Density Guess
      -------------------------------------

 Sum of atomic energies:          -1.49469762

      Non-variational initial energy
      ------------------------------

 Total energy =      -1.313104
 1-e energy   =      -4.147889
 2-e energy   =       1.419156
 HOMO         =      -0.151546
 LUMO         =       0.274567


 Starting SCF solution at       0.1s



 ----------------------------------------------
         Quadratically convergent ROHF

 Convergence threshold     :          1.000E-04
 Maximum no. of iterations :           20
 Final Fock-matrix accuracy:          1.000E-07
 ----------------------------------------------


 #quartets = 2.310E+02 #integrals = 2.310E+02 #direct =  0.0% #cached =100.0%


 Integral file          = ./perm/c2cl6.aoints.0
 Record size in doubles =  65536        No. of integs per rec  =  43688
 Max. records in memory =      2        Max. records in file   = 107189
 No. of bits per label  =      8        No. of bits per value  =     64


              iter       energy          gnorm     gmax       time
             ----- ------------------- --------- --------- --------
                 1       -1.5819180517  1.48E-01  1.08E-01      0.1
                 2       -1.5850370675  2.28E-02  1.81E-02      0.1
                 3       -1.5851351879  1.48E-04  1.23E-04      0.1
                 4       -1.5851351903  5.76E-07  4.30E-07      0.1


       Final ROHF results 
       ------------------ 

         Total SCF energy =     -1.585135190306
      One-electron energy =     -4.336175237013
      Two-electron energy =      1.335410793051
 Nuclear repulsion energy =      1.415629253657

        Time for solution =      0.0s


             Final eigenvalues
             -----------------

              1      
    1   -0.6405
    2   -0.1587
    3    0.3064
    4    0.9039
    5    1.0033
    6    1.3121

                       ROHF Final Molecular Orbital Analysis
                       -------------------------------------

 Vector    1  Occ=2.000000E+00  E=-6.405187E-01
              MO Center=  0.0E+00,  0.0E+00,  2.3E-16, r^2= 9.8E-01
   Bfn.  Coefficient  Atom+Function         Bfn.  Coefficient  Atom+Function  
  ----- ------------  ---------------      ----- ------------  ---------------
     4      0.337429  2 H  s                  3      0.315378  2 H  s          
     1      0.208851  1 H  s                  5      0.208851  3 H  s          

 Vector    2  Occ=1.000000E+00  E=-1.586825E-01
              MO Center=  0.0E+00,  0.0E+00,  1.7E-15, r^2= 1.9E+00
   Bfn.  Coefficient  Atom+Function         Bfn.  Coefficient  Atom+Function  
  ----- ------------  ---------------      ----- ------------  ---------------
     2      0.574394  1 H  s                  6     -0.574394  3 H  s          
     1      0.315733  1 H  s                  5     -0.315733  3 H  s          

 Vector    3  Occ=0.000000E+00  E= 3.063580E-01
              MO Center=  0.0E+00,  0.0E+00, -1.9E-15, r^2= 3.1E+00
   Bfn.  Coefficient  Atom+Function         Bfn.  Coefficient  Atom+Function  
  ----- ------------  ---------------      ----- ------------  ---------------
     4      2.425475  2 H  s                  6     -1.633391  3 H  s          
     2     -1.633391  1 H  s                  3      0.244626  2 H  s          

 Vector    4  Occ=0.000000E+00  E= 9.039350E-01
              MO Center=  0.0E+00,  0.0E+00,  3.4E-15, r^2= 1.6E+00
   Bfn.  Coefficient  Atom+Function         Bfn.  Coefficient  Atom+Function  
  ----- ------------  ---------------      ----- ------------  ---------------
     4      1.422556  2 H  s                  3     -0.701121  2 H  s          
     1     -0.681337  1 H  s                  5     -0.681337  3 H  s          

 Vector    5  Occ=0.000000E+00  E= 1.003274E+00
              MO Center=  0.0E+00,  0.0E+00, -3.1E-15, r^2= 2.6E+00
   Bfn.  Coefficient  Atom+Function         Bfn.  Coefficient  Atom+Function  
  ----- ------------  ---------------      ----- ------------  ---------------
     2      1.048833  1 H  s                  6     -1.048833  3 H  s          
     5      0.904957  3 H  s                  1     -0.904957  1 H  s          

 Vector    6  Occ=0.000000E+00  E= 1.312078E+00
              MO Center=  0.0E+00,  0.0E+00, -1.5E-16, r^2= 1.5E+00
   Bfn.  Coefficient  Atom+Function         Bfn.  Coefficient  Atom+Function  
  ----- ------------  ---------------      ----- ------------  ---------------
     4      2.231073  2 H  s                  2     -1.254626  1 H  s          
     6     -1.254626  3 H  s                  3     -1.194799  2 H  s          
     5      0.643175  3 H  s                  1      0.643175  1 H  s          


 center of mass
 --------------
 x =   0.00000000 y =   0.00000000 z =   0.00000000

 moments of inertia (a.u.)
 ------------------
           6.286314184945           0.000000000000           0.000000000000
           0.000000000000           6.286314184945           0.000000000000
           0.000000000000           0.000000000000           0.000000000000

  Mulliken analysis of the total density
  --------------------------------------

    Atom       Charge   Shell Charges
 -----------   ------   -------------------------------------------------------
    1 H    1     0.94   0.43  0.51
    2 H    1     1.13   0.49  0.63
    3 H    1     0.94   0.43  0.51

 Mulliken analysis of the open-shell density
 -------------------------------------------

    Atom       Charge   Shell Charges
 -----------   ------   -------------------------------------------------------
    1 H    1     0.50   0.19  0.31
    2 H    1     0.00   0.00  0.00
    3 H    1     0.50   0.19  0.31

       Multipole analysis of the density wrt the origin
       ------------------------------------------------

     L   x y z        total         open         nuclear
     -   - - -        -----         ----         -------
     0   0 0 0      0.000000     -1.000000      3.000000

     1   1 0 0      0.000000      0.000000      0.000000
     1   0 1 0      0.000000      0.000000      0.000000
     1   0 0 1      0.000000      0.000000      0.000000

     2   2 0 0     -2.535374     -0.926853      0.000000
     2   1 1 0      0.000000      0.000000      0.000000
     2   1 0 1      0.000000      0.000000      0.000000
     2   0 2 0     -2.535374     -0.926853      0.000000
     2   0 1 1      0.000000      0.000000      0.000000
     2   0 0 2     -2.508969     -4.981258      6.237506


 Parallel integral file used       1 records with       0 large values

                              NWChem Gradients Module
                              -----------------------


                              hexaachloroethene C2Cl6


  wavefunction    =   ROHF    



                         ROHF ENERGY GRADIENTS

    atom               coordinates                        gradient
                 x          y          z           x          y          z
   1 h       0.000000   0.000000   1.765999    0.000000   0.000000   0.007202
   2 h       0.000000   0.000000   0.000000    0.000000   0.000000   0.000000
   3 h       0.000000   0.000000  -1.765999    0.000000   0.000000  -0.007202

                 ----------------------------------------
                 |  Time  |  1-e(secs)   |  2-e(secs)   |
                 ----------------------------------------
                 |  CPU   |       0.00   |       0.00   |
                 ----------------------------------------
                 |  WALL  |       0.00   |       0.00   |
                 ----------------------------------------
 Starting MD
 Predicting step : 1
                                 NWChem SCF Module
                                 -----------------


                              hexaachloroethene C2Cl6



  ao basis        = "ao basis"
  functions       =     6
  atoms           =     3
  closed shells   =     1
  open shells     =     1
  charge          =   0.00
  wavefunction    = ROHF
  input vectors   = ./data/c2cl6.movecs
  output vectors  = ./data/c2cl6.movecs
  use symmetry    = F
  symmetry adapt  = F


 Summary of "ao basis" -> "ao basis" (spherical)
 ------------------------------------------------------------------------------
       Tag                 Description            Shells   Functions and Types
 ---------------- ------------------------------  ------  ---------------------
 h                          6-31+G*                  2        2   2s



 Forming initial guess at       0.3s


 Loading old vectors from job with title :

hexaachloroethene C2Cl6


 Starting SCF solution at       0.3s



 ----------------------------------------------
         Quadratically convergent ROHF

 Convergence threshold     :          1.000E-04
 Maximum no. of iterations :           20
 Final Fock-matrix accuracy:          1.000E-07
 ----------------------------------------------


 #quartets = 2.310E+02 #integrals = 2.310E+02 #direct =  0.0% #cached =100.0%


 Integral file          = ./perm/c2cl6.aoints.0
 Record size in doubles =  65536        No. of integs per rec  =  43688
 Max. records in memory =      2        Max. records in file   = 107189
 No. of bits per label  =      8        No. of bits per value  =     64


              iter       energy          gnorm     gmax       time
             ----- ------------------- --------- --------- --------
                 1       -1.5851478584  7.77E-04  6.45E-04      0.1
                 2       -1.5851479535  4.29E-06  2.55E-06      0.1


       Final ROHF results 
       ------------------ 

         Total SCF energy =     -1.585147953486
      One-electron energy =     -4.337274199490
      Two-electron energy =      1.335780509852
 Nuclear repulsion energy =      1.416345736152

        Time for solution =      0.0s


             Final eigenvalues
             -----------------

              1      
    1   -0.6407
    2   -0.1586
    3    0.3065
    4    0.9038
    5    1.0031
    6    1.3126

                       ROHF Final Molecular Orbital Analysis
                       -------------------------------------

 Vector    1  Occ=2.000000E+00  E=-6.407248E-01
              MO Center=  0.0E+00,  0.0E+00,  6.9E-04, r^2= 9.8E-01
   Bfn.  Coefficient  Atom+Function         Bfn.  Coefficient  Atom+Function  
  ----- ------------  ---------------      ----- ------------  ---------------
     4      0.337363  2 H  s                  3      0.315478  2 H  s          
     1      0.209047  1 H  s                  5      0.208738  3 H  s          

 Vector    2  Occ=1.000000E+00  E=-1.586007E-01
              MO Center=  0.0E+00,  0.0E+00, -1.4E-03, r^2= 1.9E+00
   Bfn.  Coefficient  Atom+Function         Bfn.  Coefficient  Atom+Function  
  ----- ------------  ---------------      ----- ------------  ---------------
     6      0.574964  3 H  s                  2     -0.574075  1 H  s          
     5      0.316002  3 H  s                  1     -0.315579  1 H  s          

 Vector    3  Occ=0.000000E+00  E= 3.064884E-01
              MO Center=  0.0E+00,  0.0E+00,  8.8E-04, r^2= 3.1E+00
   Bfn.  Coefficient  Atom+Function         Bfn.  Coefficient  Atom+Function  
  ----- ------------  ---------------      ----- ------------  ---------------
     4      2.427793  2 H  s                  2     -1.635381  1 H  s          
     6     -1.634233  3 H  s                  3      0.244640  2 H  s          

 Vector    4  Occ=0.000000E+00  E= 9.038090E-01
              MO Center=  0.0E+00,  0.0E+00,  7.3E-04, r^2= 1.6E+00
   Bfn.  Coefficient  Atom+Function         Bfn.  Coefficient  Atom+Function  
  ----- ------------  ---------------      ----- ------------  ---------------
     4      1.425526  2 H  s                  3     -0.701373  2 H  s          
     1     -0.681467  1 H  s                  5     -0.680497  3 H  s          

 Vector    5  Occ=0.000000E+00  E= 1.003136E+00
              MO Center=  0.0E+00,  0.0E+00, -1.7E-03, r^2= 2.6E+00
   Bfn.  Coefficient  Atom+Function         Bfn.  Coefficient  Atom+Function  
  ----- ------------  ---------------      ----- ------------  ---------------
     6      1.049790  3 H  s                  2     -1.048360  1 H  s          
     5     -0.905590  3 H  s                  1      0.904206  1 H  s          

 Vector    6  Occ=0.000000E+00  E= 1.312592E+00
              MO Center=  0.0E+00,  0.0E+00,  8.0E-04, r^2= 1.5E+00
   Bfn.  Coefficient  Atom+Function         Bfn.  Coefficient  Atom+Function  
  ----- ------------  ---------------      ----- ------------  ---------------
     4      2.231418  2 H  s                  2     -1.255699  1 H  s          
     6     -1.254473  3 H  s                  3     -1.194768  2 H  s          
     1      0.644249  1 H  s                  5      0.643151  3 H  s          


 center of mass
 --------------
 x =   0.00000000 y =   0.00000000 z =   0.00000000

 moments of inertia (a.u.)
 ------------------
           6.279956146999           0.000000000000           0.000000000000
           0.000000000000           6.279956146999           0.000000000000
           0.000000000000           0.000000000000           0.000000000000

  Mulliken analysis of the total density
  --------------------------------------

    Atom       Charge   Shell Charges
 -----------   ------   -------------------------------------------------------
    1 H    1     0.94   0.43  0.51
    2 H    1     1.13   0.49  0.63
    3 H    1     0.94   0.43  0.51

 Mulliken analysis of the open-shell density
 -------------------------------------------

    Atom       Charge   Shell Charges
 -----------   ------   -------------------------------------------------------
    1 H    1     0.50   0.19  0.30
    2 H    1     0.00   0.00  0.00
    3 H    1     0.50   0.19  0.31

       Multipole analysis of the density wrt the origin
       ------------------------------------------------

     L   x y z        total         open         nuclear
     -   - - -        -----         ----         -------
     0   0 0 0      0.000000     -1.000000      3.000000

     1   1 0 0      0.000000      0.000000      0.000000
     1   0 1 0      0.000000      0.000000      0.000000
     1   0 0 1      0.000084      0.002682      0.000000

     2   2 0 0     -2.534698     -0.926774      0.000000
     2   1 1 0      0.000000      0.000000      0.000000
     2   1 0 1      0.000000      0.000000      0.000000
     2   0 2 0     -2.534698     -0.926774      0.000000
     2   0 1 1      0.000000      0.000000      0.000000
     2   0 0 2     -2.509545     -4.978566      6.231197


 Parallel integral file used       1 records with       0 large values

                              NWChem Gradients Module
                              -----------------------


                              hexaachloroethene C2Cl6


  wavefunction    =   ROHF    



                         ROHF ENERGY GRADIENTS

    atom               coordinates                        gradient
                 x          y          z           x          y          z
   1 h       0.000000   0.000000   1.764995    0.000000   0.000000   0.007134
   2 h       0.000000   0.000000   0.000222    0.000000   0.000000  -0.000157
   3 h       0.000000   0.000000  -1.765217    0.000000   0.000000  -0.006977

                 ----------------------------------------
                 |  Time  |  1-e(secs)   |  2-e(secs)   |
                 ----------------------------------------
                 |  CPU   |       0.00   |       0.00   |
                 ----------------------------------------
                 |  WALL  |       0.00   |       0.00   |
                 ----------------------------------------
 Correcting step : 1
 Predicting step : 2
                                 NWChem SCF Module
                                 -----------------


                              hexaachloroethene C2Cl6



  ao basis        = "ao basis"
  functions       =     6
  atoms           =     3
  closed shells   =     1
  open shells     =     1
  charge          =   0.00
  wavefunction    = ROHF
  input vectors   = ./data/c2cl6.movecs
  output vectors  = ./data/c2cl6.movecs
  use symmetry    = F
  symmetry adapt  = F


 Summary of "ao basis" -> "ao basis" (spherical)
 ------------------------------------------------------------------------------
       Tag                 Description            Shells   Functions and Types
 ---------------- ------------------------------  ------  ---------------------
 h                          6-31+G*                  2        2   2s



 Forming initial guess at       0.5s


 Loading old vectors from job with title :

hexaachloroethene C2Cl6


 Starting SCF solution at       0.5s



 ----------------------------------------------
         Quadratically convergent ROHF

 Convergence threshold     :          1.000E-04
 Maximum no. of iterations :           20
 Final Fock-matrix accuracy:          1.000E-07
 ----------------------------------------------


 #quartets = 2.310E+02 #integrals = 2.310E+02 #direct =  0.0% #cached =100.0%


 Integral file          = ./perm/c2cl6.aoints.0
 Record size in doubles =  65536        No. of integs per rec  =  43688
 Max. records in memory =      2        Max. records in file   = 107189
 No. of bits per label  =      8        No. of bits per value  =     64


              iter       energy          gnorm     gmax       time
             ----- ------------------- --------- --------- --------
                 1       -1.5851835511  2.18E-03  1.90E-03      0.2
                 2       -1.5851840879  7.47E-06  4.02E-06      0.2


       Final ROHF results 
       ------------------ 

         Total SCF energy =     -1.585184087867
      One-electron energy =     -4.340518626416
      Two-electron energy =      1.336871505443
 Nuclear repulsion energy =      1.418463033107

        Time for solution =      0.0s


             Final eigenvalues
             -----------------

              1      
    1   -0.6413
    2   -0.1584
    3    0.3069
    4    0.9034
    5    1.0027
    6    1.3141

                       ROHF Final Molecular Orbital Analysis
                       -------------------------------------

 Vector    1  Occ=2.000000E+00  E=-6.413340E-01
              MO Center=  0.0E+00,  0.0E+00,  1.5E-03, r^2= 9.8E-01
   Bfn.  Coefficient  Atom+Function         Bfn.  Coefficient  Atom+Function  
  ----- ------------  ---------------      ----- ------------  ---------------
     4      0.337167  2 H  s                  3      0.315771  2 H  s          
     1      0.209355  1 H  s                  5      0.208673  3 H  s          

 Vector    2  Occ=1.000000E+00  E=-1.583589E-01
              MO Center=  0.0E+00,  0.0E+00, -3.1E-03, r^2= 1.9E+00
   Bfn.  Coefficient  Atom+Function         Bfn.  Coefficient  Atom+Function  
  ----- ------------  ---------------      ----- ------------  ---------------
     6      0.575871  3 H  s                  2     -0.573918  1 H  s          
     5      0.316424  3 H  s                  1     -0.315492  1 H  s          

 Vector    3  Occ=0.000000E+00  E= 3.068722E-01
              MO Center=  0.0E+00,  0.0E+00,  1.9E-03, r^2= 3.1E+00
   Bfn.  Coefficient  Atom+Function         Bfn.  Coefficient  Atom+Function  
  ----- ------------  ---------------      ----- ------------  ---------------
     4      2.434643  2 H  s                  2     -1.640261  1 H  s          
     6     -1.637718  3 H  s                  3      0.244685  2 H  s          

 Vector    4  Occ=0.000000E+00  E= 9.034363E-01
              MO Center=  0.0E+00,  0.0E+00,  1.6E-03, r^2= 1.6E+00
   Bfn.  Coefficient  Atom+Function         Bfn.  Coefficient  Atom+Function  
  ----- ------------  ---------------      ----- ------------  ---------------
     4      1.434304  2 H  s                  3     -0.702111  2 H  s          
     1     -0.681016  1 H  s                  5     -0.678854  3 H  s          

 Vector    5  Occ=0.000000E+00  E= 1.002727E+00
              MO Center=  0.0E+00,  0.0E+00, -3.8E-03, r^2= 2.6E+00
   Bfn.  Coefficient  Atom+Function         Bfn.  Coefficient  Atom+Function  
  ----- ------------  ---------------      ----- ------------  ---------------
     6      1.051365  3 H  s                  2     -1.048215  1 H  s          
     5     -0.906259  3 H  s                  1      0.903186  1 H  s          

 Vector    6  Occ=0.000000E+00  E= 1.314115E+00
              MO Center=  0.0E+00,  0.0E+00,  1.8E-03, r^2= 1.5E+00
   Bfn.  Coefficient  Atom+Function         Bfn.  Coefficient  Atom+Function  
  ----- ------------  ---------------      ----- ------------  ---------------
     4      2.232436  2 H  s                  2     -1.257798  1 H  s          
     6     -1.255083  3 H  s                  3     -1.194679  2 H  s          
     1      0.646460  1 H  s                  5      0.644032  3 H  s          


 center of mass
 --------------
 x =   0.00000000 y =   0.00000000 z =   0.00000000

 moments of inertia (a.u.)
 ------------------
           6.261224027898           0.000000000000           0.000000000000
           0.000000000000           6.261224027898           0.000000000000
           0.000000000000           0.000000000000           0.000000000000

  Mulliken analysis of the total density
  --------------------------------------

    Atom       Charge   Shell Charges
 -----------   ------   -------------------------------------------------------
    1 H    1     0.94   0.43  0.51
    2 H    1     1.13   0.49  0.63
    3 H    1     0.94   0.43  0.51

 Mulliken analysis of the open-shell density
 -------------------------------------------

    Atom       Charge   Shell Charges
 -----------   ------   -------------------------------------------------------
    1 H    1     0.50   0.19  0.30
    2 H    1     0.00   0.00  0.00
    3 H    1     0.50   0.20  0.31

       Multipole analysis of the density wrt the origin
       ------------------------------------------------

     L   x y z        total         open         nuclear
     -   - - -        -----         ----         -------
     0   0 0 0      0.000000     -1.000000      3.000000

     1   1 0 0      0.000000      0.000000      0.000000
     1   0 1 0      0.000000      0.000000      0.000000
     1   0 0 1      0.000181      0.005903      0.000000

     2   2 0 0     -2.532705     -0.926543      0.000000
     2   1 1 0      0.000000      0.000000      0.000000
     2   1 0 1      0.000000      0.000000      0.000000
     2   0 2 0     -2.532705     -0.926543      0.000000
     2   0 1 1      0.000000      0.000000      0.000000
     2   0 0 2     -2.511253     -4.970645      6.212610


 Parallel integral file used       1 records with       0 large values

                              NWChem Gradients Module
                              -----------------------


                              hexaachloroethene C2Cl6


  wavefunction    =   ROHF    



                         ROHF ENERGY GRADIENTS

    atom               coordinates                        gradient
                 x          y          z           x          y          z
   1 h       0.000000   0.000000   1.762225    0.000000   0.000000   0.006792
   2 h       0.000000   0.000000   0.000492    0.000000   0.000000  -0.000344
   3 h       0.000000   0.000000  -1.762717    0.000000   0.000000  -0.006448

                 ----------------------------------------
                 |  Time  |  1-e(secs)   |  2-e(secs)   |
                 ----------------------------------------
                 |  CPU   |       0.00   |       0.01   |
                 ----------------------------------------
                 |  WALL  |       0.00   |       0.00   |
                 ----------------------------------------
 Correcting step : 2
 Predicting step : 3
                                 NWChem SCF Module
                                 -----------------


                              hexaachloroethene C2Cl6



  ao basis        = "ao basis"
  functions       =     6
  atoms           =     3
  closed shells   =     1
  open shells     =     1
  charge          =   0.00
  wavefunction    = ROHF
  input vectors   = ./data/c2cl6.movecs
  output vectors  = ./data/c2cl6.movecs
  use symmetry    = F
  symmetry adapt  = F


 Summary of "ao basis" -> "ao basis" (spherical)
 ------------------------------------------------------------------------------
       Tag                 Description            Shells   Functions and Types
 ---------------- ------------------------------  ------  ---------------------
 h                          6-31+G*                  2        2   2s



 Forming initial guess at       0.6s


 Loading old vectors from job with title :

hexaachloroethene C2Cl6


 Starting SCF solution at       0.6s



 ----------------------------------------------
         Quadratically convergent ROHF

 Convergence threshold     :          1.000E-04
 Maximum no. of iterations :           20
 Final Fock-matrix accuracy:          1.000E-07
 ----------------------------------------------


 #quartets = 2.310E+02 #integrals = 2.310E+02 #direct =  0.0% #cached =100.0%


 Integral file          = ./perm/c2cl6.aoints.0
 Record size in doubles =  65536        No. of integs per rec  =  43688
 Max. records in memory =      2        Max. records in file   = 107189
 No. of bits per label  =      8        No. of bits per value  =     64


              iter       energy          gnorm     gmax       time
             ----- ------------------- --------- --------- --------
                 1       -1.5852364561  3.53E-03  3.09E-03      0.2
                 2       -1.5852378129  1.08E-05  5.70E-06      0.2


       Final ROHF results 
       ------------------ 

         Total SCF energy =     -1.585237812876
      One-electron energy =     -4.345787771143
      Two-electron energy =      1.338643268217
 Nuclear repulsion energy =      1.421906690050

        Time for solution =      0.0s


             Final eigenvalues
             -----------------

              1      
    1   -0.6423
    2   -0.1580
    3    0.3075
    4    0.9028
    5    1.0021
    6    1.3166

                       ROHF Final Molecular Orbital Analysis
                       -------------------------------------

 Vector    1  Occ=2.000000E+00  E=-6.423238E-01
              MO Center=  0.0E+00,  0.0E+00,  2.6E-03, r^2= 9.7E-01
   Bfn.  Coefficient  Atom+Function         Bfn.  Coefficient  Atom+Function  
  ----- ------------  ---------------      ----- ------------  ---------------
     4      0.336850  2 H  s                  3      0.316246  2 H  s          
     1      0.209790  1 H  s                  5      0.208632  3 H  s          

 Vector    2  Occ=1.000000E+00  E=-1.579650E-01
              MO Center=  0.0E+00,  0.0E+00, -5.3E-03, r^2= 1.9E+00
   Bfn.  Coefficient  Atom+Function         Bfn.  Coefficient  Atom+Function  
  ----- ------------  ---------------      ----- ------------  ---------------
     6      0.577160  3 H  s                  2     -0.573850  1 H  s          
     5      0.317020  3 H  s                  1     -0.315441  1 H  s          

 Vector    3  Occ=0.000000E+00  E= 3.074918E-01
              MO Center=  0.0E+00,  0.0E+00,  3.3E-03, r^2= 3.1E+00
   Bfn.  Coefficient  Atom+Function         Bfn.  Coefficient  Atom+Function  
  ----- ------------  ---------------      ----- ------------  ---------------
     4      2.445794  2 H  s                  2     -1.647965  1 H  s          
     6     -1.643620  3 H  s                  3      0.244757  2 H  s          

 Vector    4  Occ=0.000000E+00  E= 9.028311E-01
              MO Center=  0.0E+00,  0.0E+00,  2.8E-03, r^2= 1.6E+00
   Bfn.  Coefficient  Atom+Function         Bfn.  Coefficient  Atom+Function  
  ----- ------------  ---------------      ----- ------------  ---------------
     4      1.448588  2 H  s                  3     -0.703287  2 H  s          
     1     -0.680101  1 H  s                  5     -0.676379  3 H  s          

 Vector    5  Occ=0.000000E+00  E= 1.002065E+00
              MO Center=  0.0E+00,  0.0E+00, -6.5E-03, r^2= 2.6E+00
   Bfn.  Coefficient  Atom+Function         Bfn.  Coefficient  Atom+Function  
  ----- ------------  ---------------      ----- ------------  ---------------
     6      1.053608  3 H  s                  2     -1.048293  1 H  s          
     5     -0.907066  3 H  s                  1      0.901808  1 H  s          

 Vector    6  Occ=0.000000E+00  E= 1.316602E+00
              MO Center=  0.0E+00,  0.0E+00,  3.0E-03, r^2= 1.5E+00
   Bfn.  Coefficient  Atom+Function         Bfn.  Coefficient  Atom+Function  
  ----- ------------  ---------------      ----- ------------  ---------------
     4      2.234081  2 H  s                  2     -1.260930  1 H  s          
     6     -1.256312  3 H  s                  3     -1.194555  2 H  s          
     1      0.649809  1 H  s                  5      0.645687  3 H  s          


 center of mass
 --------------
 x =   0.00000000 y =   0.00000000 z =   0.00000000

 moments of inertia (a.u.)
 ------------------
           6.230937224133           0.000000000000           0.000000000000
           0.000000000000           6.230937224133           0.000000000000
           0.000000000000           0.000000000000           0.000000000000

  Mulliken analysis of the total density
  --------------------------------------

    Atom       Charge   Shell Charges
 -----------   ------   -------------------------------------------------------
    1 H    1     0.94   0.43  0.51
    2 H    1     1.13   0.49  0.63
    3 H    1     0.94   0.43  0.51

 Mulliken analysis of the open-shell density
 -------------------------------------------

    Atom       Charge   Shell Charges
 -----------   ------   -------------------------------------------------------
    1 H    1     0.50   0.19  0.30
    2 H    1     0.00   0.00  0.00
    3 H    1     0.50   0.20  0.31

       Multipole analysis of the density wrt the origin
       ------------------------------------------------

     L   x y z        total         open         nuclear
     -   - - -        -----         ----         -------
     0   0 0 0      0.000000     -1.000000      3.000000

     1   1 0 0      0.000000      0.000000      0.000000
     1   0 1 0      0.000000      0.000000      0.000000
     1   0 0 1      0.000310      0.009986      0.000000

     2   2 0 0     -2.529469     -0.926170      0.000000
     2   1 1 0      0.000000      0.000000      0.000000
     2   1 0 1      0.000000      0.000000      0.000000
     2   0 2 0     -2.529469     -0.926170      0.000000
     2   0 1 1      0.000000      0.000000      0.000000
     2   0 0 2     -2.514017     -4.957841      6.182559


 Parallel integral file used       1 records with       0 large values

                              NWChem Gradients Module
                              -----------------------


                              hexaachloroethene C2Cl6


  wavefunction    =   ROHF    



                         ROHF ENERGY GRADIENTS

    atom               coordinates                        gradient
                 x          y          z           x          y          z
   1 h       0.000000   0.000000   1.757784    0.000000   0.000000   0.006197
   2 h       0.000000   0.000000   0.000840    0.000000   0.000000  -0.000578
   3 h       0.000000   0.000000  -1.758623    0.000000   0.000000  -0.005619

                 ----------------------------------------
                 |  Time  |  1-e(secs)   |  2-e(secs)   |
                 ----------------------------------------
                 |  CPU   |       0.00   |       0.01   |
                 ----------------------------------------
                 |  WALL  |       0.00   |       0.00   |
                 ----------------------------------------
 Correcting step : 3
 Predicting step : 4
                                 NWChem SCF Module
                                 -----------------


                              hexaachloroethene C2Cl6



  ao basis        = "ao basis"
  functions       =     6
  atoms           =     3
  closed shells   =     1
  open shells     =     1
  charge          =   0.00
  wavefunction    = ROHF
  input vectors   = ./data/c2cl6.movecs
  output vectors  = ./data/c2cl6.movecs
  use symmetry    = F
  symmetry adapt  = F


 Summary of "ao basis" -> "ao basis" (spherical)
 ------------------------------------------------------------------------------
       Tag                 Description            Shells   Functions and Types
 ---------------- ------------------------------  ------  ---------------------
 h                          6-31+G*                  2        2   2s



 Forming initial guess at       0.8s


 Loading old vectors from job with title :

hexaachloroethene C2Cl6


 Starting SCF solution at       0.8s



 ----------------------------------------------
         Quadratically convergent ROHF

 Convergence threshold     :          1.000E-04
 Maximum no. of iterations :           20
 Final Fock-matrix accuracy:          1.000E-07
 ----------------------------------------------


 #quartets = 2.310E+02 #integrals = 2.310E+02 #direct =  0.0% #cached =100.0%


 Integral file          = ./perm/c2cl6.aoints.0
 Record size in doubles =  65536        No. of integs per rec  =  43688
 Max. records in memory =      2        Max. records in file   = 107189
 No. of bits per label  =      8        No. of bits per value  =     64


              iter       energy          gnorm     gmax       time
             ----- ------------------- --------- --------- --------
                 1       -1.5852980701  4.76E-03  4.17E-03      0.3
                 2       -1.5853005536  1.51E-05  8.07E-06      0.3


       Final ROHF results 
       ------------------ 

         Total SCF energy =     -1.585300553558
      One-electron energy =     -4.352888325870
      Two-electron energy =      1.341030108632
 Nuclear repulsion energy =      1.426557663680

        Time for solution =      0.0s


             Final eigenvalues
             -----------------

              1      
    1   -0.6437
    2   -0.1574
    3    0.3083
    4    0.9020
    5    1.0012
    6    1.3200

                       ROHF Final Molecular Orbital Analysis
                       -------------------------------------

 Vector    1  Occ=2.000000E+00  E=-6.436592E-01
              MO Center=  0.0E+00,  0.0E+00,  4.0E-03, r^2= 9.7E-01
   Bfn.  Coefficient  Atom+Function         Bfn.  Coefficient  Atom+Function  
  ----- ------------  ---------------      ----- ------------  ---------------
     4      0.336421  2 H  s                  3      0.316886  2 H  s          
     1      0.210390  1 H  s                  5      0.208562  3 H  s          

 Vector    2  Occ=1.000000E+00  E=-1.574321E-01
              MO Center=  0.0E+00,  0.0E+00, -8.3E-03, r^2= 1.9E+00
   Bfn.  Coefficient  Atom+Function         Bfn.  Coefficient  Atom+Function  
  ----- ------------  ---------------      ----- ------------  ---------------
     6      0.578945  3 H  s                  2     -0.573719  1 H  s          
     5      0.317838  3 H  s                  1     -0.315356  1 H  s          

 Vector    3  Occ=0.000000E+00  E= 3.083192E-01
              MO Center=  0.0E+00,  0.0E+00,  5.2E-03, r^2= 3.1E+00
   Bfn.  Coefficient  Atom+Function         Bfn.  Coefficient  Atom+Function  
  ----- ------------  ---------------      ----- ------------  ---------------
     4      2.460874  2 H  s                  2     -1.658441  1 H  s          
     6     -1.651523  3 H  s                  3      0.244856  2 H  s          

 Vector    4  Occ=0.000000E+00  E= 9.020150E-01
              MO Center=  0.0E+00,  0.0E+00,  4.4E-03, r^2= 1.6E+00
   Bfn.  Coefficient  Atom+Function         Bfn.  Coefficient  Atom+Function  
  ----- ------------  ---------------      ----- ------------  ---------------
     4      1.467894  2 H  s                  3     -0.704832  2 H  s          
     1     -0.678956  1 H  s                  5     -0.672971  3 H  s          

 Vector    5  Occ=0.000000E+00  E= 1.001175E+00
              MO Center=  0.0E+00,  0.0E+00, -1.0E-02, r^2= 2.6E+00
   Bfn.  Coefficient  Atom+Function         Bfn.  Coefficient  Atom+Function  
  ----- ------------  ---------------      ----- ------------  ---------------
     6      1.056669  3 H  s                  2     -1.048356  1 H  s          
     5     -0.908241  3 H  s                  1      0.899856  1 H  s          

 Vector    6  Occ=0.000000E+00  E= 1.319983E+00
              MO Center=  0.0E+00,  0.0E+00,  4.7E-03, r^2= 1.5E+00
   Bfn.  Coefficient  Atom+Function         Bfn.  Coefficient  Atom+Function  
  ----- ------------  ---------------      ----- ------------  ---------------
     4      2.236284  2 H  s                  2     -1.265176  1 H  s          
     6     -1.257871  3 H  s                  3     -1.194425  2 H  s          
     1      0.654354  1 H  s                  5      0.647848  3 H  s          


 center of mass
 --------------
 x =   0.00000000 y =   0.00000000 z =   0.00000000

 moments of inertia (a.u.)
 ------------------
           6.190383771754           0.000000000000           0.000000000000
           0.000000000000           6.190383771754           0.000000000000
           0.000000000000           0.000000000000           0.000000000000

  Mulliken analysis of the total density
  --------------------------------------

    Atom       Charge   Shell Charges
 -----------   ------   -------------------------------------------------------
    1 H    1     0.94   0.43  0.51
    2 H    1     1.13   0.50  0.63
    3 H    1     0.94   0.43  0.51

 Mulliken analysis of the open-shell density
 -------------------------------------------

    Atom       Charge   Shell Charges
 -----------   ------   -------------------------------------------------------
    1 H    1     0.50   0.19  0.30
    2 H    1     0.00   0.00  0.00
    3 H    1     0.50   0.20  0.31

       Multipole analysis of the density wrt the origin
       ------------------------------------------------

     L   x y z        total         open         nuclear
     -   - - -        -----         ----         -------
     0   0 0 0      0.000000     -1.000000      3.000000

     1   1 0 0      0.000000      0.000000      0.000000
     1   0 1 0      0.000000      0.000000      0.000000
     1   0 0 1      0.000507      0.015701      0.000000

     2   2 0 0     -2.525112     -0.925671      0.000000
     2   1 1 0      0.000000      0.000000      0.000000
     2   1 0 1      0.000000      0.000000      0.000000
     2   0 2 0     -2.525112     -0.925671      0.000000
     2   0 1 1      0.000000      0.000000      0.000000
     2   0 0 2     -2.517735     -4.940716      6.142320


 Parallel integral file used       1 records with       0 large values

                              NWChem Gradients Module
                              -----------------------


                              hexaachloroethene C2Cl6


  wavefunction    =   ROHF    



                         ROHF ENERGY GRADIENTS

    atom               coordinates                        gradient
                 x          y          z           x          y          z
   1 h       0.000000   0.000000   1.751805    0.000000   0.000000   0.005388
   2 h       0.000000   0.000000   0.001335    0.000000   0.000000  -0.000900
   3 h       0.000000   0.000000  -1.753140    0.000000   0.000000  -0.004488

                 ----------------------------------------
                 |  Time  |  1-e(secs)   |  2-e(secs)   |
                 ----------------------------------------
                 |  CPU   |       0.00   |       0.00   |
                 ----------------------------------------
                 |  WALL  |       0.00   |       0.00   |
                 ----------------------------------------
 Correcting step : 4
 Predicting step : 5
                                 NWChem SCF Module
                                 -----------------


                              hexaachloroethene C2Cl6



  ao basis        = "ao basis"
  functions       =     6
  atoms           =     3
  closed shells   =     1
  open shells     =     1
  charge          =   0.00
  wavefunction    = ROHF
  input vectors   = ./data/c2cl6.movecs
  output vectors  = ./data/c2cl6.movecs
  use symmetry    = F
  symmetry adapt  = F


 Summary of "ao basis" -> "ao basis" (spherical)
 ------------------------------------------------------------------------------
       Tag                 Description            Shells   Functions and Types
 ---------------- ------------------------------  ------  ---------------------
 h                          6-31+G*                  2        2   2s



 Forming initial guess at       1.0s


 Loading old vectors from job with title :

hexaachloroethene C2Cl6


 Starting SCF solution at       1.0s



 ----------------------------------------------
         Quadratically convergent ROHF

 Convergence threshold     :          1.000E-04
 Maximum no. of iterations :           20
 Final Fock-matrix accuracy:          1.000E-07
 ----------------------------------------------


 #quartets = 2.310E+02 #integrals = 2.310E+02 #direct =  0.0% #cached =100.0%


 Integral file          = ./perm/c2cl6.aoints.0
 Record size in doubles =  65536        No. of integs per rec  =  43688
 Max. records in memory =      2        Max. records in file   = 107189
 No. of bits per label  =      8        No. of bits per value  =     64


              iter       energy          gnorm     gmax       time
             ----- ------------------- --------- --------- --------
                 1       -1.5853583368  5.82E-03  5.08E-03      0.3
                 2       -1.5853621451  2.05E-05  1.13E-05      0.3


       Final ROHF results 
       ------------------ 

         Total SCF energy =     -1.585362145124
      One-electron energy =     -4.361539502833
      Two-electron energy =      1.343936532303
 Nuclear repulsion energy =      1.432240825406

        Time for solution =      0.0s


             Final eigenvalues
             -----------------

              1      
    1   -0.6453
    2   -0.1568
    3    0.3093
    4    0.9010
    5    1.0001
    6    1.3241

                       ROHF Final Molecular Orbital Analysis
                       -------------------------------------

 Vector    1  Occ=2.000000E+00  E=-6.452883E-01
              MO Center=  0.0E+00,  0.0E+00,  6.1E-03, r^2= 9.6E-01
   Bfn.  Coefficient  Atom+Function         Bfn.  Coefficient  Atom+Function  
  ----- ------------  ---------------      ----- ------------  ---------------
     4      0.335900  2 H  s                  3      0.317666  2 H  s          
     1      0.211193  1 H  s                  5      0.208401  3 H  s          

 Vector    2  Occ=1.000000E+00  E=-1.567798E-01
              MO Center=  0.0E+00,  0.0E+00, -1.3E-02, r^2= 1.9E+00
   Bfn.  Coefficient  Atom+Function         Bfn.  Coefficient  Atom+Function  
  ----- ------------  ---------------      ----- ------------  ---------------
     6      0.581342  3 H  s                  2     -0.573354  1 H  s          
     5      0.318927  3 H  s                  1     -0.315154  1 H  s          

 Vector    3  Occ=0.000000E+00  E= 3.093157E-01
              MO Center=  0.0E+00,  0.0E+00,  7.9E-03, r^2= 3.1E+00
   Bfn.  Coefficient  Atom+Function         Bfn.  Coefficient  Atom+Function  
  ----- ------------  ---------------      ----- ------------  ---------------
     4      2.479329  2 H  s                  2     -1.671552  1 H  s          
     6     -1.660870  3 H  s                  3      0.244978  2 H  s          

 Vector    4  Occ=0.000000E+00  E= 9.010192E-01
              MO Center=  0.0E+00,  0.0E+00,  6.8E-03, r^2= 1.6E+00
   Bfn.  Coefficient  Atom+Function         Bfn.  Coefficient  Atom+Function  
  ----- ------------  ---------------      ----- ------------  ---------------
     4      1.491506  2 H  s                  3     -0.706651  2 H  s          
     1     -0.677875  1 H  s                  5     -0.668526  3 H  s          

 Vector    5  Occ=0.000000E+00  E= 1.000095E+00
              MO Center=  0.0E+00,  0.0E+00, -1.6E-02, r^2= 2.6E+00
   Bfn.  Coefficient  Atom+Function         Bfn.  Coefficient  Atom+Function  
  ----- ------------  ---------------      ----- ------------  ---------------
     6      1.060685  3 H  s                  2     -1.048135  1 H  s          
     5     -0.910050  3 H  s                  1      0.897086  1 H  s          

 Vector    6  Occ=0.000000E+00  E= 1.324148E+00
              MO Center=  0.0E+00,  0.0E+00,  7.2E-03, r^2= 1.5E+00
   Bfn.  Coefficient  Atom+Function         Bfn.  Coefficient  Atom+Function  
  ----- ------------  ---------------      ----- ------------  ---------------
     4      2.238947  2 H  s                  2     -1.270599  1 H  s          
     6     -1.259412  3 H  s                  3     -1.194324  2 H  s          
     1      0.660126  1 H  s                  5      0.650191  3 H  s          


 center of mass
 --------------
 x =   0.00000000 y =   0.00000000 z =   0.00000000

 moments of inertia (a.u.)
 ------------------
           6.141375681285           0.000000000000           0.000000000000
           0.000000000000           6.141375681285           0.000000000000
           0.000000000000           0.000000000000           0.000000000000

  Mulliken analysis of the total density
  --------------------------------------

    Atom       Charge   Shell Charges
 -----------   ------   -------------------------------------------------------
    1 H    1     0.94   0.43  0.50
    2 H    1     1.13   0.50  0.63
    3 H    1     0.94   0.43  0.51

 Mulliken analysis of the open-shell density
 -------------------------------------------

    Atom       Charge   Shell Charges
 -----------   ------   -------------------------------------------------------
    1 H    1     0.49   0.19  0.30
    2 H    1     0.00   0.00  0.00
    3 H    1     0.51   0.20  0.31

       Multipole analysis of the density wrt the origin
       ------------------------------------------------

     L   x y z        total         open         nuclear
     -   - - -        -----         ----         -------
     0   0 0 0      0.000000     -1.000000      3.000000

     1   1 0 0      0.000000      0.000000      0.000000
     1   0 1 0      0.000000      0.000000      0.000000
     1   0 0 1      0.000810      0.023870      0.000000

     2   2 0 0     -2.519811     -0.925070      0.000000
     2   1 1 0      0.000000      0.000000      0.000000
     2   1 0 1      0.000000      0.000000      0.000000
     2   0 2 0     -2.519811     -0.925070      0.000000
     2   0 1 1      0.000000      0.000000      0.000000
     2   0 0 2     -2.522256     -4.920053      6.093693


 Parallel integral file used       1 records with       0 large values

                              NWChem Gradients Module
                              -----------------------


                              hexaachloroethene C2Cl6


  wavefunction    =   ROHF    



                         ROHF ENERGY GRADIENTS

    atom               coordinates                        gradient
                 x          y          z           x          y          z
   1 h       0.000000   0.000000   1.744493    0.000000   0.000000   0.004416
   2 h       0.000000   0.000000   0.002057    0.000000   0.000000  -0.001353
   3 h       0.000000   0.000000  -1.746549    0.000000   0.000000  -0.003063

                 ----------------------------------------
                 |  Time  |  1-e(secs)   |  2-e(secs)   |
                 ----------------------------------------
                 |  CPU   |       0.00   |       0.00   |
                 ----------------------------------------
                 |  WALL  |       0.00   |       0.00   |
                 ----------------------------------------
 Correcting step : 5
 Predicting step : 6
                                 NWChem SCF Module
                                 -----------------


                              hexaachloroethene C2Cl6



  ao basis        = "ao basis"
  functions       =     6
  atoms           =     3
  closed shells   =     1
  open shells     =     1
  charge          =   0.00
  wavefunction    = ROHF
  input vectors   = ./data/c2cl6.movecs
  output vectors  = ./data/c2cl6.movecs
  use symmetry    = F
  symmetry adapt  = F


 Summary of "ao basis" -> "ao basis" (spherical)
 ------------------------------------------------------------------------------
       Tag                 Description            Shells   Functions and Types
 ---------------- ------------------------------  ------  ---------------------
 h                          6-31+G*                  2        2   2s



 Forming initial guess at       1.1s


 Loading old vectors from job with title :

hexaachloroethene C2Cl6


 Starting SCF solution at       1.1s



 ----------------------------------------------
         Quadratically convergent ROHF

 Convergence threshold     :          1.000E-04
 Maximum no. of iterations :           20
 Final Fock-matrix accuracy:          1.000E-07
 ----------------------------------------------


 #quartets = 2.310E+02 #integrals = 2.310E+02 #direct =  0.0% #cached =100.0%


 Integral file          = ./perm/c2cl6.aoints.0
 Record size in doubles =  65536        No. of integs per rec  =  43688
 Max. records in memory =      2        Max. records in file   = 107189
 No. of bits per label  =      8        No. of bits per value  =     64


              iter       energy          gnorm     gmax       time
             ----- ------------------- --------- --------- --------
                 1       -1.5854075526  6.68E-03  5.79E-03      0.4
                 2       -1.5854128380  2.71E-05  1.53E-05      0.4


       Final ROHF results 
       ------------------ 

         Total SCF energy =     -1.585412838014
      One-electron energy =     -4.371392578136
      Two-electron energy =      1.347243283961
 Nuclear repulsion energy =      1.438736456161

        Time for solution =      0.0s


             Final eigenvalues
             -----------------

              1      
    1   -0.6471
    2   -0.1560
    3    0.3104
    4    0.8999
    5    0.9989
    6    1.3290

                       ROHF Final Molecular Orbital Analysis
                       -------------------------------------

 Vector    1  Occ=2.000000E+00  E=-6.471460E-01
              MO Center=  0.0E+00,  0.0E+00,  9.1E-03, r^2= 9.6E-01
   Bfn.  Coefficient  Atom+Function         Bfn.  Coefficient  Atom+Function  
  ----- ------------  ---------------      ----- ------------  ---------------
     4      0.335307  2 H  s                  3      0.318556  2 H  s          
     1      0.212256  1 H  s                  5      0.208065  3 H  s          

 Vector    2  Occ=1.000000E+00  E=-1.560330E-01
              MO Center=  0.0E+00,  0.0E+00, -1.9E-02, r^2= 1.9E+00
   Bfn.  Coefficient  Atom+Function         Bfn.  Coefficient  Atom+Function  
  ----- ------------  ---------------      ----- ------------  ---------------
     6      0.584511  3 H  s                  2     -0.572508  1 H  s          
     5      0.320359  3 H  s                  1     -0.314727  1 H  s          

 Vector    3  Occ=0.000000E+00  E= 3.104352E-01
              MO Center=  0.0E+00,  0.0E+00,  1.2E-02, r^2= 3.1E+00
   Bfn.  Coefficient  Atom+Function         Bfn.  Coefficient  Atom+Function  
  ----- ------------  ---------------      ----- ------------  ---------------
     4      2.500460  2 H  s                  2     -1.687160  1 H  s          
     6     -1.670926  3 H  s                  3      0.245118  2 H  s          

 Vector    4  Occ=0.000000E+00  E= 8.998821E-01
              MO Center=  0.0E+00,  0.0E+00,  1.0E-02, r^2= 1.6E+00
   Bfn.  Coefficient  Atom+Function         Bfn.  Coefficient  Atom+Function  
  ----- ------------  ---------------      ----- ------------  ---------------
     4      1.518526  2 H  s                  3     -0.708639  2 H  s          
     1     -0.677255  1 H  s                  5     -0.662868  3 H  s          

 Vector    5  Occ=0.000000E+00  E= 9.988698E-01
              MO Center=  0.0E+00,  0.0E+00, -2.4E-02, r^2= 2.6E+00
   Bfn.  Coefficient  Atom+Function         Bfn.  Coefficient  Atom+Function  
  ----- ------------  ---------------      ----- ------------  ---------------
     6      1.065843  3 H  s                  2     -1.047271  1 H  s          
     5     -0.912867  3 H  s                  1      0.893141  1 H  s          

 Vector    6  Occ=0.000000E+00  E= 1.328956E+00
              MO Center=  0.0E+00,  0.0E+00,  1.1E-02, r^2= 1.5E+00
   Bfn.  Coefficient  Atom+Function         Bfn.  Coefficient  Atom+Function  
  ----- ------------  ---------------      ----- ------------  ---------------
     4      2.241951  2 H  s                  2     -1.277317  1 H  s          
     6     -1.260476  3 H  s                  3     -1.194287  2 H  s          
     1      0.667195  1 H  s                  5      0.652284  3 H  s          


 center of mass
 --------------
 x =   0.00000000 y =   0.00000000 z =   0.00000000

 moments of inertia (a.u.)
 ------------------
           6.086094963491           0.000000000000           0.000000000000
           0.000000000000           6.086094963491           0.000000000000
           0.000000000000           0.000000000000           0.000000000000

  Mulliken analysis of the total density
  --------------------------------------

    Atom       Charge   Shell Charges
 -----------   ------   -------------------------------------------------------
    1 H    1     0.93   0.43  0.50
    2 H    1     1.13   0.50  0.63
    3 H    1     0.94   0.43  0.50

 Mulliken analysis of the open-shell density
 -------------------------------------------

    Atom       Charge   Shell Charges
 -----------   ------   -------------------------------------------------------
    1 H    1     0.49   0.19  0.30
    2 H    1     0.00   0.00  0.00
    3 H    1     0.51   0.20  0.31

       Multipole analysis of the density wrt the origin
       ------------------------------------------------

     L   x y z        total         open         nuclear
     -   - - -        -----         ----         -------
     0   0 0 0      0.000000     -1.000000      3.000000

     1   1 0 0      0.000000      0.000000      0.000000
     1   0 1 0      0.000000      0.000000      0.000000
     1   0 0 1      0.001281      0.035642      0.000000

     2   2 0 0     -2.513777     -0.924393      0.000000
     2   1 1 0      0.000000      0.000000      0.000000
     2   1 0 1      0.000000      0.000000      0.000000
     2   0 2 0     -2.513777     -0.924393      0.000000
     2   0 1 1      0.000000      0.000000      0.000000
     2   0 0 2     -2.527397     -4.896796      6.038841


 Parallel integral file used       1 records with       0 large values

                              NWChem Gradients Module
                              -----------------------


                              hexaachloroethene C2Cl6


  wavefunction    =   ROHF    



                         ROHF ENERGY GRADIENTS

    atom               coordinates                        gradient
                 x          y          z           x          y          z
   1 h       0.000000   0.000000   1.736087    0.000000   0.000000   0.003346
   2 h       0.000000   0.000000   0.003118    0.000000   0.000000  -0.001992
   3 h       0.000000   0.000000  -1.739205    0.000000   0.000000  -0.001354

                 ----------------------------------------
                 |  Time  |  1-e(secs)   |  2-e(secs)   |
                 ----------------------------------------
                 |  CPU   |       0.01   |       0.00   |
                 ----------------------------------------
                 |  WALL  |       0.00   |       0.00   |
                 ----------------------------------------
 Correcting step : 6
 Predicting step : 7
                                 NWChem SCF Module
                                 -----------------


                              hexaachloroethene C2Cl6



  ao basis        = "ao basis"
  functions       =     6
  atoms           =     3
  closed shells   =     1
  open shells     =     1
  charge          =   0.00
  wavefunction    = ROHF
  input vectors   = ./data/c2cl6.movecs
  output vectors  = ./data/c2cl6.movecs
  use symmetry    = F
  symmetry adapt  = F


 Summary of "ao basis" -> "ao basis" (spherical)
 ------------------------------------------------------------------------------
       Tag                 Description            Shells   Functions and Types
 ---------------- ------------------------------  ------  ---------------------
 h                          6-31+G*                  2        2   2s



 Forming initial guess at       1.3s


 Loading old vectors from job with title :

hexaachloroethene C2Cl6


 Starting SCF solution at       1.3s



 ----------------------------------------------
         Quadratically convergent ROHF

 Convergence threshold     :          1.000E-04
 Maximum no. of iterations :           20
 Final Fock-matrix accuracy:          1.000E-07
 ----------------------------------------------


 #quartets = 2.310E+02 #integrals = 2.310E+02 #direct =  0.0% #cached =100.0%


 Integral file          = ./perm/c2cl6.aoints.0
 Record size in doubles =  65536        No. of integs per rec  =  43688
 Max. records in memory =      2        Max. records in file   = 107189
 No. of bits per label  =      8        No. of bits per value  =     64


              iter       energy          gnorm     gmax       time
             ----- ------------------- --------- --------- --------
                 1       -1.5854384272  7.34E-03  6.27E-03      0.4
                 2       -1.5854454439  3.51E-05  2.02E-05      0.5


       Final ROHF results 
       ------------------ 

         Total SCF energy =     -1.585445443934
      One-electron energy =     -4.382035062676
      Two-electron energy =      1.350807757761
 Nuclear repulsion energy =      1.445781860981

        Time for solution =      0.0s


             Final eigenvalues
             -----------------

              1      
    1   -0.6492
    2   -0.1552
    3    0.3116
    4    0.8986
    5    0.9976
    6    1.3342

                       ROHF Final Molecular Orbital Analysis
                       -------------------------------------

 Vector    1  Occ=2.000000E+00  E=-6.491539E-01
              MO Center=  0.0E+00,  0.0E+00,  1.3E-02, r^2= 9.5E-01
   Bfn.  Coefficient  Atom+Function         Bfn.  Coefficient  Atom+Function  
  ----- ------------  ---------------      ----- ------------  ---------------
     4      0.334669  2 H  s                  3      0.319519  2 H  s          
     1      0.213659  1 H  s                  5      0.207437  3 H  s          

 Vector    2  Occ=1.000000E+00  E=-1.552221E-01
              MO Center=  0.0E+00,  0.0E+00, -2.8E-02, r^2= 1.9E+00
   Bfn.  Coefficient  Atom+Function         Bfn.  Coefficient  Atom+Function  
  ----- ------------  ---------------      ----- ------------  ---------------
     6      0.588678  3 H  s                  2     -0.570841  1 H  s          
     5      0.322236  3 H  s                  1     -0.313923  1 H  s          

 Vector    3  Occ=0.000000E+00  E= 3.116267E-01
              MO Center=  0.0E+00,  0.0E+00,  1.8E-02, r^2= 3.1E+00
   Bfn.  Coefficient  Atom+Function         Bfn.  Coefficient  Atom+Function  
  ----- ------------  ---------------      ----- ------------  ---------------
     4      2.523421  2 H  s                  2     -1.705170  1 H  s          
     6     -1.680736  3 H  s                  3      0.245270  2 H  s          

 Vector    4  Occ=0.000000E+00  E= 8.986471E-01
              MO Center=  0.0E+00,  0.0E+00,  1.6E-02, r^2= 1.6E+00
   Bfn.  Coefficient  Atom+Function         Bfn.  Coefficient  Atom+Function  
  ----- ------------  ---------------      ----- ------------  ---------------
     4      1.547870  2 H  s                  3     -0.710688  2 H  s          
     1     -0.677626  1 H  s                  5     -0.655700  3 H  s          

 Vector    5  Occ=0.000000E+00  E= 9.975549E-01
              MO Center=  0.0E+00,  0.0E+00, -3.5E-02, r^2= 2.6E+00
   Bfn.  Coefficient  Atom+Function         Bfn.  Coefficient  Atom+Function  
  ----- ------------  ---------------      ----- ------------  ---------------
     6      1.072400  3 H  s                  2     -1.045278  1 H  s          
     5     -0.917212  3 H  s                  1      0.887505  1 H  s          

 Vector    6  Occ=0.000000E+00  E= 1.334233E+00
              MO Center=  0.0E+00,  0.0E+00,  1.6E-02, r^2= 1.5E+00
   Bfn.  Coefficient  Atom+Function         Bfn.  Coefficient  Atom+Function  
  ----- ------------  ---------------      ----- ------------  ---------------
     4      2.245161  2 H  s                  2     -1.285549  1 H  s          
     6     -1.260463  3 H  s                  3     -1.194345  2 H  s          
     1      0.675703  1 H  s                  5      0.653567  3 H  s          


 center of mass
 --------------
 x =   0.00000000 y =   0.00000000 z =   0.00000000

 moments of inertia (a.u.)
 ------------------
           6.027030951395           0.000000000000           0.000000000000
           0.000000000000           6.027030951395           0.000000000000
           0.000000000000           0.000000000000           0.000000000000

  Mulliken analysis of the total density
  --------------------------------------

    Atom       Charge   Shell Charges
 -----------   ------   -------------------------------------------------------
    1 H    1     0.93   0.44  0.50
    2 H    1     1.13   0.50  0.63
    3 H    1     0.94   0.43  0.50

 Mulliken analysis of the open-shell density
 -------------------------------------------

    Atom       Charge   Shell Charges
 -----------   ------   -------------------------------------------------------
    1 H    1     0.49   0.19  0.29
    2 H    1     0.00   0.00  0.00
    3 H    1     0.52   0.20  0.31

       Multipole analysis of the density wrt the origin
       ------------------------------------------------

     L   x y z        total         open         nuclear
     -   - - -        -----         ----         -------
     0   0 0 0      0.000000     -1.000000      3.000000

     1   1 0 0      0.000000      0.000000      0.000000
     1   0 1 0      0.000000      0.000000      0.000000
     1   0 0 1      0.002006      0.052617      0.000000

     2   2 0 0     -2.507254     -0.923668      0.000000
     2   1 1 0      0.000000      0.000000      0.000000
     2   1 0 1      0.000000      0.000000      0.000000
     2   0 2 0     -2.507254     -0.923668      0.000000
     2   0 1 1      0.000000      0.000000      0.000000
     2   0 0 2     -2.532955     -4.872025      5.980236


 Parallel integral file used       1 records with       0 large values

                              NWChem Gradients Module
                              -----------------------


                              hexaachloroethene C2Cl6


  wavefunction    =   ROHF    



                         ROHF ENERGY GRADIENTS

    atom               coordinates                        gradient
                 x          y          z           x          y          z
   1 h       0.000000   0.000000   1.726852    0.000000   0.000000   0.002263
   2 h       0.000000   0.000000   0.004678    0.000000   0.000000  -0.002891
   3 h       0.000000   0.000000  -1.731530    0.000000   0.000000   0.000628

                 ----------------------------------------
                 |  Time  |  1-e(secs)   |  2-e(secs)   |
                 ----------------------------------------
                 |  CPU   |       0.00   |       0.00   |
                 ----------------------------------------
                 |  WALL  |       0.00   |       0.00   |
                 ----------------------------------------
 Correcting step : 7
 Predicting step : 8
                                 NWChem SCF Module
                                 -----------------


                              hexaachloroethene C2Cl6



  ao basis        = "ao basis"
  functions       =     6
  atoms           =     3
  closed shells   =     1
  open shells     =     1
  charge          =   0.00
  wavefunction    = ROHF
  input vectors   = ./data/c2cl6.movecs
  output vectors  = ./data/c2cl6.movecs
  use symmetry    = F
  symmetry adapt  = F


 Summary of "ao basis" -> "ao basis" (spherical)
 ------------------------------------------------------------------------------
       Tag                 Description            Shells   Functions and Types
 ---------------- ------------------------------  ------  ---------------------
 h                          6-31+G*                  2        2   2s



 Forming initial guess at       1.4s


 Loading old vectors from job with title :

hexaachloroethene C2Cl6


 Starting SCF solution at       1.4s



 ----------------------------------------------
         Quadratically convergent ROHF

 Convergence threshold     :          1.000E-04
 Maximum no. of iterations :           20
 Final Fock-matrix accuracy:          1.000E-07
 ----------------------------------------------


 #quartets = 2.310E+02 #integrals = 2.310E+02 #direct =  0.0% #cached =100.0%


 Integral file          = ./perm/c2cl6.aoints.0
 Record size in doubles =  65536        No. of integs per rec  =  43688
 Max. records in memory =      2        Max. records in file   = 107189
 No. of bits per label  =      8        No. of bits per value  =     64


              iter       energy          gnorm     gmax       time
             ----- ------------------- --------- --------- --------
                 1       -1.5854483649  7.84E-03  6.50E-03      0.5
                 2       -1.5854577929  4.45E-05  2.63E-05      0.5


       Final ROHF results 
       ------------------ 

         Total SCF energy =     -1.585457792912
      One-electron energy =     -4.393003171695
      Two-electron energy =      1.354466170046
 Nuclear repulsion energy =      1.453079208737

        Time for solution =      0.0s


             Final eigenvalues
             -----------------

              1      
    1   -0.6512
    2   -0.1544
    3    0.3128
    4    0.8974
    5    0.9962
    6    1.3398

                       ROHF Final Molecular Orbital Analysis
                       -------------------------------------

 Vector    1  Occ=2.000000E+00  E=-6.512218E-01
              MO Center=  0.0E+00,  0.0E+00,  2.0E-02, r^2= 9.5E-01
   Bfn.  Coefficient  Atom+Function         Bfn.  Coefficient  Atom+Function  
  ----- ------------  ---------------      ----- ------------  ---------------
     4      0.334019  2 H  s                  3      0.320518  2 H  s          
     1      0.215518  1 H  s                  5      0.206358  3 H  s          

 Vector    2  Occ=1.000000E+00  E=-1.543828E-01
              MO Center=  0.0E+00,  0.0E+00, -4.1E-02, r^2= 1.9E+00
   Bfn.  Coefficient  Atom+Function         Bfn.  Coefficient  Atom+Function  
  ----- ------------  ---------------      ----- ------------  ---------------
     6      0.594159  3 H  s                  2     -0.567878  1 H  s          
     5      0.324702  3 H  s                  1     -0.312540  1 H  s          

 Vector    3  Occ=0.000000E+00  E= 3.128367E-01
              MO Center=  0.0E+00,  0.0E+00,  2.6E-02, r^2= 3.2E+00
   Bfn.  Coefficient  Atom+Function         Bfn.  Coefficient  Atom+Function  
  ----- ------------  ---------------      ----- ------------  ---------------
     4      2.547243  2 H  s                  2     -1.725579  1 H  s          
     6     -1.689097  3 H  s                  3      0.245422  2 H  s          

 Vector    4  Occ=0.000000E+00  E= 8.973593E-01
              MO Center=  0.0E+00,  0.0E+00,  2.3E-02, r^2= 1.6E+00
   Bfn.  Coefficient  Atom+Function         Bfn.  Coefficient  Atom+Function  
  ----- ------------  ---------------      ----- ------------  ---------------
     4      1.578306  2 H  s                  3     -0.712692  2 H  s          
     1     -0.679675  1 H  s                  5     -0.646543  3 H  s          

 Vector    5  Occ=0.000000E+00  E= 9.962106E-01
              MO Center=  0.0E+00,  0.0E+00, -5.2E-02, r^2= 2.6E+00
   Bfn.  Coefficient  Atom+Function         Bfn.  Coefficient  Atom+Function  
  ----- ------------  ---------------      ----- ------------  ---------------
     6      1.080711  3 H  s                  2     -1.041505  1 H  s          
     5     -0.923793  3 H  s                  1      0.879427  1 H  s          

 Vector    6  Occ=0.000000E+00  E= 1.339781E+00
              MO Center=  0.0E+00,  0.0E+00,  2.3E-02, r^2= 1.5E+00
   Bfn.  Coefficient  Atom+Function         Bfn.  Coefficient  Atom+Function  
  ----- ------------  ---------------      ----- ------------  ---------------
     4      2.248426  2 H  s                  2     -1.295660  1 H  s          
     6     -1.258593  3 H  s                  3     -1.194516  2 H  s          
     1      0.685906  1 H  s                  5      0.653314  3 H  s          


 center of mass
 --------------
 x =   0.00000000 y =   0.00000000 z =   0.00000000

 moments of inertia (a.u.)
 ------------------
           5.966882695492           0.000000000000           0.000000000000
           0.000000000000           5.966882695492           0.000000000000
           0.000000000000           0.000000000000           0.000000000000

  Mulliken analysis of the total density
  --------------------------------------

    Atom       Charge   Shell Charges
 -----------   ------   -------------------------------------------------------
    1 H    1     0.93   0.44  0.50
[...]

                 ----------------------------------------
                 |  Time  |  1-e(secs)   |  2-e(secs)   |
                 ----------------------------------------
                 |  CPU   |       0.00   |       0.00   |
                 ----------------------------------------
                 |  WALL  |       0.00   |       0.00   |
                 ----------------------------------------
 Correcting step : 18
 Predicting step : 19
                                 NWChem SCF Module
                                 -----------------


                              hexaachloroethene C2Cl6



  ao basis        = "ao basis"
  functions       =     6
  atoms           =     3
  closed shells   =     1
  open shells     =     1
  charge          =   0.00
  wavefunction    = ROHF
  input vectors   = ./data/c2cl6.movecs
  output vectors  = ./data/c2cl6.movecs
  use symmetry    = F
  symmetry adapt  = F


 Summary of "ao basis" -> "ao basis" (spherical)
 ------------------------------------------------------------------------------
       Tag                 Description            Shells   Functions and Types
 ---------------- ------------------------------  ------  ---------------------
 h                          6-31+G*                  2        2   2s



 Forming initial guess at       3.3s


 Loading old vectors from job with title :

hexaachloroethene C2Cl6


 Starting SCF solution at       3.3s



 ----------------------------------------------
         Quadratically convergent ROHF

 Convergence threshold     :          1.000E-04
 Maximum no. of iterations :           20
 Final Fock-matrix accuracy:          1.000E-07
 ----------------------------------------------


 #quartets = 2.310E+02 #integrals = 2.310E+02 #direct =  0.0% #cached =100.0%


 Integral file          = ./perm/c2cl6.aoints.0
 Record size in doubles =  65536        No. of integs per rec  =  43688
 Max. records in memory =      2        Max. records in file   = 107189
 No. of bits per label  =      8        No. of bits per value  =     64


              iter       energy          gnorm     gmax       time
             ----- ------------------- --------- --------- --------
                 1       -1.5952302536  5.55E-02  3.07E-02      1.2
                 2       -1.5958888470  1.04E-03  9.10E-04      1.3
                 3       -1.5958895188  1.71E-06  1.20E-06      1.3


       Final ROHF results 
       ------------------ 

         Total SCF energy =     -1.595889518798
      One-electron energy =     -4.442110074368
      Two-electron energy =      1.345731360441
 Nuclear repulsion energy =      1.500489195129

        Time for solution =      0.0s


             Final eigenvalues
             -----------------

              1      
    1   -0.6568
    2   -0.1571
    3    0.3264
    4    0.8409
    5    1.0102
    6    1.4810

                       ROHF Final Molecular Orbital Analysis
                       -------------------------------------

 Vector    1  Occ=2.000000E+00  E=-6.567911E-01
              MO Center=  0.0E+00,  0.0E+00,  3.9E-01, r^2= 7.6E-01
   Bfn.  Coefficient  Atom+Function         Bfn.  Coefficient  Atom+Function  
  ----- ------------  ---------------      ----- ------------  ---------------
     3      0.337360  2 H  s                  4      0.319652  2 H  s          
     1      0.306035  1 H  s                  2      0.195330  1 H  s          

 Vector    2  Occ=1.000000E+00  E=-1.570587E-01
              MO Center=  0.0E+00,  0.0E+00, -8.1E-01, r^2= 1.3E+00
   Bfn.  Coefficient  Atom+Function         Bfn.  Coefficient  Atom+Function  
  ----- ------------  ---------------      ----- ------------  ---------------
     6      0.738784  3 H  s                  5      0.419419  3 H  s          
     2     -0.255564  1 H  s                  1     -0.181643  1 H  s          

 Vector    3  Occ=0.000000E+00  E= 3.264210E-01
              MO Center=  0.0E+00,  0.0E+00,  5.9E-01, r^2= 2.8E+00
   Bfn.  Coefficient  Atom+Function         Bfn.  Coefficient  Atom+Function  
  ----- ------------  ---------------      ----- ------------  ---------------
     4      2.693891  2 H  s                  2     -2.318613  1 H  s          
     6     -1.182507  3 H  s                  3      0.221858  2 H  s          

 Vector    4  Occ=0.000000E+00  E= 8.409116E-01
              MO Center=  0.0E+00,  0.0E+00,  3.6E-01, r^2= 1.6E+00
   Bfn.  Coefficient  Atom+Function         Bfn.  Coefficient  Atom+Function  
  ----- ------------  ---------------      ----- ------------  ---------------
     4      1.706388  2 H  s                  1     -0.849984  1 H  s          
     3     -0.684944  2 H  s                  6     -0.659844  3 H  s          

 Vector    5  Occ=0.000000E+00  E= 1.010165E+00
              MO Center=  0.0E+00,  0.0E+00, -1.1E+00, r^2= 1.4E+00
   Bfn.  Coefficient  Atom+Function         Bfn.  Coefficient  Atom+Function  
  ----- ------------  ---------------      ----- ------------  ---------------
     6      1.332069  3 H  s                  5     -1.265800  3 H  s          
     2     -0.333179  1 H  s                  1      0.162677  1 H  s          

 Vector    6  Occ=0.000000E+00  E= 1.481016E+00
              MO Center=  0.0E+00,  0.0E+00,  5.2E-01, r^2= 1.1E+00
   Bfn.  Coefficient  Atom+Function         Bfn.  Coefficient  Atom+Function  
  ----- ------------  ---------------      ----- ------------  ---------------
     4      2.203134  2 H  s                  2     -1.737330  1 H  s          
     3     -1.259769  2 H  s                  1      1.063970  1 H  s          
     6     -0.633430  3 H  s                  5      0.153367  3 H  s          


 center of mass
 --------------
 x =   0.00000000 y =   0.00000000 z =   0.00000000

 moments of inertia (a.u.)
 ------------------
           6.190904299988           0.000000000000           0.000000000000
           0.000000000000           6.190904299988           0.000000000000
           0.000000000000           0.000000000000           0.000000000000

  Mulliken analysis of the total density
  --------------------------------------

    Atom       Charge   Shell Charges
 -----------   ------   -------------------------------------------------------
    1 H    1     0.91   0.53  0.38
    2 H    1     1.11   0.55  0.55
    3 H    1     0.98   0.40  0.58

 Mulliken analysis of the open-shell density
 -------------------------------------------

    Atom       Charge   Shell Charges
 -----------   ------   -------------------------------------------------------
    1 H    1     0.11   0.06  0.05
    2 H    1    -0.03   0.00 -0.03
    3 H    1     0.92   0.34  0.58

       Multipole analysis of the density wrt the origin
       ------------------------------------------------

     L   x y z        total         open         nuclear
     -   - - -        -----         ----         -------
     0   0 0 0      0.000000     -1.000000      3.000000

     1   1 0 0      0.000000      0.000000      0.000000
     1   0 1 0      0.000000      0.000000      0.000000
     1   0 0 1      0.077813      1.536600      0.000000

     2   2 0 0     -2.377710     -0.911765      0.000000
     2   1 1 0      0.000000      0.000000      0.000000
     2   1 0 1      0.000000      0.000000      0.000000
     2   0 2 0     -2.377710     -0.911765      0.000000
     2   0 1 1      0.000000      0.000000      0.000000
     2   0 0 2     -2.556096     -5.112350      6.142837


 Parallel integral file used       1 records with       0 large values

                              NWChem Gradients Module
                              -----------------------


                              hexaachloroethene C2Cl6


  wavefunction    =   ROHF    



                         ROHF ENERGY GRADIENTS

    atom               coordinates                        gradient
                 x          y          z           x          y          z
   1 h       0.000000   0.000000   1.606945    0.000000   0.000000  -0.038828
   2 h       0.000000   0.000000   0.261757    0.000000   0.000000   0.002532
   3 h       0.000000   0.000000  -1.868702    0.000000   0.000000   0.036296

                 ----------------------------------------
                 |  Time  |  1-e(secs)   |  2-e(secs)   |
                 ----------------------------------------
                 |  CPU   |       0.00   |       0.00   |
                 ----------------------------------------
                 |  WALL  |       0.00   |       0.00   |
                 ----------------------------------------
 Correcting step : 19
 Predicting step : 20
                                 NWChem SCF Module
                                 -----------------


                              hexaachloroethene C2Cl6



  ao basis        = "ao basis"
  functions       =     6
  atoms           =     3
  closed shells   =     1
  open shells     =     1
  charge          =   0.00
  wavefunction    = ROHF
  input vectors   = ./data/c2cl6.movecs
  output vectors  = ./data/c2cl6.movecs
  use symmetry    = F
  symmetry adapt  = F


 Summary of "ao basis" -> "ao basis" (spherical)
 ------------------------------------------------------------------------------
       Tag                 Description            Shells   Functions and Types
 ---------------- ------------------------------  ------  ---------------------
 h                          6-31+G*                  2        2   2s



 Forming initial guess at       3.5s


 Loading old vectors from job with title :

hexaachloroethene C2Cl6


 Starting SCF solution at       3.5s



 ----------------------------------------------
         Quadratically convergent ROHF

 Convergence threshold     :          1.000E-04
 Maximum no. of iterations :           20
 Final Fock-matrix accuracy:          1.000E-07
 ----------------------------------------------


 #quartets = 2.310E+02 #integrals = 2.310E+02 #direct =  0.0% #cached =100.0%


 Integral file          = ./perm/c2cl6.aoints.0
 Record size in doubles =  65536        No. of integs per rec  =  43688
 Max. records in memory =      2        Max. records in file   = 107189
 No. of bits per label  =      8        No. of bits per value  =     64


              iter       energy          gnorm     gmax       time
             ----- ------------------- --------- --------- --------
                 1       -1.5970327524  5.07E-02  2.81E-02      1.3
                 2       -1.5975463724  2.24E-03  1.53E-03      1.3
                 3       -1.5975484349  7.61E-06  4.46E-06      1.3


       Final ROHF results 
       ------------------ 

         Total SCF energy =     -1.597548434885
      One-electron energy =     -4.432519699082
      Two-electron energy =      1.336556460978
 Nuclear repulsion energy =      1.498414803219

        Time for solution =      0.0s


             Final eigenvalues
             -----------------

              1      
    1   -0.6560
    2   -0.1597
    3    0.3280
    4    0.8284
    5    1.0146
    6    1.5147

                       ROHF Final Molecular Orbital Analysis
                       -------------------------------------

 Vector    1  Occ=2.000000E+00  E=-6.560153E-01
              MO Center=  0.0E+00,  0.0E+00,  4.2E-01, r^2= 7.4E-01
   Bfn.  Coefficient  Atom+Function         Bfn.  Coefficient  Atom+Function  
  ----- ------------  ---------------      ----- ------------  ---------------
     3      0.339596  2 H  s                  1      0.314765  1 H  s          
     4      0.312193  2 H  s                  2      0.197695  1 H  s          

 Vector    2  Occ=1.000000E+00  E=-1.597389E-01
              MO Center=  0.0E+00,  0.0E+00, -8.9E-01, r^2= 1.2E+00
   Bfn.  Coefficient  Atom+Function         Bfn.  Coefficient  Atom+Function  
  ----- ------------  ---------------      ----- ------------  ---------------
     6      0.733411  3 H  s                  5      0.424012  3 H  s          
     2     -0.221869  1 H  s                  1     -0.165340  1 H  s          

 Vector    3  Occ=0.000000E+00  E= 3.279695E-01
              MO Center=  0.0E+00,  0.0E+00,  6.4E-01, r^2= 2.7E+00
   Bfn.  Coefficient  Atom+Function         Bfn.  Coefficient  Atom+Function  
  ----- ------------  ---------------      ----- ------------  ---------------
     4      2.685120  2 H  s                  2     -2.379102  1 H  s          
     6     -1.086272  3 H  s                  3      0.214823  2 H  s          

 Vector    4  Occ=0.000000E+00  E= 8.283999E-01
              MO Center=  0.0E+00,  0.0E+00,  3.6E-01, r^2= 1.7E+00
   Bfn.  Coefficient  Atom+Function         Bfn.  Coefficient  Atom+Function  
  ----- ------------  ---------------      ----- ------------  ---------------
     4      1.671234  2 H  s                  1     -0.837532  1 H  s          
     3     -0.678569  2 H  s                  6     -0.649266  3 H  s          

 Vector    5  Occ=0.000000E+00  E= 1.014559E+00
              MO Center=  0.0E+00,  0.0E+00, -1.1E+00, r^2= 1.3E+00
   Bfn.  Coefficient  Atom+Function         Bfn.  Coefficient  Atom+Function  
  ----- ------------  ---------------      ----- ------------  ---------------
     6      1.352396  3 H  s                  5     -1.274332  3 H  s          
     4     -0.219909  2 H  s                  2     -0.202114  1 H  s          

 Vector    6  Occ=0.000000E+00  E= 1.514687E+00
              MO Center=  0.0E+00,  0.0E+00,  5.6E-01, r^2= 1.1E+00
   Bfn.  Coefficient  Atom+Function         Bfn.  Coefficient  Atom+Function  
  ----- ------------  ---------------      ----- ------------  ---------------
     4      2.172086  2 H  s                  2     -1.766585  1 H  s          
     3     -1.277438  2 H  s                  1      1.099402  1 H  s          
     6     -0.531421  3 H  s          


 center of mass
 --------------
 x =   0.00000000 y =   0.00000000 z =   0.00000000

 moments of inertia (a.u.)
 ------------------
           6.454246703147           0.000000000000           0.000000000000
           0.000000000000           6.454246703147           0.000000000000
           0.000000000000           0.000000000000           0.000000000000

  Mulliken analysis of the total density
  --------------------------------------

    Atom       Charge   Shell Charges
 -----------   ------   -------------------------------------------------------
    1 H    1     0.92   0.54  0.38
    2 H    1     1.10   0.56  0.54
    3 H    1     0.99   0.40  0.59

 Mulliken analysis of the open-shell density
 -------------------------------------------

    Atom       Charge   Shell Charges
 -----------   ------   -------------------------------------------------------
    1 H    1     0.08   0.05  0.03
    2 H    1    -0.03   0.00 -0.03
    3 H    1     0.94   0.35  0.59

       Multipole analysis of the density wrt the origin
       ------------------------------------------------

     L   x y z        total         open         nuclear
     -   - - -        -----         ----         -------
     0   0 0 0      0.000000     -1.000000      3.000000

     1   1 0 0      0.000000      0.000000      0.000000
     1   0 1 0      0.000000      0.000000      0.000000
     1   0 0 1      0.077056      1.678294      0.000000

     2   2 0 0     -2.360228     -0.913121      0.000000
     2   1 1 0      0.000000      0.000000      0.000000
     2   1 0 1      0.000000      0.000000      0.000000
     2   0 2 0     -2.360228     -0.913121      0.000000
     2   0 1 1      0.000000      0.000000      0.000000
     2   0 0 2     -2.528604     -5.271604      6.404134


 Parallel integral file used       1 records with       0 large values

                              NWChem Gradients Module
                              -----------------------


                              hexaachloroethene C2Cl6


  wavefunction    =   ROHF    



                         ROHF ENERGY GRADIENTS

    atom               coordinates                        gradient
                 x          y          z           x          y          z
   1 h       0.000000   0.000000   1.612896    0.000000   0.000000  -0.056259
   2 h       0.000000   0.000000   0.312030    0.000000   0.000000   0.022218
   3 h       0.000000   0.000000  -1.924926    0.000000   0.000000   0.034041

                 ----------------------------------------
                 |  Time  |  1-e(secs)   |  2-e(secs)   |
                 ----------------------------------------
                 |  CPU   |       0.00   |       0.00   |
                 ----------------------------------------
                 |  WALL  |       0.00   |       0.00   |
                 ----------------------------------------
 Correcting step : 20

 Task  times  cpu:        1.3s     wall:        3.6s


                                NWChem Input Module
                                -------------------


 Summary of allocated global arrays
-----------------------------------
  No active global arrays



                         GA Statistics for process    0
                         ------------------------------

       create   destroy   get      put      acc     scatter   gather  read&inc
calls: 4399     4399     1.92e+04 1.14e+04 5894        0        0      808     
number of processes/call 1.00e+00 1.00e+00 1.00e+00 0.00e+00 0.00e+00
bytes total:             1.83e+06 1.02e+06 4.01e+05 0.00e+00 0.00e+00 3.23e+03
bytes remote:            0.00e+00 0.00e+00 0.00e+00 0.00e+00 0.00e+00 0.00e+00
Max memory consumed for GA by this process: 6336 bytes

MA_summarize_allocated_blocks: starting scan ...
MA_summarize_allocated_blocks: scan completed: 0 heap blocks, 0 stack blocks
MA usage statistics:

	allocation statistics:
					      heap	     stack
					      ----	     -----
	current number of blocks	         0	         0
	maximum number of blocks	        29	        34
	current total bytes		         0	         0
	maximum total bytes		   1053876	  22508732
	maximum total K-bytes		      1054	     22509
	maximum total M-bytes		         2	        23



                                  ACKNOWLEDGEMENT
                                  ---------------

            Please use the following acknowledgement where appropriate 
            for results obtained with NWChem:

            High Performance Computational Chemistry Group, "NWChem, A
            Computational Chemistry Package for Parallel Computers, 
            Version 5.1" (2007), Pacific Northwest National Laboratory,
            Richland, Washington 99352-0999, USA.


                                     CITATION
                                     --------

          Please use the following citation when publishing results
          obtained with NWChem:

          E. J. Bylaska, W. A. de Jong, N. Govind, K. Kowalski, T. P. Straatsma,
          M. Valiev, D. Wang, E. Apra, T. L. Windus, J. Hammond, P. Nichols,
          S. Hirata, M. T. Hackler, Y. Zhao, P.-D. Fan, R. J. Harrison,
          M. Dupuis, D. M. A. Smith, J. Nieplocha, V. Tipparaju, M. Krishnan,
          Q. Wu, T. Van Voorhis, A. A. Auer, M. Nooijen,
          E. Brown, G. Cisneros, G. I. Fann, H. Fruchtl, J. Garza, K. Hirao,
          R. Kendall, J. A. Nichols, K. Tsemekhman, K. Wolinski, J. Anchell,
          D. Bernholdt, P. Borowski, T. Clark, D. Clerc, H. Dachsel, M. Deegan,
          K. Dyall, D. Elwood, E. Glendening, M. Gutowski, A. Hess, J. Jaffe,
          B. Johnson, J. Ju, R. Kobayashi, R. Kutteh, Z. Lin, R. Littlefield,
          X. Long, B. Meng, T. Nakajima, S. Niu, L. Pollack, M. Rosing,
          G. Sandrone, M. Stave, H. Taylor, G. Thomas, J. van Lenthe, A. Wong,
          and Z. Zhang,
          "NWChem, A Computational Chemistry Package for Parallel Computers, 
          Version 5.1" (2007),
                      Pacific Northwest National Laboratory,
                      Richland, Washington 99352-0999, USA.



 Total times  cpu:        1.4s     wall:        3.7s
