 argument  1 = wfn1_3he.nw



============================== echo of input deck ==============================
echo
start wfn1_he_dat

geometry
  he 0 0 0
end
basis
He    S
     38.4216340              1.0000000
He    S
      5.7780300              1.0000000
He    S
      1.2417740              1.0000000
He    S
      0.2979640              1.0000000
end

dft
  odft
  mult 3
  direct
  xc hfexch
end

task dft energy

set wfn1:nopen 2
set wfn1:maxit 100
set wfn1:t_bath 0.0
set wfn1:print_error T
#set wfn1:ncorea 2
#set wfn1:ncoreb 2

task wfn1 energy

set wfn1:nopen 2
set wfn1:maxit 1000
set wfn1:t_bath 0.5

task wfn1 energy
================================================================================


                                         
                                         


              Northwest Computational Chemistry Package (NWChem) 6.6
              ------------------------------------------------------


                    Environmental Molecular Sciences Laboratory
                       Pacific Northwest National Laboratory
                                Richland, WA 99352

                              Copyright (c) 1994-2015
                       Pacific Northwest National Laboratory
                            Battelle Memorial Institute

             NWChem is an open-source computational chemistry package
                        distributed under the terms of the
                      Educational Community License (ECL) 2.0
             A copy of the license is included with this distribution
                              in the LICENSE.TXT file

                                  ACKNOWLEDGMENT
                                  --------------

            This software and its documentation were developed at the
            EMSL at Pacific Northwest National Laboratory, a multiprogram
            national laboratory, operated for the U.S. Department of Energy
            by Battelle under Contract Number DE-AC05-76RL01830. Support
            for this work was provided by the Department of Energy Office
            of Biological and Environmental Research, Office of Basic
            Energy Sciences, and the Office of Advanced Scientific Computing.


           Job information
           ---------------

    hostname        = LDC-153112.home
    program         = ../../../bin/MACX64/nwchem
    date            = Sun Mar 19 00:06:08 2017

    compiled        = Sun_Mar_19_00:01:50_2017
    source          = /Users/vandam/nwchem-wfn1-dev
    nwchem branch   = Development
    nwchem revision = 28658
    ga revision     = 10724
    input           = wfn1_3he.nw
    prefix          = wfn1_he_dat.
    data base       = ./wfn1_he_dat.db
    status          = startup
    nproc           =        1
    time left       =     -1s



           Memory information
           ------------------

    heap     =   13107196 doubles =    100.0 Mbytes
    stack    =   13107201 doubles =    100.0 Mbytes
    global   =   26214400 doubles =    200.0 Mbytes (distinct from heap & stack)
    total    =   52428797 doubles =    400.0 Mbytes
    verify   = yes
    hardfail = no 


           Directory information
           ---------------------

  0 permanent = .
  0 scratch   = .




                                NWChem Input Module
                                -------------------



 Scaling coordinates for geometry "geometry" by  1.889725989
 (inverse scale =  0.529177249)



                             Geometry "geometry" -> ""
                             -------------------------

 Output coordinates in angstroms (scale by  1.889725989 to convert to a.u.)

  No.       Tag          Charge          X              Y              Z
 ---- ---------------- ---------- -------------- -------------- --------------
    1 he                   2.0000     0.00000000     0.00000000     0.00000000

      Atomic Mass 
      ----------- 

      he                 4.002600


 Effective nuclear repulsion energy (a.u.)       0.0000000000

            Nuclear Dipole moment (a.u.) 
            ----------------------------
        X                 Y               Z
 ---------------- ---------------- ----------------
     0.0000000000     0.0000000000     0.0000000000


            XYZ format geometry
            -------------------
     1
 geometry
 he                    0.00000000     0.00000000     0.00000000

                      Basis "ao basis" -> "" (cartesian)
                      -----
  He (Helium)
  -----------
            Exponent  Coefficients 
       -------------- ---------------------------------------------------------
  1 S  3.84216340E+01  1.000000

  2 S  5.77803000E+00  1.000000

  3 S  1.24177400E+00  1.000000

  4 S  2.97964000E-01  1.000000



 Summary of "ao basis" -> "" (cartesian)
 ------------------------------------------------------------------------------
       Tag                 Description            Shells   Functions and Types
 ---------------- ------------------------------  ------  ---------------------
 He                      user specified              4        4   4s


  xc_inp: hfexch multiplicative factor not found.

                                 NWChem DFT Module
                                 -----------------




 Summary of "ao basis" -> "ao basis" (cartesian)
 ------------------------------------------------------------------------------
       Tag                 Description            Shells   Functions and Types
 ---------------- ------------------------------  ------  ---------------------
 He                      user specified              4        4   4s


  Caching 1-el integrals 

            General Information
            -------------------
          SCF calculation type: DFT
          Wavefunction type:  spin polarized.
          No. of atoms     :     1
          No. of electrons :     2
           Alpha electrons :     2
            Beta electrons :     0
          Charge           :     0
          Spin multiplicity:     3
          Use of symmetry is: off; symmetry adaption is: off
          Maximum number of iterations:  30
          This is a Direct SCF calculation.
          AO basis - number of functions:     4
                     number of shells:     4
          Convergence on energy requested:  1.00D-06
          Convergence on density requested:  1.00D-05
          Convergence on gradient requested:  5.00D-04

              XC Information
              --------------
                     Hartree-Fock (Exact) Exchange  1.000          

          Convergence Information
          -----------------------
          Convergence aids based upon iterative change in 
          total energy or number of iterations. 
          Levelshifting, if invoked, occurs when the 
          HOMO/LUMO gap drops below (HL_TOL):  1.00D-02
          DIIS, if invoked, will attempt to extrapolate 
          using up to (NFOCK): 10 stored Fock matrices.

                    Damping( 0%)  Levelshifting(0.5)       DIIS
                  --------------- ------------------- ---------------
          dE  on:    start            ASAP                start   
          dE off:    2 iters         30 iters            30 iters 


      Screening Tolerance Information
      -------------------------------
          Density screening/tol_rho:  1.00D-10
          AO Gaussian exp screening on grid/accAOfunc:  14
          CD Gaussian exp screening on grid/accCDfunc:  20
          XC Gaussian exp screening on grid/accXCfunc:  20
          Schwarz screening/accCoul:  1.00D-08


      Superposition of Atomic Density Guess
      -------------------------------------

 Sum of atomic energies:          -2.85515891

      Non-variational initial energy
      ------------------------------

 Total energy =      -2.855160
 1-e energy   =      -3.882067
 2-e energy   =       1.026907
 HOMO         =      -0.914127
 LUMO         =       1.162113

 Initial wavefunction

 global array: alpha evecs[1:4,1:4],  handle: -995 

            1           2           3           4  
       ----------- ----------- ----------- -----------
   1      -0.02377    -0.02804    -0.00880     1.25399
   2      -0.15468    -0.06909    -1.41020    -1.01810
   3      -0.46963    -1.17810     1.46027     0.51865
   4      -0.51359     1.29978    -0.54473    -0.17311
   Time after variat. SCF:      0.2
   Time prior to 1st pass:      0.2

           Memory utilization after 1st SCF pass: 
           Heap Space remaining (MW):       13.11            13106636
          Stack Space remaining (MW):       13.11            13107036

   convergence    iter        energy       DeltaE   RMS-Dens  Diis-err    time
 ---------------- ----- ----------------- --------- --------- ---------  ------
 d= 0,ls=0.0,diis     1     -1.5431417028 -1.54D+00  4.57D-02  1.77D-01     0.2
                                                     0.00D+00  0.00D+00
 d= 0,ls=0.0,diis     2     -1.5547417690 -1.16D-02  6.04D-03  3.14D-03     0.2
                                                     0.00D+00  0.00D+00
 d= 0,ls=0.0,diis     3     -1.5549439626 -2.02D-04  3.84D-05  5.59D-07     0.2
                                                     0.00D+00  0.00D+00
  Resetting Diis
 d= 0,ls=0.0,diis     4     -1.5549439875 -2.49D-08  1.54D-06  2.62D-10     0.2
                                                     0.00D+00  0.00D+00


         Total DFT energy =       -1.554943987518
      One electron energy =       -2.139175306136
           Coulomb energy =        1.624681812085
    Exchange-Corr. energy =       -1.040450493467
 Nuclear repulsion energy =        0.000000000000

 Numeric. integr. density =        0.000000000000

     Total iterative time =      0.1s



                    DFT Final Alpha Molecular Orbital Analysis
                    ------------------------------------------

 Vector    1  Occ=1.000000D+00  E=-1.409819D+00
              MO Center=  0.0D+00,  0.0D+00,  0.0D+00, r^2= 2.2D-01
   Bfn.  Coefficient  Atom+Function         Bfn.  Coefficient  Atom+Function  
  ----- ------------  ---------------      ----- ------------  ---------------
     3      0.618661  1 He s                  4      0.304989  1 He s          
     2      0.202821  1 He s                  1      0.028357  1 He s          

 Vector    2  Occ=1.000000D+00  E= 4.391049D-01
              MO Center=  0.0D+00,  0.0D+00,  0.0D+00, r^2= 9.3D-01
   Bfn.  Coefficient  Atom+Function         Bfn.  Coefficient  Atom+Function  
  ----- ------------  ---------------      ----- ------------  ---------------
     4      1.351088  1 He s                  3     -1.040401  1 He s          
     2     -0.083031  1 He s          

 Vector    3  Occ=0.000000D+00  E= 8.095999D+00
              MO Center=  0.0D+00,  0.0D+00,  0.0D+00, r^2= 2.2D-01
   Bfn.  Coefficient  Atom+Function         Bfn.  Coefficient  Atom+Function  
  ----- ------------  ---------------      ----- ------------  ---------------
     3     -1.507805  1 He s                  2      1.402055  1 He s          
     4      0.575428  1 He s          

 Vector    4  Occ=0.000000D+00  E= 6.197132D+01
              MO Center=  0.0D+00,  0.0D+00,  0.0D+00, r^2= 3.3D-02
   Bfn.  Coefficient  Atom+Function         Bfn.  Coefficient  Atom+Function  
  ----- ------------  ---------------      ----- ------------  ---------------
     1      1.253988  1 He s                  2     -1.019858  1 He s          
     3      0.520780  1 He s                  4     -0.174146  1 He s          


                     DFT Final Beta Molecular Orbital Analysis
                     -----------------------------------------

 Vector    1  Occ=0.000000D+00  E=-1.994269D+00
              MO Center=  0.0D+00,  0.0D+00,  0.0D+00, r^2= 2.2D-01
   Bfn.  Coefficient  Atom+Function         Bfn.  Coefficient  Atom+Function  
  ----- ------------  ---------------      ----- ------------  ---------------
     3      0.626083  1 He s                  4      0.302481  1 He s          
     2      0.195501  1 He s                  1      0.028408  1 He s          

 Vector    2  Occ=0.000000D+00  E=-1.475096D-01
              MO Center=  0.0D+00,  0.0D+00,  0.0D+00, r^2= 9.2D-01
   Bfn.  Coefficient  Atom+Function         Bfn.  Coefficient  Atom+Function  
  ----- ------------  ---------------      ----- ------------  ---------------
     4      1.339618  1 He s                  3     -1.011412  1 He s          
     2     -0.110329  1 He s          

 Vector    3  Occ=0.000000D+00  E= 6.318385D+00
              MO Center=  0.0D+00,  0.0D+00,  0.0D+00, r^2= 2.3D-01
   Bfn.  Coefficient  Atom+Function         Bfn.  Coefficient  Atom+Function  
  ----- ------------  ---------------      ----- ------------  ---------------
     3     -1.522567  1 He s                  2      1.397903  1 He s          
     4      0.602196  1 He s          

 Vector    4  Occ=0.000000D+00  E= 5.938939D+01
              MO Center=  0.0D+00,  0.0D+00,  0.0D+00, r^2= 3.3D-02
   Bfn.  Coefficient  Atom+Function         Bfn.  Coefficient  Atom+Function  
  ----- ------------  ---------------      ----- ------------  ---------------
     1      1.253959  1 He s                  2     -1.024388  1 He s          
     3      0.526041  1 He s                  4     -0.176605  1 He s          


   alpha - beta orbital overlaps 
   ----------------------------- 


   alpha      1      2      3      4
    beta      1      2      3      4
 overlap   1.000  1.000  1.000  1.000

     --------------------------
     Expectation value of S2:  
     --------------------------
      <S2> =      2.0000 (Exact =     2.0000)


 Task  times  cpu:        0.1s     wall:        0.1s


                                NWChem Input Module
                                -------------------



                                NWChem WFN1 Module
                                ------------------


  movecs_read_header: failed to open ./wfn1_he_dat.covecs IERR =                     2
 iteration              energy           error          err Na          err Nb          err Ca          err Cb
 ---------              ------           -----          ------          ------          ------          ------
         1         -1.55485659     3828.906495        0.000000        0.000000     1414.656799     2414.249695
         2         -1.55455062     3175.239735        0.000000        0.000000      715.448630     2459.791105
         3         -1.55345017     1816.845628        0.000000        0.000000     1348.929899      467.915729
         4         -1.55343557     1799.155474        0.000000        0.000000     1334.476477      464.678997
         5         -1.55388587     1639.427906        0.000000        0.000000      494.991662     1144.436244
         6         -1.55440413     1551.525921        0.000000        0.000000       15.106982     1536.418939
         7         -1.55468187      614.957168        0.000000        0.000000        8.334601      606.622568
         8         -1.55481143      758.212143        0.000000        0.000000        4.224023      753.988119
         9         -1.55489802     1934.641018        0.000000        0.000000        6.588532     1928.052485
        10         -1.55492196      857.521378        0.000000        0.000000        5.056610      852.464768
        11         -1.55493248     1048.897006        0.000000        0.000000        5.259472     1043.637533
        12         -1.55493542     1060.663319        0.000000        0.000000        4.878399     1055.784920
        13         -1.55493636      841.121607        0.000000        0.000000        3.600633      837.520974
        14         -1.55494016      307.539543        0.000000        0.000000        1.550649      305.988894
        15         -1.55494319       39.749316        0.000000        0.000000        0.910552       38.838764
        16         -1.55494357       34.225722        0.000000        0.000000        0.847046       33.378676
        17         -1.55494376       36.115813        0.000000        0.000000        0.779693       35.336120
        18         -1.55494387       34.758806        0.000000        0.000000        0.723667       34.035139
        19         -1.55494392       32.575636        0.000000        0.000000        0.663210       31.912425
        20         -1.55494395       28.015409        0.000000        0.000000        0.612656       27.402753
        21         -1.55494397       22.008350        0.000000        0.000000        0.559172       21.449178
        22         -1.55494398       16.550600        0.000000        0.000000        0.514398       16.036202
        23         -1.55494398       11.488917        0.000000        0.000000        0.467841       11.021076
        24         -1.55494398        8.053809        0.000000        0.000000        0.428869        7.624940
        25         -1.55494399        5.392162        0.000000        0.000000        0.388892        5.003270
        26         -1.55494399        3.793400        0.000000        0.000000        0.355448        3.437951
        27         -1.55494399        2.642728        0.000000        0.000000        0.321507        2.321222
        28         -1.55494399        1.976315        0.000000        0.000000        0.293137        1.683178
        29         -1.55494399        1.503853        0.000000        0.000000        0.264586        1.239267
        30         -1.55494399        1.226921        0.000000        0.000000        0.240745        0.986176
        31         -1.55494399        1.025438        0.000000        0.000000        0.216911        0.808527
        32         -1.55494399        0.900974        0.000000        0.000000        0.197028        0.703946
        33         -1.55494399        0.804287        0.000000        0.000000        0.177257        0.627030
        34         -1.55494399        0.738913        0.000000        0.000000        0.160778        0.578134
        35         -1.55494399        0.683106        0.000000        0.000000        0.144462        0.538644
        36         -1.55494399        0.641234        0.000000        0.000000        0.130873        0.510361
        37         -1.55494399        0.602139        0.000000        0.000000        0.117465        0.484674
        38         -1.55494399        0.570310        0.000000        0.000000        0.106307        0.464003
        39         -1.55494399        0.538789        0.000000        0.000000        0.095329        0.443460
        40         -1.55494399        0.511890        0.000000        0.000000        0.086197        0.425694
        41         -1.55494399        0.484459        0.000000        0.000000        0.077235        0.407224
        42         -1.55494399        0.460524        0.000000        0.000000        0.069782        0.390741
        43         -1.55494399        0.435825        0.000000        0.000000        0.062485        0.373339
        44         -1.55494399        0.414071        0.000000        0.000000        0.056418        0.357653
        45         -1.55494399        0.391550        0.000000        0.000000        0.050489        0.341060
        46         -1.55494399        0.371637        0.000000        0.000000        0.045557        0.326079
        47         -1.55494399        0.351042        0.000000        0.000000        0.040751        0.310292
        48         -1.55494399        0.332793        0.000000        0.000000        0.036746        0.296048
        49         -1.55494399        0.313982        0.000000        0.000000        0.032855        0.281127
        50         -1.55494399        0.297262        0.000000        0.000000        0.029602        0.267660
        51         -1.55494399        0.280137        0.000000        0.000000        0.026460        0.253677
        52         -1.55494399        0.011982        0.000000        0.000000        0.009981        0.002000
        53         -1.55494399        0.011182        0.000000        0.000000        0.009380        0.001802
        54         -1.55494399        0.008171        0.000000        0.000000        0.006894        0.001276
        55         -1.55494399        0.007667        0.000000        0.000000        0.006455        0.001212
        56         -1.55494399        0.005931        0.000000        0.000000        0.004930        0.001001
        57         -1.55494399        0.005559        0.000000        0.000000        0.004602        0.000957
        58         -1.55494399        0.000225        0.000000        0.000000        0.000021        0.000204
        59         -1.55494399        0.000197        0.000000        0.000000        0.000020        0.000177
        60         -1.55494399        0.000117        0.000000        0.000000        0.000015        0.000102
        61         -1.55494399        0.000109        0.000000        0.000000        0.000014        0.000095
        62         -1.55494399        0.000086        0.000000        0.000000        0.000011        0.000075

 Reached Convergence

 Total energy      =          -1.5549439875
 1-Electron energy =          -2.1391749658
 2-Electron energy =           0.5842309783
 Entropy energy    =           0.0000000000
 Nuclear energy    =           0.0000000000


      Natural orbital occupation numbers

          Alpha     Beta
         ------   ------
     1   1.0000   0.0000
     2   1.0000   0.0000
     3   0.0000   0.0000

                     WFN1 Final Alpha Natural Orbital Analysis
                     -----------------------------------------

 Vector    1  Occ=1.000000D+00  E= 0.000000D+00
              MO Center=  0.0D+00,  0.0D+00,  0.0D+00, r^2= 2.2D-01
   Bfn.  Coefficient  Atom+Function         Bfn.  Coefficient  Atom+Function  
  ----- ------------  ---------------      ----- ------------  ---------------
     3      0.618661  1 He s                  4      0.304989  1 He s          
     2      0.202821  1 He s                  1      0.028357  1 He s          

 Vector    2  Occ=1.000000D+00  E= 0.000000D+00
              MO Center=  0.0D+00,  0.0D+00,  0.0D+00, r^2= 9.3D-01
   Bfn.  Coefficient  Atom+Function         Bfn.  Coefficient  Atom+Function  
  ----- ------------  ---------------      ----- ------------  ---------------
     4      1.351088  1 He s                  3     -1.040401  1 He s          
     2     -0.083031  1 He s          

 Vector    3  Occ=1.047860D-17  E= 0.000000D+00
              MO Center=  0.0D+00,  0.0D+00,  0.0D+00, r^2= 2.2D-01
   Bfn.  Coefficient  Atom+Function         Bfn.  Coefficient  Atom+Function  
  ----- ------------  ---------------      ----- ------------  ---------------
     3     -1.507805  1 He s                  2      1.402055  1 He s          
     4      0.575428  1 He s          

 Vector    4  Occ=1.200283D-18  E= 0.000000D+00
              MO Center=  0.0D+00,  0.0D+00,  0.0D+00, r^2= 3.3D-02
   Bfn.  Coefficient  Atom+Function         Bfn.  Coefficient  Atom+Function  
  ----- ------------  ---------------      ----- ------------  ---------------
     1      1.253988  1 He s                  2     -1.019858  1 He s          
     3      0.520781  1 He s                  4     -0.174146  1 He s          


                     WFN1 Final Beta Natural Orbital Analysis
                     ----------------------------------------

 Vector    1  Occ=0.000000D+00  E= 0.000000D+00
              MO Center=  0.0D+00,  0.0D+00,  0.0D+00, r^2= 2.2D-01
   Bfn.  Coefficient  Atom+Function         Bfn.  Coefficient  Atom+Function  
  ----- ------------  ---------------      ----- ------------  ---------------
     3      0.618661  1 He s                  4      0.304989  1 He s          
     2      0.202821  1 He s                  1      0.028357  1 He s          

 Vector    2  Occ=0.000000D+00  E= 0.000000D+00
              MO Center=  0.0D+00,  0.0D+00,  0.0D+00, r^2= 9.3D-01
   Bfn.  Coefficient  Atom+Function         Bfn.  Coefficient  Atom+Function  
  ----- ------------  ---------------      ----- ------------  ---------------
     4      1.351088  1 He s                  3     -1.040401  1 He s          
     2     -0.083031  1 He s          

 Vector    3  Occ=0.000000D+00  E= 0.000000D+00
              MO Center=  0.0D+00,  0.0D+00,  0.0D+00, r^2= 2.2D-01
   Bfn.  Coefficient  Atom+Function         Bfn.  Coefficient  Atom+Function  
  ----- ------------  ---------------      ----- ------------  ---------------
     3     -1.507805  1 He s                  2      1.402055  1 He s          
     4      0.575428  1 He s          

 Vector    4  Occ=0.000000D+00  E= 0.000000D+00
              MO Center=  0.0D+00,  0.0D+00,  0.0D+00, r^2= 3.3D-02
   Bfn.  Coefficient  Atom+Function         Bfn.  Coefficient  Atom+Function  
  ----- ------------  ---------------      ----- ------------  ---------------
     1      1.253988  1 He s                  2     -1.019858  1 He s          
     3      0.520780  1 He s                  4     -0.174146  1 He s          


 Task  times  cpu:        3.3s     wall:        3.3s


                                NWChem Input Module
                                -------------------



                                NWChem WFN1 Module
                                ------------------


  movecs_read_header: failed to open ./wfn1_he_dat.covecs IERR =                     2
 iteration              energy           error          err Na          err Nb          err Ca          err Cb
 ---------              ------           -----          ------          ------          ------          ------
         1         -1.55494849     3119.139696        0.000000        0.000000     1286.992460     1832.147237
         2         -1.55497713     1860.199462        0.000000        0.000000      752.403822     1107.795640
         3         -1.55500570     1652.217181        0.000001        0.000000       81.881818     1570.335363
         4         -1.55487426     1667.879832        0.000034        0.000000       41.901886     1625.977912
         5         -1.55511270      425.248161        0.000005        0.000000      155.539286      269.708870
         6         -1.55513681     1535.951425        0.000001        0.000000     1053.350008      482.601416
         7         -1.55514868     3096.984129        0.000119        0.000000      806.167424     2290.816586
         8         -1.55519478     2546.450627        0.000023        0.000000     1164.710891     1381.739713
         9         -1.55520638      575.736552        0.000005        0.000000      471.179981      104.556565
        10         -1.55513149     1928.679541        0.000060        0.000000      397.860626     1530.818855
        11         -1.55526925     1457.147443        0.000000        0.000000     1306.401084      150.746358
        12         -1.55530394     2894.609955        0.000014        0.000000      624.849133     2269.760808
        13         -1.55530770     2736.047928        0.000010        0.000000      402.626352     2333.421566
        14         -1.55532992     2980.754257        0.000004        0.000000      822.666055     2158.088198
        15         -1.55532148     2982.743472        0.000001        0.000000      902.676775     2080.066696
        16         -1.55510890     2358.223637        0.000009        0.000000     1104.182064     1254.041564
        17         -1.55521938     2146.995307        0.002147        0.000000      132.071401     2014.921758
        18         -1.55535100      248.954508        0.000546        0.000000        3.631219      245.322743
        19         -1.55538051       48.148645        0.000092        0.000000        0.003301       48.145252
        20         -1.55542545      136.068351        0.000184        0.000000        0.021178      136.046989
        21         -1.55545403      271.987629        0.000012        0.000000        0.021161      271.966455
        22         -1.55553976     1886.839953        0.000297        0.000000        1.541285     1885.298371
        23         -1.55555817     1819.214426        0.000054        0.000000        0.004760     1819.209612
        24         -1.55557845     2242.487296        0.000024        0.000000        0.011930     2242.475341
        25         -1.55560123      880.296943        0.000038        0.000000        0.079008      880.217897
        26         -1.55561285     1444.974804        0.000001        0.000000        0.053477     1444.921326
        27         -1.55563056      851.840959        0.000001        0.000000        0.360385      851.480572
        28         -1.55563698     1566.138878        0.000000        0.000000        0.016969     1566.121908
        29         -1.55566056     1965.403239        0.000000        0.000000        0.398915     1965.004323
        30         -1.55566505      464.872576        0.000000        0.000000        0.004218      464.868359
        31         -1.55568499      370.357095        0.000000        0.000000        0.128923      370.228171
        32         -1.55568837     1083.394793        0.000000        0.000000        0.020339     1083.374455
        33         -1.55569480     1125.214525        0.000000        0.000000        0.087740     1125.126785
        34         -1.55569765      501.865770        0.000000        0.000000        0.019970      501.845799
        35         -1.55570215     1710.756650        0.000000        0.000000        0.052320     1710.704330
        36         -1.55570471      953.002654        0.000000        0.000000        0.020295      952.982360
        37         -1.55570791     1837.485648        0.000000        0.000000        0.030806     1837.454842
        38         -1.55571023     1273.806295        0.000000        0.000000        0.018289     1273.788006
        39         -1.55571266     1697.676669        0.000000        0.000000        0.018815     1697.657854
        40         -1.55571472     1490.947172        0.000000        0.000000        0.014024     1490.933148
        41         -1.55571667     1588.369148        0.000000        0.000000        0.011926     1588.357222
        42         -1.55571843     1519.646049        0.000000        0.000000        0.009400     1519.636649
        43         -1.55572005     1479.674305        0.000000        0.000000        0.007423     1479.666882
        44         -1.55572152     1386.587524        0.000000        0.000000        0.005683     1386.581840
        45         -1.55572287     1268.300420        0.000000        0.000000        0.004240     1268.296180
        46         -1.55572410     1164.355795        0.000000        0.000000        0.003045     1164.352750
        47         -1.55572522     1127.672547        0.000000        0.000000        0.002104     1127.670443
        48         -1.55572624     1144.073725        0.000000        0.000000        0.001377     1144.072348
        49         -1.55572716     1170.931816        0.000000        0.000000        0.000837     1170.930979
        50         -1.55572799     1159.423580        0.000000        0.000000        0.000461     1159.423119
        51         -1.55572873     1088.691900        0.000000        0.000000        0.000223     1088.691677
        52         -1.55572940      962.869106        0.000000        0.000000        0.000093      962.869013
        53         -1.55572999      801.926546        0.000000        0.000000        0.000033      801.926513
        54         -1.55573052      626.431403        0.000000        0.000000        0.000011      626.431392
        55         -1.55573099      455.861148        0.000000        0.000000        0.000005      455.861143
        56         -1.55573142      306.052571        0.000000        0.000000        0.000003      306.052568
        57         -1.55573181      187.812280        0.000000        0.000000        0.000003      187.812278
        58         -1.55573216      104.902098        0.000000        0.000000        0.000002      104.902096
        59         -1.55573248       53.739229        0.000000        0.000000        0.000002       53.739227
        60         -1.55573277       25.971582        0.000000        0.000000        0.000002       25.971580
        61         -1.55573304       12.500560        0.000000        0.000000        0.000002       12.500558
        62         -1.55573329        6.411551        0.000000        0.000000        0.000002        6.411549
        63         -1.55573352        3.654018        0.000000        0.000000        0.000002        3.654016
        64         -1.55573373        2.291216        0.000000        0.000000        0.000002        2.291214
        65         -1.55573393        1.524080        0.000000        0.000000        0.000002        1.524079
        66         -1.55573411        1.044495        0.000000        0.000000        0.000002        1.044494
        67         -1.55573428        0.727109        0.000000        0.000000        0.000001        0.727108
        68         -1.55573444        0.511599        0.000000        0.000000        0.000001        0.511597
        69         -1.55573459        0.363380        0.000000        0.000000        0.000001        0.363378
        70         -1.55573473        0.260538        0.000000        0.000000        0.000001        0.260537
        71         -1.55573486        0.188622        0.000000        0.000000        0.000001        0.188621
        72         -1.55573498        0.137948        0.000000        0.000000        0.000001        0.137947
        73         -1.55573510        0.101974        0.000000        0.000000        0.000001        0.101973
        74         -1.55573521        0.076247        0.000000        0.000000        0.000001        0.076246
        75         -1.55573531        0.057712        0.000000        0.000000        0.000001        0.057711
        76         -1.55573541        0.044262        0.000000        0.000000        0.000001        0.044261
        77         -1.55573550        0.034429        0.000000        0.000000        0.000001        0.034428
        78         -1.55573559        0.027187        0.000000        0.000000        0.000001        0.027186
        79         -1.55573568        0.021812        0.000000        0.000000        0.000001        0.021811
        80         -1.55573575        0.017790        0.000000        0.000000        0.000001        0.017789
        81         -1.55573583        0.014756        0.000000        0.000000        0.000001        0.014755
        82         -1.55573590        0.012446        0.000000        0.000000        0.000001        0.012445
        83         -1.55573597        0.010670        0.000000        0.000000        0.000001        0.010670
        84         -1.55573603        0.009292        0.000000        0.000000        0.000001        0.009291
        85         -1.55573610        0.008209        0.000000        0.000000        0.000001        0.008209
        86         -1.55573616        0.007350        0.000000        0.000000        0.000001        0.007349
        87         -1.55573621        0.006658        0.000000        0.000000        0.000001        0.006657
        88         -1.55573627        0.006094        0.000000        0.000000        0.000001        0.006093
        89         -1.55573632        0.005628        0.000000        0.000000        0.000001        0.005627
        90         -1.55573637        0.005238        0.000000        0.000000        0.000001        0.005237
        91         -1.55573642        0.004906        0.000000        0.000000        0.000001        0.004905
        92         -1.55573646        0.004620        0.000000        0.000000        0.000001        0.004620
        93         -1.55573650        0.004371        0.000000        0.000000        0.000000        0.004370
        94         -1.55573655        0.004150        0.000000        0.000000        0.000000        0.004150
        95         -1.55573659        0.003953        0.000000        0.000000        0.000000        0.003953
        96         -1.55573662        0.003775        0.000000        0.000000        0.000000        0.003775
        97         -1.55573666        0.003613        0.000000        0.000000        0.000000        0.003613
        98         -1.55573670        0.003464        0.000000        0.000000        0.000000        0.003464
        99         -1.55573673        0.003326        0.000000        0.000000        0.000000        0.003325
       100         -1.55573676        0.003197        0.000000        0.000000        0.000000        0.003197
       101         -1.55573679        0.003076        0.000000        0.000000        0.000000        0.003076
       102         -1.55573683        0.002962        0.000000        0.000000        0.000000        0.002962
       103         -1.55573685        0.002855        0.000000        0.000000        0.000000        0.002855
       104         -1.55573688        0.002753        0.000000        0.000000        0.000000        0.002753
       105         -1.55573691        0.002656        0.000000        0.000000        0.000000        0.002656
       106         -1.55573694        0.002564        0.000000        0.000000        0.000000        0.002563
       107         -1.55573696        0.002476        0.000000        0.000000        0.000000        0.002475
       108         -1.55573699        0.002391        0.000000        0.000000        0.000000        0.002391
       109         -1.55573701        0.002310        0.000000        0.000000        0.000000        0.002310
       110         -1.55573703        0.002232        0.000000        0.000000        0.000000        0.002232
       111         -1.55573705        0.002158        0.000000        0.000000        0.000000        0.002158
       112         -1.55573707        0.002086        0.000000        0.000000        0.000000        0.002086
       113         -1.55573709        0.002017        0.000000        0.000000        0.000000        0.002017
       114         -1.55573711        0.001951        0.000000        0.000000        0.000000        0.001950
       115         -1.55573713        0.001887        0.000000        0.000000        0.000000        0.001886
       116         -1.55573715        0.001825        0.000000        0.000000        0.000000        0.001825
       117         -1.55573717        0.001765        0.000000        0.000000        0.000000        0.001765
       118         -1.55573719        0.001708        0.000000        0.000000        0.000000        0.001708
       119         -1.55573720        0.001652        0.000000        0.000000        0.000000        0.001652
       120         -1.55573722        0.001599        0.000000        0.000000        0.000000        0.001599
       121         -1.55573723        0.001547        0.000000        0.000000        0.000000        0.001547
       122         -1.55573725        0.001497        0.000000        0.000000        0.000000        0.001497
       123         -1.55573726        0.001449        0.000000        0.000000        0.000000        0.001449
       124         -1.55573728        0.001402        0.000000        0.000000        0.000000        0.001402
       125         -1.55573729        0.001357        0.000000        0.000000        0.000000        0.001357
       126         -1.55573731        0.001313        0.000000        0.000000        0.000000        0.001313
       127         -1.55573732        0.001271        0.000000        0.000000        0.000000        0.001271
       128         -1.55573733        0.001230        0.000000        0.000000        0.000000        0.001230
       129         -1.55573734        0.001190        0.000000        0.000000        0.000000        0.001190
       130         -1.55573735        0.001152        0.000000        0.000000        0.000000        0.001152
       131         -1.55573736        0.001115        0.000000        0.000000        0.000000        0.001115
       132         -1.55573738        0.001079        0.000000        0.000000        0.000000        0.001079
       133         -1.55573739        0.001044        0.000000        0.000000        0.000000        0.001044
       134         -1.55573740        0.001010        0.000000        0.000000        0.000000        0.001010
       135         -1.55573741        0.000978        0.000000        0.000000        0.000000        0.000978
       136         -1.55573742        0.000946        0.000000        0.000000        0.000000        0.000946
       137         -1.55573742        0.000915        0.000000        0.000000        0.000000        0.000915
       138         -1.55573743        0.000886        0.000000        0.000000        0.000000        0.000886
       139         -1.55573744        0.000857        0.000000        0.000000        0.000000        0.000857
       140         -1.55573745        0.000829        0.000000        0.000000        0.000000        0.000829
       141         -1.55573746        0.000802        0.000000        0.000000        0.000000        0.000802
       142         -1.55573747        0.000775        0.000000        0.000000        0.000000        0.000775
       143         -1.55573747        0.000750        0.000000        0.000000        0.000000        0.000750
       144         -1.55573748        0.000725        0.000000        0.000000        0.000000        0.000725
       145         -1.55573749        0.000701        0.000000        0.000000        0.000000        0.000701
       146         -1.55573750        0.000678        0.000000        0.000000        0.000000        0.000678
       147         -1.55573750        0.000655        0.000000        0.000000        0.000000        0.000655
       148         -1.55573751        0.000633        0.000000        0.000000        0.000000        0.000633
       149         -1.55573752        0.000612        0.000000        0.000000        0.000000        0.000612
       150         -1.55573752        0.000591        0.000000        0.000000        0.000000        0.000591
       151         -1.55573753        0.000571        0.000000        0.000000        0.000000        0.000571
       152         -1.55573753        0.000552        0.000000        0.000000        0.000000        0.000552
       153         -1.55573754        0.000533        0.000000        0.000000        0.000000        0.000533
       154         -1.55573754        0.000515        0.000000        0.000000        0.000000        0.000515
       155         -1.55573755        0.000497        0.000000        0.000000        0.000000        0.000497
       156         -1.55573755        0.000480        0.000000        0.000000        0.000000        0.000480
       157         -1.55573756        0.000463        0.000000        0.000000        0.000000        0.000463
       158         -1.55573756        0.000447        0.000000        0.000000        0.000000        0.000446
       159         -1.55573757        0.000431        0.000000        0.000000        0.000000        0.000431
       160         -1.55573757        0.000415        0.000000        0.000000        0.000000        0.000415
       161         -1.55573758        0.000400        0.000000        0.000000        0.000000        0.000400
       162         -1.55573758        0.000386        0.000000        0.000000        0.000000        0.000386
       163         -1.55573759        0.000372        0.000000        0.000000        0.000000        0.000372
       164         -1.55573759        0.000358        0.000000        0.000000        0.000000        0.000358
       165         -1.55573759        0.000345        0.000000        0.000000        0.000000        0.000345
       166         -1.55573760        0.000332        0.000000        0.000000        0.000000        0.000332
       167         -1.55573760        0.000319        0.000000        0.000000        0.000000        0.000319
       168         -1.55573760        0.000307        0.000000        0.000000        0.000000        0.000307
       169         -1.55573761        0.000295        0.000000        0.000000        0.000000        0.000295
       170         -1.55573761        0.000283        0.000000        0.000000        0.000000        0.000283
       171         -1.55573761        0.000272        0.000000        0.000000        0.000000        0.000272
       172         -1.55573762        0.000261        0.000000        0.000000        0.000000        0.000261
       173         -1.55573762        0.000250        0.000000        0.000000        0.000000        0.000250
       174         -1.55573762        0.000240        0.000000        0.000000        0.000000        0.000240
       175         -1.55573762        0.000230        0.000000        0.000000        0.000000        0.000230
       176         -1.55573763        0.000220        0.000000        0.000000        0.000000        0.000220
       177         -1.55573763        0.000210        0.000000        0.000000        0.000000        0.000210
       178         -1.55573763        0.000201        0.000000        0.000000        0.000000        0.000201
       179         -1.55573763        0.000192        0.000000        0.000000        0.000000        0.000192
       180         -1.55573764        0.000183        0.000000        0.000000        0.000000        0.000183
       181         -1.55573764        0.000174        0.000000        0.000000        0.000000        0.000174
       182         -1.55573764        0.000166        0.000000        0.000000        0.000000        0.000166
       183         -1.55573764        0.000158        0.000000        0.000000        0.000000        0.000158
       184         -1.55573764        0.000150        0.000000        0.000000        0.000000        0.000150
       185         -1.55573765        0.000142        0.000000        0.000000        0.000000        0.000142
       186         -1.55573765        0.000134        0.000000        0.000000        0.000000        0.000134
       187         -1.55573765        0.000126        0.000000        0.000000        0.000000        0.000126
       188         -1.55573765        0.000119        0.000000        0.000000        0.000000        0.000119
       189         -1.55573765        0.000112        0.000000        0.000000        0.000000        0.000112
       190         -1.55573765        0.000104        0.000000        0.000000        0.000000        0.000104
       191         -1.55573766        0.000097        0.000000        0.000000        0.000000        0.000097

 Reached Convergence

 Total energy      =          -1.5557376556
 1-Electron energy =          -2.1360716102
 2-Electron energy =           0.5844863531
 Entropy energy    =          -0.0041523985
 Nuclear energy    =           0.0000000000


      Natural orbital occupation numbers

          Alpha     Beta
         ------   ------
     1   1.0000   0.0000
     2   0.9995   0.0000
     3   0.0005   0.0000
     4   0.0000   0.0000

                     WFN1 Final Alpha Natural Orbital Analysis
                     -----------------------------------------

 Vector    1  Occ=9.999878D-01  E= 0.000000D+00
              MO Center=  0.0D+00,  0.0D+00,  0.0D+00, r^2= 2.2D-01
   Bfn.  Coefficient  Atom+Function         Bfn.  Coefficient  Atom+Function  
  ----- ------------  ---------------      ----- ------------  ---------------
     3      0.618637  1 He s                  4      0.305027  1 He s          
     2      0.202811  1 He s                  1      0.028357  1 He s          

 Vector    2  Occ=9.995353D-01  E= 0.000000D+00
              MO Center=  0.0D+00,  0.0D+00,  0.0D+00, r^2= 9.3D-01
   Bfn.  Coefficient  Atom+Function         Bfn.  Coefficient  Atom+Function  
  ----- ------------  ---------------      ----- ------------  ---------------
     4      1.351079  1 He s                  3     -1.040419  1 He s          
     2     -0.083038  1 He s          

 Vector    3  Occ=4.768802D-04  E= 0.000000D+00
              MO Center=  0.0D+00,  0.0D+00,  0.0D+00, r^2= 2.2D-01
   Bfn.  Coefficient  Atom+Function         Bfn.  Coefficient  Atom+Function  
  ----- ------------  ---------------      ----- ------------  ---------------
     3     -1.507778  1 He s                  2      1.402009  1 He s          
     4      0.575421  1 He s          

 Vector    4  Occ=8.258879D-19  E= 0.000000D+00
              MO Center=  0.0D+00,  0.0D+00,  0.0D+00, r^2= 3.3D-02
   Bfn.  Coefficient  Atom+Function         Bfn.  Coefficient  Atom+Function  
  ----- ------------  ---------------      ----- ------------  ---------------
     1      1.253987  1 He s                  2     -1.019922  1 He s          
     3      0.520848  1 He s                  4     -0.174172  1 He s          


                     WFN1 Final Beta Natural Orbital Analysis
                     ----------------------------------------

 Vector    1  Occ=0.000000D+00  E= 0.000000D+00
              MO Center=  0.0D+00,  0.0D+00,  0.0D+00, r^2= 2.2D-01
   Bfn.  Coefficient  Atom+Function         Bfn.  Coefficient  Atom+Function  
  ----- ------------  ---------------      ----- ------------  ---------------
     3      0.618661  1 He s                  4      0.304989  1 He s          
     2      0.202821  1 He s                  1      0.028357  1 He s          

 Vector    2  Occ=0.000000D+00  E= 0.000000D+00
              MO Center=  0.0D+00,  0.0D+00,  0.0D+00, r^2= 9.3D-01
   Bfn.  Coefficient  Atom+Function         Bfn.  Coefficient  Atom+Function  
  ----- ------------  ---------------      ----- ------------  ---------------
     4      1.351088  1 He s                  3     -1.040401  1 He s          
     2     -0.083031  1 He s          

 Vector    3  Occ=0.000000D+00  E= 0.000000D+00
              MO Center=  0.0D+00,  0.0D+00,  0.0D+00, r^2= 2.2D-01
   Bfn.  Coefficient  Atom+Function         Bfn.  Coefficient  Atom+Function  
  ----- ------------  ---------------      ----- ------------  ---------------
     3     -1.507805  1 He s                  2      1.402055  1 He s          
     4      0.575428  1 He s          

 Vector    4  Occ=0.000000D+00  E= 0.000000D+00
              MO Center=  0.0D+00,  0.0D+00,  0.0D+00, r^2= 3.3D-02
   Bfn.  Coefficient  Atom+Function         Bfn.  Coefficient  Atom+Function  
  ----- ------------  ---------------      ----- ------------  ---------------
     1      1.253988  1 He s                  2     -1.019858  1 He s          
     3      0.520780  1 He s                  4     -0.174146  1 He s          


 Task  times  cpu:        8.9s     wall:        8.9s


                                NWChem Input Module
                                -------------------


 Summary of allocated global arrays
-----------------------------------
  No active global arrays



                         GA Statistics for process    0
                         ------------------------------

       create   destroy   get      put      acc     scatter   gather  read&inc
calls:  219      219     1.04e+06 4.05e+04 7.00e+05    0        0       66     
number of processes/call 1.00e+00 1.00e+00 1.00e+00 0.00e+00 0.00e+00
bytes total:             9.68e+07 5.15e+06 7.41e+07 0.00e+00 0.00e+00 5.28e+02
bytes remote:            0.00e+00 0.00e+00 0.00e+00 0.00e+00 0.00e+00 0.00e+00
Max memory consumed for GA by this process: 8064 bytes

MA_summarize_allocated_blocks: starting scan ...
MA_summarize_allocated_blocks: scan completed: 0 heap blocks, 0 stack blocks
MA usage statistics:

	allocation statistics:
					      heap	     stack
					      ----	     -----
	current number of blocks	         0	         0
	maximum number of blocks	        18	        19
	current total bytes		         0	         0
	maximum total bytes		     80136	  22509928
	maximum total K-bytes		        81	     22510
	maximum total M-bytes		         1	        23


                                     CITATION
                                     --------
                Please cite the following reference when publishing
                           results obtained with NWChem:

                 M. Valiev, E.J. Bylaska, N. Govind, K. Kowalski,
              T.P. Straatsma, H.J.J. van Dam, D. Wang, J. Nieplocha,
                        E. Apra, T.L. Windus, W.A. de Jong
                 "NWChem: a comprehensive and scalable open-source
                  solution for large scale molecular simulations"
                      Comput. Phys. Commun. 181, 1477 (2010)
                           doi:10.1016/j.cpc.2010.04.018

                                      AUTHORS
                                      -------
          E. Apra, E. J. Bylaska, W. A. de Jong, N. Govind, K. Kowalski,
       T. P. Straatsma, M. Valiev, H. J. J. van Dam, D. Wang, T. L. Windus,
        J. Hammond, J. Autschbach, K. Bhaskaran-Nair, J. Brabec, K. Lopata,
       S. A. Fischer, S. Krishnamoorthy, W. Ma, M. Klemm, O. Villa, Y. Chen,
    V. Anisimov, F. Aquino, S. Hirata, M. T. Hackler, V. Konjkov, T. Risthaus,
       M. Malagoli, A. Marenich, A. Otero-de-la-Roza, J. Mullin, P. Nichols,
      R. Peverati, J. Pittner, Y. Zhao, P.-D. Fan, A. Fonari, M. Williamson,
      R. J. Harrison, J. R. Rehr, M. Dupuis, D. Silverstein, D. M. A. Smith,
            J. Nieplocha, V. Tipparaju, M. Krishnan, B. E. Van Kuiken,
        A. Vazquez-Mayagoitia, L. Jensen, M. Swart, Q. Wu, T. Van Voorhis,
     A. A. Auer, M. Nooijen, L. D. Crosby, E. Brown, G. Cisneros, G. I. Fann,
   H. Fruchtl, J. Garza, K. Hirao, R. A. Kendall, J. A. Nichols, K. Tsemekhman,
    K. Wolinski, J. Anchell, D. E. Bernholdt, P. Borowski, T. Clark, D. Clerc,
   H. Dachsel, M. J. O. Deegan, K. Dyall, D. Elwood, E. Glendening, M. Gutowski,
   A. C. Hess, J. Jaffe, B. G. Johnson, J. Ju, R. Kobayashi, R. Kutteh, Z. Lin,
   R. Littlefield, X. Long, B. Meng, T. Nakajima, S. Niu, L. Pollack, M. Rosing,
   K. Glaesemann, G. Sandrone, M. Stave, H. Taylor, G. Thomas, J. H. van Lenthe,
                               A. T. Wong, Z. Zhang.

 Total times  cpu:       12.5s     wall:       12.5s
