 argument  1 = /Users/edo/nwchem/nwchem/QA/tests/h2o2_fde/h2o2_fde.nw
                                         
                                         


             Northwest Computational Chemistry Package (NWChem) 7.2.0
             --------------------------------------------------------


                    Environmental Molecular Sciences Laboratory
                       Pacific Northwest National Laboratory
                                Richland, WA 99352

                              Copyright (c) 1994-2022
                       Pacific Northwest National Laboratory
                            Battelle Memorial Institute

             NWChem is an open-source computational chemistry package
                        distributed under the terms of the
                      Educational Community License (ECL) 2.0
             A copy of the license is included with this distribution
                              in the LICENSE.TXT file

                                  ACKNOWLEDGMENT
                                  --------------

            This software and its documentation were developed at the
            EMSL at Pacific Northwest National Laboratory, a multiprogram
            national laboratory, operated for the U.S. Department of Energy
            by Battelle under Contract Number DE-AC05-76RL01830. Support
            for this work was provided by the Department of Energy Office
            of Biological and Environmental Research, Office of Basic
            Energy Sciences, and the Office of Advanced Scientific Computing.


           Job information
           ---------------

    hostname        = WD86392
    program         = /Users/edo/nwchem/nwchem/bin/MACX64/nwchem
    date            = Tue Dec 13 16:33:28 2022

    compiled        = Tue_Dec_13_16:19:45_2022
    source          = /Users/edo/nwchem/nwchem
    nwchem branch   = 7.2.0
    nwchem revision = v7.2.0-beta1-127-g68c4e2d3da
    ga revision     = 5.8.0
    use scalapack   = T
    input           = /Users/edo/nwchem/nwchem/QA/tests/h2o2_fde/h2o2_fde.nw
    prefix          = dimer.
    data base       = ./dimer.db
    status          = startup
    nproc           =        4
    time left       =     -1s



           Memory information
           ------------------

    heap     =   26214396 doubles =    200.0 Mbytes
    stack    =   26214401 doubles =    200.0 Mbytes
    global   =   52428800 doubles =    400.0 Mbytes (distinct from heap & stack)
    total    =  104857597 doubles =    800.0 Mbytes
    verify   = yes
    hardfail = no 


           Directory information
           ---------------------

  0 permanent = .
  0 scratch   = .




                                NWChem Input Module
                                -------------------


                   Water dimer DFT using fragment initial guess
                   --------------------------------------------

 Scaling coordinates for geometry "dimer" by  1.889725989
 (inverse scale =  0.529177249)



                              Geometry "dimer" -> ""
                              ----------------------

 Output coordinates in angstroms (scale by  1.889725989 to convert to a.u.)

  No.       Tag          Charge          X              Y              Z
 ---- ---------------- ---------- -------------- -------------- --------------
    1 O                    8.0000    -0.59500000     1.16500000    -0.04800000
    2 H                    1.0000     0.11000000     1.81200000    -0.17000000
    3 H                    1.0000    -1.45200000     1.59800000    -0.15400000
    4 O                    8.0000     0.72400000    -1.28400000     0.03400000
    5 H                    1.0000     0.17500000    -2.01300000     0.34800000
    6 H                    1.0000     0.17700000    -0.48000000     0.01000000

      Atomic Mass 
      ----------- 

      O                 15.994910
      H                  1.007825


 Effective nuclear repulsion energy (a.u.)      37.1751338074

            Nuclear Dipole moment (a.u.) 
            ----------------------------
        X                 Y               Z
 ---------------- ---------------- ----------------
     0.0793684915    -0.0661404096    -0.1473986271

 ==============================================================================
                                internuclear distances
 ------------------------------------------------------------------------------
       center one      |      center two      | atomic units |  angstroms
 ------------------------------------------------------------------------------
    2 H                |   1 O                |     1.82289  |     0.96463
    3 H                |   1 O                |     1.82549  |     0.96601
    5 H                |   4 O                |     1.82379  |     0.96511
    6 H                |   4 O                |     1.83819  |     0.97273
 ------------------------------------------------------------------------------
                         number of included internuclear distances:          4
 ==============================================================================



 ==============================================================================
                                 internuclear angles
 ------------------------------------------------------------------------------
        center 1       |       center 2       |       center 3       |  degrees
 ------------------------------------------------------------------------------
    2 H                |   1 O                |   3 H                |   109.50
    5 H                |   4 O                |   6 H                |   108.21
 ------------------------------------------------------------------------------
                            number of included internuclear angles:          2
 ==============================================================================




 Scaling coordinates for geometry "h2o1" by  1.889725989
 (inverse scale =  0.529177249)



                            Geometry "h2o1" -> "     "
                            --------------------------

 Output coordinates in angstroms (scale by  1.889725989 to convert to a.u.)

  No.       Tag          Charge          X              Y              Z
 ---- ---------------- ---------- -------------- -------------- --------------
    1 O                    8.0000    -0.59500000     1.16500000    -0.04800000
    2 H                    1.0000     0.11000000     1.81200000    -0.17000000
    3 H                    1.0000    -1.45200000     1.59800000    -0.15400000

      Atomic Mass 
      ----------- 

      O                 15.994910
      H                  1.007825


 Effective nuclear repulsion energy (a.u.)       9.1066350976

            Nuclear Dipole moment (a.u.) 
            ----------------------------
        X                 Y               Z
 ---------------- ---------------- ----------------
   -11.5311079823    24.0562118346    -1.3379259999

 ==============================================================================
                                internuclear distances
 ------------------------------------------------------------------------------
       center one      |      center two      | atomic units |  angstroms
 ------------------------------------------------------------------------------
    2 H                |   1 O                |     1.82289  |     0.96463
    3 H                |   1 O                |     1.82549  |     0.96601
 ------------------------------------------------------------------------------
                         number of included internuclear distances:          2
 ==============================================================================



 ==============================================================================
                                 internuclear angles
 ------------------------------------------------------------------------------
        center 1       |       center 2       |       center 3       |  degrees
 ------------------------------------------------------------------------------
    2 H                |   1 O                |   3 H                |   109.50
 ------------------------------------------------------------------------------
                            number of included internuclear angles:          1
 ==============================================================================




 Scaling coordinates for geometry "h2o2" by  1.889725989
 (inverse scale =  0.529177249)



                             Geometry "h2o2" -> "    "
                             -------------------------

 Output coordinates in angstroms (scale by  1.889725989 to convert to a.u.)

  No.       Tag          Charge          X              Y              Z
 ---- ---------------- ---------- -------------- -------------- --------------
    1 O                    8.0000     0.72400000    -1.28400000     0.03400000
    2 H                    1.0000     0.17500000    -2.01300000     0.34800000
    3 H                    1.0000     0.17700000    -0.48000000     0.01000000

      Atomic Mass 
      ----------- 

      O                 15.994910
      H                  1.007825


 Effective nuclear repulsion energy (a.u.)       9.0756599442

            Nuclear Dipole moment (a.u.) 
            ----------------------------
        X                 Y               Z
 ---------------- ---------------- ----------------
    11.6104764738   -24.1223522442     1.1905273728

 ==============================================================================
                                internuclear distances
 ------------------------------------------------------------------------------
       center one      |      center two      | atomic units |  angstroms
 ------------------------------------------------------------------------------
    2 H                |   1 O                |     1.82379  |     0.96511
    3 H                |   1 O                |     1.83819  |     0.97273
 ------------------------------------------------------------------------------
                         number of included internuclear distances:          2
 ==============================================================================



 ==============================================================================
                                 internuclear angles
 ------------------------------------------------------------------------------
        center 1       |       center 2       |       center 3       |  degrees
 ------------------------------------------------------------------------------
    2 H                |   1 O                |   3 H                |   108.21
 ------------------------------------------------------------------------------
                            number of included internuclear angles:          1
 ==============================================================================



                      Basis "ao basis" -> "" (cartesian)
                      -----
  o (Oxygen)
  ----------
            Exponent  Coefficients 
       -------------- ---------------------------------------------------------
  1 S  3.22037000E+02  0.059239
  1 S  4.84308000E+01  0.351500
  1 S  1.04206000E+01  0.707658

  2 S  7.40294000E+00 -0.404453
  2 S  1.57620000E+00  1.221560

  3 P  7.40294000E+00  0.244586
  3 P  1.57620000E+00  0.853955

  4 S  3.73684000E-01  1.000000

  5 P  3.73684000E-01  1.000000

  h (Hydrogen)
  ------------
            Exponent  Coefficients 
       -------------- ---------------------------------------------------------
  1 S  5.44717800E+00  0.156285
  1 S  8.24547000E-01  0.904691

  2 S  1.83192000E-01  1.000000



 Summary of "ao basis" -> "" (cartesian)
 ------------------------------------------------------------------------------
       Tag                 Description            Shells   Functions and Types
 ---------------- ------------------------------  ------  ---------------------
 o                           3-21g                   5        9   3s2p
 h                           3-21g                   2        2   2s



                                 NWChem DFT Module
                                 -----------------


                   Water dimer DFT using fragment initial guess




 Summary of "ao basis" -> "ao basis" (cartesian)
 ------------------------------------------------------------------------------
       Tag                 Description            Shells   Functions and Types
 ---------------- ------------------------------  ------  ---------------------
 o                           3-21g                   5        9   3s2p
 h                           3-21g                   2        2   2s


  Caching 1-el integrals 
  itol2e modified to match energy
  convergence criterion.
  tol_rho modified to match energy
  convergence criterion.

            General Information
            -------------------
          SCF calculation type: DFT
          Wavefunction type:  closed shell.
          No. of atoms     :     3
          No. of electrons :    10
           Alpha electrons :     5
            Beta electrons :     5
          Charge           :     0
          Spin multiplicity:     1
          Use of symmetry is: off; symmetry adaption is: off
          Maximum number of iterations:  50
          AO basis - number of functions:    13
                     number of shells:     9
          Convergence on energy requested:  1.00D-09
          Convergence on density requested:  1.00D-05
          Convergence on gradient requested:  5.00D-04

              XC Information
              --------------
                        Slater Exchange Functional  1.000 local    
                      VWN V Correlation Functional  1.000 local    

             Grid Information
             ----------------
          Grid used for XC integration:  xfine     
          Radial quadrature: Mura-Knowles        
          Angular quadrature: Lebedev. 
          Tag              B.-S. Rad. Rad. Pts. Rad. Cut. Ang. Pts.
          ---              ---------- --------- --------- ---------
          O                   0.60      100           5.0      1454
          H                   0.35      100           6.0      1202
          Grid pruning is: off
          Number of quadrature shells:   300
          Spatial weights used:  Erf1

          Convergence Information
          -----------------------
          Convergence aids based upon iterative change in 
          total energy or number of iterations. 
          Levelshifting, if invoked, occurs when the 
          HOMO/LUMO gap drops below (HL_TOL):  1.00D-02
          DIIS, if invoked, will attempt to extrapolate 
          using up to (NFOCK): 10 stored Fock matrices.

                    Damping( 0%)  Levelshifting(0.5)       DIIS
                  --------------- ------------------- ---------------
          dE  on:    start            ASAP                start   
          dE off:    2 iters         50 iters            50 iters 


      Screening Tolerance Information
      -------------------------------
          Density screening/tol_rho:  1.00D-12
          AO Gaussian exp screening on grid/accAOfunc:  21
          CD Gaussian exp screening on grid/accCDfunc:  20
          XC Gaussian exp screening on grid/accXCfunc:  20
          Schwarz screening/accCoul:  1.00D-10


      Superposition of Atomic Density Guess
      -------------------------------------

 Sum of atomic energies:         -75.36108718

      Non-variational initial energy
      ------------------------------

 Total energy =     -75.515718
 1-e energy   =    -121.318677
 2-e energy   =      36.696324
 HOMO         =      -0.435169
 LUMO         =       0.159488

  WARNING: movecs_in_org=atomic not equal to movecs_in=./h2o1.movecs
   Time after variat. SCF:      0.1
   Time prior to 1st pass:      0.1

 Grid_pts file          = ./dimer.gridpts.0
 Record size in doubles =  12289        No. of grid_pts per rec  =   3070
 Max. records in memory =     41        Max. recs in file   = 253312716


           Memory utilization after 1st SCF pass: 
           Heap Space remaining (MW):        0.00                  12
          Stack Space remaining (MW):       26.21            26214172

   convergence    iter        energy       DeltaE   RMS-Dens  Diis-err    time
 ---------------- ----- ----------------- --------- --------- ---------  ------
 d= 0,ls=0.0,diis     1    -75.3710549078 -8.45D+01  6.15D-02  4.91D-01     0.1
 d= 0,ls=0.0,diis     2    -75.3562986007  1.48D-02  3.64D-02  5.83D-01     0.2
 d= 0,ls=0.0,diis     3    -75.4054300290 -4.91D-02  5.23D-03  3.66D-02     0.2
 d= 0,ls=0.0,diis     4    -75.4082557317 -2.83D-03  8.29D-04  1.99D-04     0.3
 d= 0,ls=0.0,diis     5    -75.4082798428 -2.41D-05  9.43D-06  8.63D-08     0.3
 d= 0,ls=0.0,diis     6    -75.4082798503 -7.50D-09  1.25D-06  2.28D-09     0.3
 d= 0,ls=0.0,diis     7    -75.4082798505 -1.70D-10  2.29D-07  2.03D-11     0.4


         Total DFT energy =      -75.408279850459
      One electron energy =     -122.589675198373
           Coulomb energy =       46.857460515028
    Exchange-Corr. energy =       -8.782700264736
 Nuclear repulsion energy =        9.106635097621

 Numeric. integr. density =        9.999999999955

     Total iterative time =      0.3s



                       DFT Final Molecular Orbital Analysis
                       ------------------------------------

 Vector    1  Occ=2.000000D+00  E=-1.844628D+01
              MO Center= -6.0D-01,  1.2D+00, -4.8D-02, r^2= 1.6D-02
   Bfn.  Coefficient  Atom+Function         Bfn.  Coefficient  Atom+Function  
  ----- ------------  ---------------      ----- ------------  ---------------
     1      0.981121  1 O  s                  2      0.107724  1 O  s          
     6     -0.044044  1 O  s          

 Vector    2  Occ=2.000000D+00  E=-8.835007D-01
              MO Center= -6.3D-01,  1.4D+00, -9.7D-02, r^2= 5.1D-01
   Bfn.  Coefficient  Atom+Function         Bfn.  Coefficient  Atom+Function  
  ----- ------------  ---------------      ----- ------------  ---------------
     6      0.669435  1 O  s                  1     -0.225048  1 O  s          
     2      0.208870  1 O  s                 10      0.126271  2 H  s          
    12      0.125699  3 H  s                  4      0.124921  1 O  py         
     8      0.116801  1 O  py                11      0.033790  2 H  s          
    13      0.033807  3 H  s                  5     -0.026364  1 O  pz         

 Vector    3  Occ=2.000000D+00  E=-4.572197D-01
              MO Center= -6.3D-01,  1.4D+00, -9.3D-02, r^2= 8.2D-01
   Bfn.  Coefficient  Atom+Function         Bfn.  Coefficient  Atom+Function  
  ----- ------------  ---------------      ----- ------------  ---------------
     3      0.409813  1 O  px                 7      0.333514  1 O  px         
    10      0.232700  2 H  s                 12     -0.232594  3 H  s          
    11      0.200527  2 H  s                 13     -0.200968  3 H  s          
     4      0.056381  1 O  py                 8      0.045736  1 O  py         

 Vector    4  Occ=2.000000D+00  E=-2.468658D-01
              MO Center= -5.8D-01,  1.0D+00, -2.0D-02, r^2= 6.2D-01
   Bfn.  Coefficient  Atom+Function         Bfn.  Coefficient  Atom+Function  
  ----- ------------  ---------------      ----- ------------  ---------------
     6      0.482223  1 O  s                  8     -0.475611  1 O  py         
     4     -0.430083  1 O  py                11     -0.122696  2 H  s          
    13     -0.123047  3 H  s                 10     -0.117354  2 H  s          
    12     -0.117320  3 H  s                  1     -0.107851  1 O  s          
     9      0.100398  1 O  pz                 5      0.090786  1 O  pz         

 Vector    5  Occ=2.000000D+00  E=-1.873211D-01
              MO Center= -6.0D-01,  1.2D+00, -4.8D-02, r^2= 5.3D-01
   Bfn.  Coefficient  Atom+Function         Bfn.  Coefficient  Atom+Function  
  ----- ------------  ---------------      ----- ------------  ---------------
     9      0.615179  1 O  pz                 5      0.513972  1 O  pz         
     8      0.128284  1 O  py                 4      0.107180  1 O  py         

 Vector    6  Occ=0.000000D+00  E= 7.312840D-02
              MO Center= -6.8D-01,  1.8D+00, -1.7D-01, r^2= 2.0D+00
   Bfn.  Coefficient  Atom+Function         Bfn.  Coefficient  Atom+Function  
  ----- ------------  ---------------      ----- ------------  ---------------
     6      1.004265  1 O  s                 13     -0.819811  3 H  s          
    11     -0.814766  2 H  s                  8      0.423269  1 O  py         
     4      0.250745  1 O  py                 1     -0.116459  1 O  s          
    12     -0.103870  3 H  s                 10     -0.102917  2 H  s          
     9     -0.089391  1 O  pz                 2      0.067085  1 O  s          

 Vector    7  Occ=0.000000D+00  E= 1.642272D-01
              MO Center= -6.6D-01,  1.7D+00, -1.6D-01, r^2= 2.1D+00
   Bfn.  Coefficient  Atom+Function         Bfn.  Coefficient  Atom+Function  
  ----- ------------  ---------------      ----- ------------  ---------------
    11      1.070591  2 H  s                 13     -1.063995  3 H  s          
     7     -0.725108  1 O  px                 3     -0.378692  1 O  px         
     8     -0.100940  1 O  py                10      0.096672  2 H  s          
    12     -0.096686  3 H  s                  4     -0.052697  1 O  py         

 Vector    8  Occ=0.000000D+00  E= 9.176391D-01
              MO Center= -6.8D-01,  1.6D+00, -1.3D-01, r^2= 1.6D+00
   Bfn.  Coefficient  Atom+Function         Bfn.  Coefficient  Atom+Function  
  ----- ------------  ---------------      ----- ------------  ---------------
    12     -0.976089  3 H  s                 10      0.936441  2 H  s          
    13      0.798524  3 H  s                 11     -0.773123  2 H  s          
     7     -0.303495  1 O  px                 3     -0.232290  1 O  px         
     8     -0.039257  1 O  py                 4     -0.025774  1 O  py         

 Vector    9  Occ=0.000000D+00  E= 9.416415D-01
              MO Center= -6.4D-01,  1.7D+00, -1.7D-01, r^2= 1.2D+00
   Bfn.  Coefficient  Atom+Function         Bfn.  Coefficient  Atom+Function  
  ----- ------------  ---------------      ----- ------------  ---------------
    10      0.971973  2 H  s                 12      0.930420  3 H  s          
    11     -0.577392  2 H  s                 13     -0.546273  3 H  s          
     4     -0.285304  1 O  py                 8     -0.171878  1 O  py         
     2     -0.085861  1 O  s                  5      0.060133  1 O  pz         
     1      0.056611  1 O  s                  9      0.036124  1 O  pz         

 Vector   10  Occ=0.000000D+00  E= 1.363923D+00
              MO Center= -6.0D-01,  1.2D+00, -4.8D-02, r^2= 7.3D-01
   Bfn.  Coefficient  Atom+Function         Bfn.  Coefficient  Atom+Function  
  ----- ------------  ---------------      ----- ------------  ---------------
     5      1.005533  1 O  pz                 9     -0.947005  1 O  pz         
     4      0.209686  1 O  py                 8     -0.197481  1 O  py         

 Vector   11  Occ=0.000000D+00  E= 1.427986D+00
              MO Center= -5.8D-01,  1.0D+00, -2.0D-02, r^2= 7.6D-01
   Bfn.  Coefficient  Atom+Function         Bfn.  Coefficient  Atom+Function  
  ----- ------------  ---------------      ----- ------------  ---------------
     8      1.127004  1 O  py                 4     -0.960806  1 O  py         
    10     -0.292883  2 H  s                 12     -0.292748  3 H  s          
     9     -0.237861  1 O  pz                 6      0.223981  1 O  s          
     5      0.202796  1 O  pz                 7     -0.155230  1 O  px         
     3      0.133007  1 O  px                 2      0.104450  1 O  s          

 Vector   12  Occ=0.000000D+00  E= 1.568795D+00
              MO Center= -5.9D-01,  1.1D+00, -3.4D-02, r^2= 9.4D-01
   Bfn.  Coefficient  Atom+Function         Bfn.  Coefficient  Atom+Function  
  ----- ------------  ---------------      ----- ------------  ---------------
     7      1.483257  1 O  px                 3     -1.017898  1 O  px         
    11     -0.504681  2 H  s                 13      0.503478  3 H  s          
    12      0.226849  3 H  s                 10     -0.225398  2 H  s          
     8      0.202770  1 O  py                 4     -0.138832  1 O  py         

 Vector   13  Occ=0.000000D+00  E= 2.663142D+00
              MO Center= -6.2D-01,  1.3D+00, -8.2D-02, r^2= 7.6D-01
   Bfn.  Coefficient  Atom+Function         Bfn.  Coefficient  Atom+Function  
  ----- ------------  ---------------      ----- ------------  ---------------
     6      1.980054  1 O  s                  2     -1.639146  1 O  s          
     8      0.428851  1 O  py                11     -0.373653  2 H  s          
    13     -0.371645  3 H  s                 10     -0.258318  2 H  s          
    12     -0.258178  3 H  s                  4     -0.121538  1 O  py         
     1      0.092634  1 O  s                  9     -0.090510  1 O  pz         


 center of mass
 --------------
 x =  -1.14046009 y =   2.31573456 z =  -0.11481654

 moments of inertia (a.u.)
 ------------------
           2.029985630287          -0.339170413214          -0.010410989166
          -0.339170413214           4.510968658533           0.399680758757
          -0.010410989166           0.399680758757           6.373880367517

     Multipole analysis of the density
     ---------------------------------

     L   x y z        total         alpha         beta         nuclear
     -   - - -        -----         -----         ----         -------
     0   0 0 0     -0.000000     -5.000000     -5.000000     10.000000

     1   1 0 0     -0.119704      5.705702      5.705702    -11.531108
     1   0 1 0      0.856477    -11.599867    -11.599867     24.056212
     1   0 0 1     -0.180796      0.578565      0.578565     -1.337926

     2   2 0 0     -2.729657    -10.207862    -10.207862     17.686067
     2   1 1 0     -1.079872     13.148625     13.148625    -27.377122
     2   1 0 1      0.221625     -0.663016     -0.663016      1.547656
     2   0 2 0     -0.299738    -29.958878    -29.958878     59.618019
     2   0 1 1     -0.682639      1.446877      1.446877     -3.576392
     2   0 0 2     -4.999940     -2.626829     -2.626829      0.253717


 Task  times  cpu:        0.4s     wall:        0.4s


                                NWChem Input Module
                                -------------------



                                 NWChem DFT Module
                                 -----------------


                   Water dimer DFT using fragment initial guess




 Summary of "ao basis" -> "ao basis" (cartesian)
 ------------------------------------------------------------------------------
       Tag                 Description            Shells   Functions and Types
 ---------------- ------------------------------  ------  ---------------------
 o                           3-21g                   5        9   3s2p
 h                           3-21g                   2        2   2s


  Caching 1-el integrals 
  itol2e modified to match energy
  convergence criterion.

            General Information
            -------------------
          SCF calculation type: DFT
          Wavefunction type:  closed shell.
          No. of atoms     :     3
          No. of electrons :    10
           Alpha electrons :     5
            Beta electrons :     5
          Charge           :     0
          Spin multiplicity:     1
          Use of symmetry is: off; symmetry adaption is: off
          Maximum number of iterations:  50
          AO basis - number of functions:    13
                     number of shells:     9
          Convergence on energy requested:  1.00D-09
          Convergence on density requested:  1.00D-05
          Convergence on gradient requested:  5.00D-04

              XC Information
              --------------
                        Slater Exchange Functional  1.000 local    
                      VWN V Correlation Functional  1.000 local    

             Grid Information
             ----------------
          Grid used for XC integration:  xfine     
          Radial quadrature: Mura-Knowles        
          Angular quadrature: Lebedev. 
          Tag              B.-S. Rad. Rad. Pts. Rad. Cut. Ang. Pts.
          ---              ---------- --------- --------- ---------
          O                   0.60      100           5.0      1454
          H                   0.35      100           6.0      1202
          Grid pruning is: off
          Number of quadrature shells:   300
          Spatial weights used:  Erf1

          Convergence Information
          -----------------------
          Convergence aids based upon iterative change in 
          total energy or number of iterations. 
          Levelshifting, if invoked, occurs when the 
          HOMO/LUMO gap drops below (HL_TOL):  1.00D-02
          DIIS, if invoked, will attempt to extrapolate 
          using up to (NFOCK): 10 stored Fock matrices.

                    Damping( 0%)  Levelshifting(0.5)       DIIS
                  --------------- ------------------- ---------------
          dE  on:    start            ASAP                start   
          dE off:    2 iters         50 iters            50 iters 


      Screening Tolerance Information
      -------------------------------
          Density screening/tol_rho:  1.00D-12
          AO Gaussian exp screening on grid/accAOfunc:  21
          CD Gaussian exp screening on grid/accCDfunc:  20
          XC Gaussian exp screening on grid/accXCfunc:  20
          Schwarz screening/accCoul:  1.00D-10


      Superposition of Atomic Density Guess
      -------------------------------------

 Sum of atomic energies:         -75.36108718

      Non-variational initial energy
      ------------------------------

 Total energy =     -75.509568
 1-e energy   =    -121.268975
 2-e energy   =      36.683747
 HOMO         =      -0.434098
 LUMO         =       0.158520

  WARNING: movecs_in_org=atomic not equal to movecs_in=./h2o2.movecs
   Time after variat. SCF:      0.5
   Time prior to 1st pass:      0.5

 Grid_pts file          = ./dimer.gridpts.0
 Record size in doubles =  12289        No. of grid_pts per rec  =   3070
 Max. records in memory =     41        Max. recs in file   = 253312716


           Memory utilization after 1st SCF pass: 
           Heap Space remaining (MW):        0.00                  12
          Stack Space remaining (MW):       26.21            26214172

   convergence    iter        energy       DeltaE   RMS-Dens  Diis-err    time
 ---------------- ----- ----------------- --------- --------- ---------  ------
 d= 0,ls=0.0,diis     1    -75.3709847742 -8.44D+01  6.29D-02  4.91D-01     0.5
 d= 0,ls=0.0,diis     2    -75.3548826642  1.61D-02  3.73D-02  6.00D-01     0.6
 d= 0,ls=0.0,diis     3    -75.4059483486 -5.11D-02  5.23D-03  3.70D-02     0.6
 d= 0,ls=0.0,diis     4    -75.4088090642 -2.86D-03  8.83D-04  2.21D-04     0.6
 d= 0,ls=0.0,diis     5    -75.4088361299 -2.71D-05  1.10D-05  9.59D-08     0.7
 d= 0,ls=0.0,diis     6    -75.4088361384 -8.47D-09  2.35D-06  2.85D-09     0.7
 d= 0,ls=0.0,diis     7    -75.4088361386 -2.34D-10  6.47D-07  7.57D-11     0.8


         Total DFT energy =      -75.408836138609
      One electron energy =     -122.526837055707
           Coulomb energy =       46.821356389670
    Exchange-Corr. energy =       -8.779015416776
 Nuclear repulsion energy =        9.075659944204

 Numeric. integr. density =        9.999999999959

     Total iterative time =      0.3s



                       DFT Final Molecular Orbital Analysis
                       ------------------------------------

 Vector    1  Occ=2.000000D+00  E=-1.844802D+01
              MO Center=  7.2D-01, -1.3D+00,  3.4D-02, r^2= 1.6D-02
   Bfn.  Coefficient  Atom+Function         Bfn.  Coefficient  Atom+Function  
  ----- ------------  ---------------      ----- ------------  ---------------
     1      0.981121  1 O  s                  2      0.107698  1 O  s          
     6     -0.043943  1 O  s          

 Vector    2  Occ=2.000000D+00  E=-8.836860D-01
              MO Center=  4.9D-01, -1.3D+00,  9.6D-02, r^2= 5.1D-01
   Bfn.  Coefficient  Atom+Function         Bfn.  Coefficient  Atom+Function  
  ----- ------------  ---------------      ----- ------------  ---------------
     6      0.669810  1 O  s                  1     -0.224921  1 O  s          
     2      0.208714  1 O  s                 10      0.126897  2 H  s          
     3     -0.124990  1 O  px                12      0.123763  3 H  s          
     7     -0.117332  1 O  px                11      0.033935  2 H  s          
    13      0.034031  3 H  s                  5      0.033609  1 O  pz         

 Vector    3  Occ=2.000000D+00  E=-4.542059D-01
              MO Center=  5.1D-01, -1.3D+00,  9.1D-02, r^2= 8.2D-01
   Bfn.  Coefficient  Atom+Function         Bfn.  Coefficient  Atom+Function  
  ----- ------------  ---------------      ----- ------------  ---------------
     4      0.403936  1 O  py                 8      0.330281  1 O  py         
    10     -0.231949  2 H  s                 12      0.231355  3 H  s          
    13      0.204364  3 H  s                 11     -0.201925  2 H  s          
     5     -0.089429  1 O  pz                 9     -0.072898  1 O  pz         

 Vector    4  Occ=2.000000D+00  E=-2.498103D-01
              MO Center=  8.5D-01, -1.3D+00, -4.5D-04, r^2= 6.2D-01
   Bfn.  Coefficient  Atom+Function         Bfn.  Coefficient  Atom+Function  
  ----- ------------  ---------------      ----- ------------  ---------------
     6      0.486910  1 O  s                  7      0.469286  1 O  px         
     3      0.426036  1 O  px                13     -0.126122  3 H  s          
     9     -0.124725  1 O  pz                11     -0.124172  2 H  s          
    10     -0.119235  2 H  s                 12     -0.119045  3 H  s          
     5     -0.113308  1 O  pz                 1     -0.108937  1 O  s          

 Vector    5  Occ=2.000000D+00  E=-1.877259D-01
              MO Center=  7.2D-01, -1.3D+00,  3.4D-02, r^2= 5.3D-01
   Bfn.  Coefficient  Atom+Function         Bfn.  Coefficient  Atom+Function  
  ----- ------------  ---------------      ----- ------------  ---------------
     9      0.591882  1 O  pz                 5      0.494981  1 O  pz         
     7      0.165526  1 O  px                 3      0.138427  1 O  px         
     8      0.130284  1 O  py                 4      0.108954  1 O  py         

 Vector    6  Occ=0.000000D+00  E= 7.152976D-02
              MO Center=  1.2D-01, -1.2D+00,  1.9D-01, r^2= 2.0D+00
   Bfn.  Coefficient  Atom+Function         Bfn.  Coefficient  Atom+Function  
  ----- ------------  ---------------      ----- ------------  ---------------
     6      0.994463  1 O  s                 13     -0.827620  3 H  s          
    11     -0.799592  2 H  s                  7     -0.426812  1 O  px         
     3     -0.253371  1 O  px                 1     -0.115384  1 O  s          
     9      0.110690  1 O  pz                12     -0.105167  3 H  s          
    10     -0.099749  2 H  s                  2      0.066574  1 O  s          

 Vector    7  Occ=0.000000D+00  E= 1.618542D-01
              MO Center=  1.8D-01, -1.3D+00,  1.8D-01, r^2= 2.1D+00
   Bfn.  Coefficient  Atom+Function         Bfn.  Coefficient  Atom+Function  
  ----- ------------  ---------------      ----- ------------  ---------------
    11      1.080412  2 H  s                 13     -1.043825  3 H  s          
     8      0.711531  1 O  py                 4      0.373978  1 O  py         
     9     -0.159363  1 O  pz                10      0.099836  2 H  s          
    12     -0.099849  3 H  s                  5     -0.083725  1 O  pz         

 Vector    8  Occ=0.000000D+00  E= 9.096658D-01
              MO Center=  3.1D-01, -1.1D+00,  1.2D-01, r^2= 1.6D+00
   Bfn.  Coefficient  Atom+Function         Bfn.  Coefficient  Atom+Function  
  ----- ------------  ---------------      ----- ------------  ---------------
    12      1.023219  3 H  s                 10     -0.876529  2 H  s          
    13     -0.843806  3 H  s                 11      0.745783  2 H  s          
     8     -0.286429  1 O  py                 4     -0.222103  1 O  py         
     9      0.061628  1 O  pz                 5      0.042639  1 O  pz         

 Vector    9  Occ=0.000000D+00  E= 9.446412D-01
              MO Center=  1.5D-01, -1.4D+00,  2.1D-01, r^2= 1.2D+00
   Bfn.  Coefficient  Atom+Function         Bfn.  Coefficient  Atom+Function  
  ----- ------------  ---------------      ----- ------------  ---------------
    10      1.024276  2 H  s                 12      0.867769  3 H  s          
    11     -0.619474  2 H  s                 13     -0.505025  3 H  s          
     3      0.292606  1 O  px                 7      0.161180  1 O  px         
     2     -0.088030  1 O  s                  5     -0.081681  1 O  pz         
     1      0.055941  1 O  s                  9     -0.050285  1 O  pz         

 Vector   10  Occ=0.000000D+00  E= 1.363352D+00
              MO Center=  7.2D-01, -1.3D+00,  3.4D-02, r^2= 7.3D-01
   Bfn.  Coefficient  Atom+Function         Bfn.  Coefficient  Atom+Function  
  ----- ------------  ---------------      ----- ------------  ---------------
     5      0.967724  1 O  pz                 9     -0.911686  1 O  pz         
     3      0.270635  1 O  px                 7     -0.254963  1 O  px         
     4      0.213013  1 O  py                 8     -0.200678  1 O  py         

 Vector   11  Occ=0.000000D+00  E= 1.431465D+00
              MO Center=  8.6D-01, -1.3D+00, -2.4D-03, r^2= 7.6D-01
   Bfn.  Coefficient  Atom+Function         Bfn.  Coefficient  Atom+Function  
  ----- ------------  ---------------      ----- ------------  ---------------
     7      1.126920  1 O  px                 3     -0.952774  1 O  px         
    10      0.305349  2 H  s                 12      0.304326  3 H  s          
     9     -0.302256  1 O  pz                 5      0.254749  1 O  pz         
     6     -0.219143  1 O  s                  2     -0.111033  1 O  s          
    11      0.087429  2 H  s                 13      0.073801  3 H  s          

 Vector   12  Occ=0.000000D+00  E= 1.565223D+00
              MO Center=  7.9D-01, -1.3D+00,  1.7D-02, r^2= 9.4D-01
   Bfn.  Coefficient  Atom+Function         Bfn.  Coefficient  Atom+Function  
  ----- ------------  ---------------      ----- ------------  ---------------
     8      1.449929  1 O  py                 4     -1.003886  1 O  py         
    11      0.504193  2 H  s                 13     -0.497620  3 H  s          
     9     -0.318915  1 O  pz                12     -0.223210  3 H  s          
     5      0.220334  1 O  pz                10      0.214841  2 H  s          

 Vector   13  Occ=0.000000D+00  E= 2.662833D+00
              MO Center=  5.6D-01, -1.3D+00,  7.8D-02, r^2= 7.6D-01
   Bfn.  Coefficient  Atom+Function         Bfn.  Coefficient  Atom+Function  
  ----- ------------  ---------------      ----- ------------  ---------------
     6      1.975382  1 O  s                  2     -1.637966  1 O  s          
     7     -0.436702  1 O  px                11     -0.373548  2 H  s          
    13     -0.362475  3 H  s                 10     -0.264695  2 H  s          
    12     -0.263856  3 H  s                  3      0.125098  1 O  px         
     9      0.117149  1 O  pz                 1      0.092479  1 O  s          


 center of mass
 --------------
 x =   1.25226592 y =  -2.41847735 z =   0.09491652

 moments of inertia (a.u.)
 ------------------
           4.577967612392           0.125847580171           0.509160587165
           0.125847580171           2.259669476757           0.897661217169
           0.509160587165           0.897661217169           6.157669485168

     Multipole analysis of the density
     ---------------------------------

     L   x y z        total         alpha         beta         nuclear
     -   - - -        -----         -----         ----         -------
     0   0 0 0     -0.000000     -5.000000     -5.000000     10.000000

     1   1 0 0     -0.858103     -6.234290     -6.234290     11.610476
     1   0 1 0      0.054198     12.088275     12.088275    -24.122352
     1   0 0 1      0.228048     -0.481240     -0.481240      1.190527

     2   2 0 0     -6.441613    -10.818892    -10.818892     15.196171
     2   1 1 0      2.095079     15.107111     15.107111    -28.119142
     2   1 0 1     -0.006243     -0.466642     -0.466642      0.927041
     2   0 2 0     -3.373964    -32.883473    -32.883473     62.392982
     2   0 1 1     -0.966732      1.399606      1.399606     -3.765944
     2   0 0 2     -4.887908     -2.676880     -2.676880      0.465852


 Task  times  cpu:        0.4s     wall:        0.4s


                                NWChem Input Module
                                -------------------



                                 NWChem DFT Module
                                 -----------------


                   Water dimer DFT using fragment initial guess




 Summary of "ao basis" -> "ao basis" (cartesian)
 ------------------------------------------------------------------------------
       Tag                 Description            Shells   Functions and Types
 ---------------- ------------------------------  ------  ---------------------
 o                           3-21g                   5        9   3s2p
 h                           3-21g                   2        2   2s


  Caching 1-el integrals 
  itol2e modified to match energy
  convergence criterion.

            General Information
            -------------------
          SCF calculation type: DFT
          Wavefunction type:  closed shell.
          No. of atoms     :     6
          No. of electrons :    20
           Alpha electrons :    10
            Beta electrons :    10
          Charge           :     0
          Spin multiplicity:     1
          Use of symmetry is: off; symmetry adaption is: off
          Maximum number of iterations:  50
          AO basis - number of functions:    26
                     number of shells:    18
          Convergence on energy requested:  1.00D-09
          Convergence on density requested:  1.00D-05
          Convergence on gradient requested:  5.00D-04

              XC Information
              --------------
                        Slater Exchange Functional  1.000 local    
                      VWN V Correlation Functional  1.000 local    

             Grid Information
             ----------------
          Grid used for XC integration:  xfine     
          Radial quadrature: Mura-Knowles        
          Angular quadrature: Lebedev. 
          Tag              B.-S. Rad. Rad. Pts. Rad. Cut. Ang. Pts.
          ---              ---------- --------- --------- ---------
          O                   0.60      100          10.0      1454
          H                   0.35      100          10.0      1202
          Grid pruning is: off
          Number of quadrature shells:   600
          Spatial weights used:  Erf1

          Convergence Information
          -----------------------
          Convergence aids based upon iterative change in 
          total energy or number of iterations. 
          Levelshifting, if invoked, occurs when the 
          HOMO/LUMO gap drops below (HL_TOL):  1.00D-02
          DIIS, if invoked, will attempt to extrapolate 
          using up to (NFOCK): 10 stored Fock matrices.

                    Damping( 0%)  Levelshifting(0.5)       DIIS
                  --------------- ------------------- ---------------
          dE  on:    start            ASAP                start   
          dE off:    2 iters         50 iters            50 iters 


      Screening Tolerance Information
      -------------------------------
          Density screening/tol_rho:  1.00D-12
          AO Gaussian exp screening on grid/accAOfunc:  21
          CD Gaussian exp screening on grid/accCDfunc:  20
          XC Gaussian exp screening on grid/accXCfunc:  20
          Schwarz screening/accCoul:  1.00D-10


   Fragment Molecular Orbital Initial Guess
   ----------------------------------------

 title    Water dimer DFT using fragment initial guess
 basis    ao basis
 scftype  dft                 
 nbf          13
 nsets         1
 nmo          13
 nclosed       5
 nopen         0
 nvirtual      8

 title    Water dimer DFT using fragment initial guess
 basis    ao basis
 scftype  dft                 
 nbf          13
 nsets         1
 nmo          13
 nclosed       5
 nopen         0
 nvirtual      8

  WARNING: movecs_in_org=fragment not equal to movecs_in=./dimer.movecs
   Time after variat. SCF:      0.8
   Time prior to 1st pass:      0.8

 Grid_pts file          = ./dimer.gridpts.0
 Record size in doubles =  12289        No. of grid_pts per rec  =   3070
 Max. records in memory =     80        Max. recs in file   = 253312716


           Memory utilization after 1st SCF pass: 
           Heap Space remaining (MW):        0.00                  12
          Stack Space remaining (MW):       26.21            26214084

   convergence    iter        energy       DeltaE   RMS-Dens  Diis-err    time
 ---------------- ----- ----------------- --------- --------- ---------  ------
 d= 0,ls=0.0,diis     1   -150.8258011711 -1.88D+02  2.38D-02  8.62D-02     1.0
 d= 0,ls=0.0,diis     2   -150.8432318187 -1.74D-02  4.60D-03  8.45D-03     1.1
 d= 0,ls=0.0,diis     3   -150.8429845453  2.47D-04  2.02D-03  1.41D-02     1.2
 d= 0,ls=0.0,diis     4   -150.8441307519 -1.15D-03  2.00D-04  2.28D-05     1.3
 d= 0,ls=0.0,diis     5   -150.8441342588 -3.51D-06  2.82D-05  1.95D-06     1.5
 d= 0,ls=0.0,diis     6   -150.8441344075 -1.49D-07  1.08D-05  2.55D-07     1.6
 d= 0,ls=0.0,diis     7   -150.8441344300 -2.25D-08  1.43D-06  2.36D-09     1.7
 d= 0,ls=0.0,diis     8   -150.8441344303 -2.82D-10  1.01D-07  1.32D-11     1.8


         Total DFT energy =     -150.844134430308
      One electron energy =     -283.175188301327
           Coulomb energy =      112.723302895909
    Exchange-Corr. energy =      -17.567382832285
 Nuclear repulsion energy =       37.175133807395

 Numeric. integr. density =       19.999999999583

     Total iterative time =      1.0s



                       DFT Final Molecular Orbital Analysis
                       ------------------------------------

 Vector    1  Occ=2.000000D+00  E=-1.849891D+01
              MO Center= -6.0D-01,  1.2D+00, -4.8D-02, r^2= 1.6D-02
   Bfn.  Coefficient  Atom+Function         Bfn.  Coefficient  Atom+Function  
  ----- ------------  ---------------      ----- ------------  ---------------
     1      0.981155  1 O  s                  2      0.108124  1 O  s          
     6     -0.044712  1 O  s          

 Vector    2  Occ=2.000000D+00  E=-1.839136D+01
              MO Center=  7.2D-01, -1.3D+00,  3.4D-02, r^2= 1.6D-02
   Bfn.  Coefficient  Atom+Function         Bfn.  Coefficient  Atom+Function  
  ----- ------------  ---------------      ----- ------------  ---------------
    14      0.981196  4 O  s                 15      0.108490  4 O  s          
    19     -0.046322  4 O  s          

 Vector    3  Occ=2.000000D+00  E=-9.260117D-01
              MO Center= -6.2D-01,  1.4D+00, -9.5D-02, r^2= 5.3D-01
   Bfn.  Coefficient  Atom+Function         Bfn.  Coefficient  Atom+Function  
  ----- ------------  ---------------      ----- ------------  ---------------
     6      0.675492  1 O  s                  1     -0.226496  1 O  s          
     2      0.211168  1 O  s                 10      0.123657  2 H  s          
    12      0.123984  3 H  s                  4      0.116180  1 O  py         
     8      0.111560  1 O  py                13      0.029878  3 H  s          
    11      0.027072  2 H  s                  5     -0.025938  1 O  pz         

 Vector    4  Occ=2.000000D+00  E=-8.303074D-01
              MO Center=  4.9D-01, -1.3D+00,  9.7D-02, r^2= 5.5D-01
   Bfn.  Coefficient  Atom+Function         Bfn.  Coefficient  Atom+Function  
  ----- ------------  ---------------      ----- ------------  ---------------
    19      0.672597  4 O  s                 14     -0.224873  4 O  s          
    15      0.206756  4 O  s                 23      0.129876  5 H  s          
    16     -0.121427  4 O  px                25      0.118040  6 H  s          
    20     -0.113806  4 O  px                24      0.041085  5 H  s          
     6     -0.033672  1 O  s                 18      0.033715  4 O  pz         

 Vector    5  Occ=2.000000D+00  E=-4.986364D-01
              MO Center= -6.2D-01,  1.4D+00, -9.0D-02, r^2= 8.5D-01
   Bfn.  Coefficient  Atom+Function         Bfn.  Coefficient  Atom+Function  
  ----- ------------  ---------------      ----- ------------  ---------------
     3      0.415323  1 O  px                 7      0.345082  1 O  px         
    12     -0.230831  3 H  s                 10      0.225059  2 H  s          
    13     -0.187765  3 H  s                 11      0.182322  2 H  s          
     4      0.048750  1 O  py                 8      0.037940  1 O  py         
    17      0.026171  4 O  py         

 Vector    6  Occ=2.000000D+00  E=-4.097449D-01
              MO Center=  3.9D-01, -1.0D+00,  7.6D-02, r^2= 1.4D+00
   Bfn.  Coefficient  Atom+Function         Bfn.  Coefficient  Atom+Function  
  ----- ------------  ---------------      ----- ------------  ---------------
    17      0.374050  4 O  py                21      0.303364  4 O  py         
    23     -0.217449  5 H  s                 25      0.217562  6 H  s          
    26      0.218531  6 H  s                 24     -0.200658  5 H  s          
     8     -0.139496  1 O  py                 4     -0.132996  1 O  py         
    18     -0.082885  4 O  pz                 6      0.069567  1 O  s          

 Vector    7  Occ=2.000000D+00  E=-3.071011D-01
              MO Center= -4.0D-01,  6.9D-01, -1.1D-02, r^2= 1.5D+00
   Bfn.  Coefficient  Atom+Function         Bfn.  Coefficient  Atom+Function  
  ----- ------------  ---------------      ----- ------------  ---------------
     8      0.429717  1 O  py                 6     -0.412291  1 O  s          
     4      0.406552  1 O  py                19      0.212111  4 O  s          
    21      0.157631  4 O  py                17      0.151378  4 O  py         
    11      0.116137  2 H  s                 12      0.111174  3 H  s          
    10      0.105302  2 H  s                 13      0.105461  3 H  s          

 Vector    8  Occ=2.000000D+00  E=-2.341406D-01
              MO Center= -5.9D-01,  1.2D+00, -3.8D-02, r^2= 5.6D-01
   Bfn.  Coefficient  Atom+Function         Bfn.  Coefficient  Atom+Function  
  ----- ------------  ---------------      ----- ------------  ---------------
     9      0.614496  1 O  pz                 5      0.519356  1 O  pz         
     8      0.106659  1 O  py                 4      0.089881  1 O  py         
    19      0.036696  4 O  s          

 Vector    9  Occ=2.000000D+00  E=-1.978889D-01
              MO Center=  8.2D-01, -1.2D+00, -3.0D-03, r^2= 8.5D-01
   Bfn.  Coefficient  Atom+Function         Bfn.  Coefficient  Atom+Function  
  ----- ------------  ---------------      ----- ------------  ---------------
    20      0.482915  4 O  px                19      0.432436  4 O  s          
    16      0.426661  4 O  px                24     -0.119455  5 H  s          
    25     -0.119896  6 H  s                  6      0.117653  1 O  s          
    22     -0.117981  4 O  pz                18     -0.105791  4 O  pz         
    23     -0.104888  5 H  s                 14     -0.099676  4 O  s          

 Vector   10  Occ=2.000000D+00  E=-1.390796D-01
              MO Center=  7.2D-01, -1.3D+00,  3.3D-02, r^2= 5.4D-01
   Bfn.  Coefficient  Atom+Function         Bfn.  Coefficient  Atom+Function  
  ----- ------------  ---------------      ----- ------------  ---------------
    22      0.594990  4 O  pz                18      0.491464  4 O  pz         
    20      0.165654  4 O  px                16      0.136783  4 O  px         
    21      0.131589  4 O  py                17      0.107989  4 O  py         

 Vector   11  Occ=0.000000D+00  E= 4.086685D-02
              MO Center= -6.9D-01,  1.6D+00, -1.6D-01, r^2= 2.5D+00
   Bfn.  Coefficient  Atom+Function         Bfn.  Coefficient  Atom+Function  
  ----- ------------  ---------------      ----- ------------  ---------------
     6      1.010164  1 O  s                 13     -0.824796  3 H  s          
    11     -0.737456  2 H  s                  8      0.355490  1 O  py         
    19      0.208113  4 O  s                  4      0.206241  1 O  py         
    26     -0.187715  6 H  s                 24     -0.134829  5 H  s          
     1     -0.122567  1 O  s                 12     -0.117688  3 H  s          

 Vector   12  Occ=0.000000D+00  E= 1.347568D-01
              MO Center= -5.6D-01,  1.7D+00, -1.6D-01, r^2= 2.2D+00
   Bfn.  Coefficient  Atom+Function         Bfn.  Coefficient  Atom+Function  
  ----- ------------  ---------------      ----- ------------  ---------------
    11      1.106829  2 H  s                 13     -0.999388  3 H  s          
     7     -0.708153  1 O  px                 3     -0.371912  1 O  px         
     8     -0.138450  1 O  py                10      0.119327  2 H  s          
    12     -0.107063  3 H  s                 19      0.083119  4 O  s          
     4     -0.079366  1 O  py                26     -0.074575  6 H  s          

 Vector   13  Occ=0.000000D+00  E= 1.364344D-01
              MO Center=  5.8D-02, -1.7D+00,  3.1D-01, r^2= 2.3D+00
   Bfn.  Coefficient  Atom+Function         Bfn.  Coefficient  Atom+Function  
  ----- ------------  ---------------      ----- ------------  ---------------
    24      1.169218  5 H  s                 19     -0.903484  4 O  s          
    20      0.375536  4 O  px                26      0.317088  6 H  s          
    21      0.276379  4 O  py                13     -0.252360  3 H  s          
    16      0.215905  4 O  px                22     -0.165464  4 O  pz         
    17      0.144562  4 O  py                 8      0.138086  1 O  py         

 Vector   14  Occ=0.000000D+00  E= 2.773464D-01
              MO Center=  1.2D-01, -5.6D-01,  4.0D-02, r^2= 2.1D+00
   Bfn.  Coefficient  Atom+Function         Bfn.  Coefficient  Atom+Function  
  ----- ------------  ---------------      ----- ------------  ---------------
    26      1.381407  6 H  s                 21     -0.667800  4 O  py         
    24     -0.665097  5 H  s                 19     -0.420092  4 O  s          
    17     -0.353067  4 O  py                 8      0.283269  1 O  py         
    13     -0.233680  3 H  s                  4      0.221251  1 O  py         
    25      0.164679  6 H  s                 20      0.150864  4 O  px         

 Vector   15  Occ=0.000000D+00  E= 8.852882D-01
              MO Center= -7.3D-01,  1.4D+00, -1.1D-01, r^2= 2.2D+00
   Bfn.  Coefficient  Atom+Function         Bfn.  Coefficient  Atom+Function  
  ----- ------------  ---------------      ----- ------------  ---------------
    12      1.002113  3 H  s                 10     -0.838737  2 H  s          
    13     -0.824926  3 H  s                 11      0.713197  2 H  s          
     7      0.274975  1 O  px                23      0.268159  5 H  s          
     3      0.233692  1 O  px                25     -0.180787  6 H  s          
    24     -0.166213  5 H  s                 21      0.108027  4 O  py         

 Vector   16  Occ=0.000000D+00  E= 9.039871D-01
              MO Center= -5.3D-01,  1.5D+00, -1.5D-01, r^2= 1.9D+00
   Bfn.  Coefficient  Atom+Function         Bfn.  Coefficient  Atom+Function  
  ----- ------------  ---------------      ----- ------------  ---------------
    10      0.928618  2 H  s                 12      0.886963  3 H  s          
    11     -0.537100  2 H  s                 13     -0.508035  3 H  s          
    25      0.378704  6 H  s                 26     -0.247253  6 H  s          
     4     -0.240702  1 O  py                 8     -0.217301  1 O  py         
    23     -0.190545  5 H  s                 24      0.166426  5 H  s          

 Vector   17  Occ=0.000000D+00  E= 9.758686D-01
              MO Center=  2.2D-01, -1.7D+00,  2.9D-01, r^2= 1.8D+00
   Bfn.  Coefficient  Atom+Function         Bfn.  Coefficient  Atom+Function  
  ----- ------------  ---------------      ----- ------------  ---------------
    23      1.301429  5 H  s                 24     -0.930128  5 H  s          
    10      0.343292  2 H  s                 11     -0.287851  2 H  s          
    26      0.233180  6 H  s                 16      0.213002  4 O  px         
    21      0.196691  4 O  py                17      0.125975  4 O  py         
    20      0.113993  4 O  px                13      0.092965  3 H  s          

 Vector   18  Occ=0.000000D+00  E= 1.023010D+00
              MO Center=  1.9D-01, -3.4D-01, -8.2D-03, r^2= 1.5D+00
   Bfn.  Coefficient  Atom+Function         Bfn.  Coefficient  Atom+Function  
  ----- ------------  ---------------      ----- ------------  ---------------
    25      1.306266  6 H  s                 26     -1.110576  6 H  s          
    10     -0.415782  2 H  s                 11      0.371775  2 H  s          
    16      0.180587  4 O  px                21     -0.172181  4 O  py         
    24      0.122482  5 H  s                 20      0.118970  4 O  px         
     7      0.112439  1 O  px                12     -0.111387  3 H  s          

 Vector   19  Occ=0.000000D+00  E= 1.318548D+00
              MO Center= -5.7D-01,  1.1D+00, -3.8D-02, r^2= 8.7D-01
   Bfn.  Coefficient  Atom+Function         Bfn.  Coefficient  Atom+Function  
  ----- ------------  ---------------      ----- ------------  ---------------
     5      1.008808  1 O  pz                 9     -0.957033  1 O  pz         
    18      0.137720  4 O  pz                22     -0.123295  4 O  pz         
     4      0.116510  1 O  py                 8     -0.095145  1 O  py         
    10     -0.033410  2 H  s                 17      0.033077  4 O  py         
    12     -0.027846  3 H  s                 21     -0.025946  4 O  py         

 Vector   20  Occ=0.000000D+00  E= 1.411861D+00
              MO Center=  7.0D-01, -1.2D+00,  2.9D-02, r^2= 8.8D-01
   Bfn.  Coefficient  Atom+Function         Bfn.  Coefficient  Atom+Function  
  ----- ------------  ---------------      ----- ------------  ---------------
    18      0.953161  4 O  pz                22     -0.893854  4 O  pz         
    16      0.301433  4 O  px                20     -0.284565  4 O  px         
    17      0.195138  4 O  py                21     -0.185745  4 O  py         
     5     -0.130036  1 O  pz                 9      0.127402  1 O  pz         
     8      0.058270  1 O  py                 7     -0.052981  1 O  px         

 Vector   21  Occ=0.000000D+00  E= 1.455924D+00
              MO Center=  5.8D-02, -1.7D-01,  1.1D-02, r^2= 2.7D+00
   Bfn.  Coefficient  Atom+Function         Bfn.  Coefficient  Atom+Function  
  ----- ------------  ---------------      ----- ------------  ---------------
     8      0.858546  1 O  py                 4     -0.689835  1 O  py         
    20     -0.677084  4 O  px                16      0.613830  4 O  px         
    21      0.362580  4 O  py                17     -0.341492  4 O  py         
    25     -0.251381  6 H  s                 11     -0.216141  2 H  s          
    10     -0.204294  2 H  s                 12     -0.168822  3 H  s          

 Vector   22  Occ=0.000000D+00  E= 1.482224D+00
              MO Center=  2.0D-01, -1.7D-01, -4.3D-02, r^2= 2.7D+00
   Bfn.  Coefficient  Atom+Function         Bfn.  Coefficient  Atom+Function  
  ----- ------------  ---------------      ----- ------------  ---------------
    20      0.793617  4 O  px                 7      0.699856  1 O  px         
    16     -0.664197  4 O  px                 8      0.605485  1 O  py         
     3     -0.494021  1 O  px                 4     -0.471511  1 O  py         
    11     -0.382537  2 H  s                 22     -0.294926  4 O  pz         
    23      0.266979  5 H  s                 18      0.248209  4 O  pz         

 Vector   23  Occ=0.000000D+00  E= 1.553275D+00
              MO Center= -9.6D-02,  4.8D-01, -3.8D-02, r^2= 2.2D+00
   Bfn.  Coefficient  Atom+Function         Bfn.  Coefficient  Atom+Function  
  ----- ------------  ---------------      ----- ------------  ---------------
     7      1.249350  1 O  px                 3     -0.842047  1 O  px         
    21     -0.544064  4 O  py                17      0.440636  4 O  py         
    13      0.423254  3 H  s                 20     -0.352265  4 O  px         
    11     -0.312329  2 H  s                 12      0.286650  3 H  s          
    16      0.256217  4 O  px                23     -0.226613  5 H  s          

 Vector   24  Occ=0.000000D+00  E= 1.713601D+00
              MO Center=  3.6D-01, -6.9D-01,  4.2D-02, r^2= 3.0D+00
   Bfn.  Coefficient  Atom+Function         Bfn.  Coefficient  Atom+Function  
  ----- ------------  ---------------      ----- ------------  ---------------
    21      1.320179  4 O  py                26     -0.937471  6 H  s          
    17     -0.822117  4 O  py                 8     -0.786308  1 O  py         
    24      0.614025  5 H  s                  4      0.498792  1 O  py         
     7      0.487074  1 O  px                 3     -0.276103  1 O  px         
    22     -0.262837  4 O  pz                12      0.249545  3 H  s          

 Vector   25  Occ=0.000000D+00  E= 2.607909D+00
              MO Center= -3.6D-01,  7.5D-01, -4.5D-02, r^2= 2.3D+00
   Bfn.  Coefficient  Atom+Function         Bfn.  Coefficient  Atom+Function  
  ----- ------------  ---------------      ----- ------------  ---------------
     6      1.751418  1 O  s                  2     -1.444577  1 O  s          
    19     -0.859617  4 O  s                 15      0.749039  4 O  s          
     8      0.414647  1 O  py                13     -0.337771  3 H  s          
    11     -0.332762  2 H  s                 12     -0.237801  3 H  s          
    10     -0.231524  2 H  s                 24      0.228946  5 H  s          

 Vector   26  Occ=0.000000D+00  E= 2.906878D+00
              MO Center=  2.9D-01, -6.5D-01,  3.0D-02, r^2= 1.8D+00
   Bfn.  Coefficient  Atom+Function         Bfn.  Coefficient  Atom+Function  
  ----- ------------  ---------------      ----- ------------  ---------------
    19      1.933154  4 O  s                 15     -1.462388  4 O  s          
     6      0.960527  1 O  s                 26     -0.838253  6 H  s          
     2     -0.792885  1 O  s                 20     -0.467736  4 O  px         
    21      0.288152  4 O  py                23     -0.256248  5 H  s          
     8     -0.202701  1 O  py                 7      0.181956  1 O  px         


 center of mass
 --------------
 x =   0.05590292 y =  -0.05137139 z =  -0.00995001

 moments of inertia (a.u.)
 ------------------
         208.837278449101         101.795535133417          -4.020403614777
         101.795535133417          58.723230536877          10.238870963024
          -4.020403614777          10.238870963024         265.921219801919

     Multipole analysis of the density
     ---------------------------------

     L   x y z        total         alpha         beta         nuclear
     -   - - -        -----         -----         ----         -------
     0   0 0 0     -0.000000    -10.000000    -10.000000     20.000000

     1   1 0 0     -1.128630     -0.603999     -0.603999      0.079368
     1   0 1 0      1.282891      0.674516      0.674516     -0.066140
     1   0 0 1      0.015202      0.081300      0.081300     -0.147399

     2   2 0 0     -9.095457    -20.988848    -20.988848     32.882239
     2   1 1 0      1.000568     28.248416     28.248416    -55.496264
     2   1 0 1      0.229409     -1.122644     -1.122644      2.474698
     2   0 2 0     -3.673206    -62.842104    -62.842104    122.011001
     2   0 1 1     -1.650831      2.845753      2.845753     -7.342337
     2   0 0 2     -9.904965     -5.312267     -5.312267      0.719569


 Task  times  cpu:        1.0s     wall:        1.0s


                                NWChem Input Module
                                -------------------



                                 NWChem DFT Module
                                 -----------------


                   Water dimer DFT using fragment initial guess




 Summary of "ao basis" -> "ao basis" (cartesian)
 ------------------------------------------------------------------------------
       Tag                 Description            Shells   Functions and Types
 ---------------- ------------------------------  ------  ---------------------
 o                           3-21g                   5        9   3s2p
 h                           3-21g                   2        2   2s


  Caching 1-el integrals 
  itol2e modified to match energy
  convergence criterion.

            General Information
            -------------------
          SCF calculation type: DFT
          Wavefunction type:  spin polarized.
          No. of atoms     :     3
          No. of electrons :    10
           Alpha electrons :     5
            Beta electrons :     5
          Charge           :     0
          Spin multiplicity:     1
          Use of symmetry is: off; symmetry adaption is: off
          Maximum number of iterations:  50
          AO basis - number of functions:    13
                     number of shells:     9
          Convergence on energy requested:  1.00D-09
          Convergence on density requested:  1.00D-05
          Convergence on gradient requested:  5.00D-04

              XC Information
              --------------
                        Slater Exchange Functional  1.000 local    
                      VWN V Correlation Functional  1.000 local    

              XC Information (FDE)
              --------------------
                        Slater Exchange Functional  1.000 local    
                      VWN V Correlation Functional  1.000 local    

              KE Information (FDE)
              --------------------
                   Thomas-Fermi Kinetic Functional  1.000 local    

             Grid Information
             ----------------
          Grid used for XC integration:  xfine     
          Radial quadrature: Mura-Knowles        
          Angular quadrature: Lebedev. 
          Tag              B.-S. Rad. Rad. Pts. Rad. Cut. Ang. Pts.
          ---              ---------- --------- --------- ---------
          O                   0.60      100           5.0      1454
          H                   0.35      100           6.0      1202
          Grid pruning is: off
          Number of quadrature shells:   300
          Spatial weights used:  Erf1

          Convergence Information
          -----------------------
          Convergence aids based upon iterative change in 
          total energy or number of iterations. 
          Levelshifting, if invoked, occurs when the 
          HOMO/LUMO gap drops below (HL_TOL):  1.00D-02
          DIIS, if invoked, will attempt to extrapolate 
          using up to (NFOCK): 10 stored Fock matrices.

                    Damping( 0%)  Levelshifting(0.5)       DIIS
                  --------------- ------------------- ---------------
          dE  on:    start            ASAP                start   
          dE off:    2 iters         50 iters            50 iters 


      Screening Tolerance Information
      -------------------------------
          Density screening/tol_rho:  1.00D-12
          AO Gaussian exp screening on grid/accAOfunc:  21
          CD Gaussian exp screening on grid/accCDfunc:  20
          XC Gaussian exp screening on grid/accXCfunc:  20
          Schwarz screening/accCoul:  1.00D-10

  movecs_read: failing reading from ./h2o1.movecs
   Duplicating RHF/ROHF vectors for UHF

 Loading old vectors from job with title :

Water dimer DFT using fragment initial guess

  WARNING: movecs_in_org=./h2o1.movecs not equal to movecs_in=./h2o1.fde.movecs
   Time after variat. SCF:      1.8
 
 == Preparing Frozen Density Embedding Matrix ==
 (*) Nuclear contributions complete
  movecs_read: failing reading from ./h2o2.movecs
   Duplicating RHF/ROHF vectors for UHF

 Loading old vectors from job with title :

Water dimer DFT using fragment initial guess


 Grid_pts file          = ./dimer.gridpts.0
 Record size in doubles =  12289        No. of grid_pts per rec  =   3070
 Max. records in memory =     41        Max. recs in file   = 253312716

 (*) Electronic contributions complete
 == Created Frozen Density Embedding Matrix ==
 
   Time prior to 1st pass:      3.2

           Memory utilization after 1st SCF pass: 
           Heap Space remaining (MW):        0.00                  44
          Stack Space remaining (MW):       26.21            26214140

   convergence    iter        energy       DeltaE   RMS-Dens  Diis-err    time
 ---------------- ----- ----------------- --------- --------- ---------  ------
 d= 0,ls=0.0,diis     1    -75.6820581203 -8.48D+01  4.74D-03  7.54D-04     3.5
                                                     4.74D-03  7.54D-04
 d= 0,ls=0.0,diis     2    -75.6819436949  1.14D-04  1.18D-03  3.43D-04     3.8
                                                     1.18D-03  3.43D-04
 d= 0,ls=0.0,diis     3    -75.6820717082 -1.28D-04  3.70D-04  1.80D-04     4.0
                                                     3.70D-04  1.80D-04
 d= 0,ls=0.0,diis     4    -75.6821613820 -8.97D-05  1.66D-05  5.63D-08     4.3
                                                     1.66D-05  5.63D-08
 d= 0,ls=0.0,diis     5    -75.6821589377  2.44D-06  3.55D-06  2.10D-09     4.5
                                                     3.55D-06  2.10D-09
 d= 0,ls=0.0,diis     6    -75.6821590982 -1.60D-07  2.68D-07  1.99D-11     4.8
                                                     2.68D-07  1.99D-11
 d= 0,ls=0.0,diis     7    -75.6821590942  3.96D-09  4.50D-09  1.00D-14     5.0
                                                     4.50D-09  1.00D-14
  Singularity in Pulay matrix. Error and Fock matrices removed. 
 d= 0,ls=0.0,diis     8    -75.6821590943 -1.30D-10  1.40D-10  6.49D-18     5.3
                                                     1.40D-10  6.49D-18


         Total DFT energy =      -75.682159094334
      One electron energy =     -122.895943133303
           Coulomb energy =       46.903026528971
    Exchange-Corr. energy =       -8.795877587623
 Nuclear repulsion energy =        9.106635097621

 Numeric. integr. density =        9.999999999956

     Total iterative time =      2.0s



                    DFT Final Alpha Molecular Orbital Analysis
                    ------------------------------------------

 Vector    1  Occ=1.000000D+00  E=-1.847089D+01
              MO Center= -6.0D-01,  1.2D+00, -4.8D-02, r^2= 1.6D-02
   Bfn.  Coefficient  Atom+Function         Bfn.  Coefficient  Atom+Function  
  ----- ------------  ---------------      ----- ------------  ---------------
     1      0.981126  1 O  s                  2      0.107695  1 O  s          
     6     -0.044016  1 O  s          

 Vector    2  Occ=1.000000D+00  E=-9.031328D-01
              MO Center= -6.3D-01,  1.4D+00, -9.6D-02, r^2= 5.1D-01
   Bfn.  Coefficient  Atom+Function         Bfn.  Coefficient  Atom+Function  
  ----- ------------  ---------------      ----- ------------  ---------------
     6      0.674519  1 O  s                  1     -0.226163  1 O  s          
     2      0.209401  1 O  s                 12      0.125908  3 H  s          
    10      0.124763  2 H  s                  4      0.119968  1 O  py         
     8      0.107961  1 O  py                13      0.033807  3 H  s          
    11      0.032361  2 H  s                  5     -0.026236  1 O  pz         

 Vector    3  Occ=1.000000D+00  E=-4.773017D-01
              MO Center= -6.3D-01,  1.4D+00, -9.2D-02, r^2= 8.1D-01
   Bfn.  Coefficient  Atom+Function         Bfn.  Coefficient  Atom+Function  
  ----- ------------  ---------------      ----- ------------  ---------------
     3      0.412080  1 O  px                 7      0.342423  1 O  px         
    12     -0.231196  3 H  s                 10      0.228418  2 H  s          
    13     -0.194922  3 H  s                 11      0.192195  2 H  s          
     4      0.053001  1 O  py                 8      0.040355  1 O  py         

 Vector    4  Occ=1.000000D+00  E=-2.839783D-01
              MO Center= -5.7D-01,  1.0D+00, -2.6D-02, r^2= 6.1D-01
   Bfn.  Coefficient  Atom+Function         Bfn.  Coefficient  Atom+Function  
  ----- ------------  ---------------      ----- ------------  ---------------
     8      0.497796  1 O  py                 6     -0.451372  1 O  s          
     4      0.433278  1 O  py                10      0.119690  2 H  s          
    12      0.110020  3 H  s                 11      0.108483  2 H  s          
     1      0.101815  1 O  s                 13      0.101991  3 H  s          
     9     -0.085653  1 O  pz                 2     -0.080637  1 O  s          

 Vector    5  Occ=1.000000D+00  E=-2.104322D-01
              MO Center= -6.0D-01,  1.2D+00, -4.1D-02, r^2= 5.3D-01
   Bfn.  Coefficient  Atom+Function         Bfn.  Coefficient  Atom+Function  
  ----- ------------  ---------------      ----- ------------  ---------------
     9      0.617522  1 O  pz                 5      0.516428  1 O  pz         
     8      0.116001  1 O  py                 4      0.094387  1 O  py         

 Vector    6  Occ=0.000000D+00  E= 5.804878D-02
              MO Center= -7.3D-01,  1.8D+00, -1.8D-01, r^2= 2.0D+00
   Bfn.  Coefficient  Atom+Function         Bfn.  Coefficient  Atom+Function  
  ----- ------------  ---------------      ----- ------------  ---------------
     6      1.013370  1 O  s                 13     -0.850717  3 H  s          
    11     -0.784983  2 H  s                  8      0.416329  1 O  py         
     4      0.234759  1 O  py                 1     -0.119488  1 O  s          
    12     -0.113888  3 H  s                 10     -0.105378  2 H  s          
     9     -0.088596  1 O  pz                 7     -0.084049  1 O  px         

 Vector    7  Occ=0.000000D+00  E= 1.501161D-01
              MO Center= -6.2D-01,  1.7D+00, -1.6D-01, r^2= 2.1D+00
   Bfn.  Coefficient  Atom+Function         Bfn.  Coefficient  Atom+Function  
  ----- ------------  ---------------      ----- ------------  ---------------
    11      1.088170  2 H  s                 13     -1.036580  3 H  s          
     7     -0.721789  1 O  px                 3     -0.376562  1 O  px         
     8     -0.112112  1 O  py                10      0.108180  2 H  s          
    12     -0.101649  3 H  s                  4     -0.061031  1 O  py         
     6     -0.031482  1 O  s          

 Vector    8  Occ=0.000000D+00  E= 8.994810D-01
              MO Center= -7.7D-01,  1.5D+00, -1.3D-01, r^2= 1.6D+00
   Bfn.  Coefficient  Atom+Function         Bfn.  Coefficient  Atom+Function  
  ----- ------------  ---------------      ----- ------------  ---------------
    12      1.029264  3 H  s                 10     -0.880802  2 H  s          
    13     -0.830903  3 H  s                 11      0.742999  2 H  s          
     7      0.310329  1 O  px                 3      0.221729  1 O  px         

 Vector    9  Occ=0.000000D+00  E= 9.264664D-01
              MO Center= -5.6D-01,  1.7D+00, -1.7D-01, r^2= 1.2D+00
   Bfn.  Coefficient  Atom+Function         Bfn.  Coefficient  Atom+Function  
  ----- ------------  ---------------      ----- ------------  ---------------
    10      1.021202  2 H  s                 12      0.872875  3 H  s          
    11     -0.621669  2 H  s                 13     -0.503297  3 H  s          
     4     -0.290347  1 O  py                 8     -0.167835  1 O  py         
     2     -0.083620  1 O  s                  5      0.060003  1 O  pz         
     1      0.055857  1 O  s                  9      0.035440  1 O  pz         

 Vector   10  Occ=0.000000D+00  E= 1.340357D+00
              MO Center= -5.9D-01,  1.2D+00, -5.3D-02, r^2= 7.3D-01
   Bfn.  Coefficient  Atom+Function         Bfn.  Coefficient  Atom+Function  
  ----- ------------  ---------------      ----- ------------  ---------------
     5      0.988049  1 O  pz                 9     -0.927478  1 O  pz         
     4      0.278783  1 O  py                 8     -0.276118  1 O  py         
     7      0.037621  1 O  px                 3     -0.035617  1 O  px         

 Vector   11  Occ=0.000000D+00  E= 1.382210D+00
              MO Center= -5.7D-01,  1.0D+00, -1.5D-02, r^2= 7.5D-01
   Bfn.  Coefficient  Atom+Function         Bfn.  Coefficient  Atom+Function  
  ----- ------------  ---------------      ----- ------------  ---------------
     8      1.093095  1 O  py                 4     -0.939246  1 O  py         
     9     -0.304809  1 O  pz                12     -0.296034  3 H  s          
    10     -0.292305  2 H  s                  5      0.275322  1 O  pz         
     6      0.206706  1 O  s                  7     -0.203145  1 O  px         
     3      0.170981  1 O  px                 2      0.117246  1 O  s          

 Vector   12  Occ=0.000000D+00  E= 1.541768D+00
              MO Center= -6.0D-01,  1.1D+00, -3.5D-02, r^2= 9.4D-01
   Bfn.  Coefficient  Atom+Function         Bfn.  Coefficient  Atom+Function  
  ----- ------------  ---------------      ----- ------------  ---------------
     7      1.473958  1 O  px                 3     -1.014304  1 O  px         
    11     -0.516280  2 H  s                 13      0.505084  3 H  s          
     8      0.246152  1 O  py                10     -0.228245  2 H  s          
    12      0.210047  3 H  s                  4     -0.174627  1 O  py         

 Vector   13  Occ=0.000000D+00  E= 2.641670D+00
              MO Center= -6.2D-01,  1.3D+00, -8.3D-02, r^2= 7.6D-01
   Bfn.  Coefficient  Atom+Function         Bfn.  Coefficient  Atom+Function  
  ----- ------------  ---------------      ----- ------------  ---------------
     6      1.982463  1 O  s                  2     -1.638395  1 O  s          
     8      0.438279  1 O  py                11     -0.375907  2 H  s          
    13     -0.373455  3 H  s                 10     -0.259226  2 H  s          
    12     -0.260378  3 H  s                  4     -0.128475  1 O  py         
     1      0.092263  1 O  s                  9     -0.091237  1 O  pz         


                     DFT Final Beta Molecular Orbital Analysis
                     -----------------------------------------

 Vector    1  Occ=1.000000D+00  E=-1.847089D+01
              MO Center= -6.0D-01,  1.2D+00, -4.8D-02, r^2= 1.6D-02
   Bfn.  Coefficient  Atom+Function         Bfn.  Coefficient  Atom+Function  
  ----- ------------  ---------------      ----- ------------  ---------------
     1      0.981126  1 O  s                  2      0.107695  1 O  s          
     6     -0.044016  1 O  s          

 Vector    2  Occ=1.000000D+00  E=-9.031328D-01
              MO Center= -6.3D-01,  1.4D+00, -9.6D-02, r^2= 5.1D-01
   Bfn.  Coefficient  Atom+Function         Bfn.  Coefficient  Atom+Function  
  ----- ------------  ---------------      ----- ------------  ---------------
     6      0.674519  1 O  s                  1     -0.226163  1 O  s          
[...]
     4     -0.434200  1 O  py                13     -0.142941  3 H  s          
    12     -0.128435  3 H  s                 11     -0.126956  2 H  s          
     9      0.121324  1 O  pz                10     -0.114238  2 H  s          
     1     -0.110147  1 O  s                  5      0.110204  1 O  pz         

 Vector    5  Occ=1.000000D+00  E=-2.004912D-01
              MO Center= -5.9D-01,  1.2D+00, -5.7D-02, r^2= 5.3D-01
   Bfn.  Coefficient  Atom+Function         Bfn.  Coefficient  Atom+Function  
  ----- ------------  ---------------      ----- ------------  ---------------
     9      0.610446  1 O  pz                 5      0.511412  1 O  pz         
     8      0.141609  1 O  py                 4      0.124753  1 O  py         

 Vector    6  Occ=0.000000D+00  E= 6.807492D-02
              MO Center= -7.2D-01,  1.8D+00, -1.7D-01, r^2= 2.0D+00
   Bfn.  Coefficient  Atom+Function         Bfn.  Coefficient  Atom+Function  
  ----- ------------  ---------------      ----- ------------  ---------------
     6      0.995966  1 O  s                 13     -0.838885  3 H  s          
    11     -0.787965  2 H  s                  8      0.421367  1 O  py         
     4      0.263049  1 O  py                 1     -0.114145  1 O  s          
    10     -0.109236  2 H  s                 12     -0.096573  3 H  s          
     9     -0.088107  1 O  pz                 7     -0.069704  1 O  px         

 Vector    7  Occ=0.000000D+00  E= 1.564411D-01
              MO Center= -6.3D-01,  1.7D+00, -1.6D-01, r^2= 2.1D+00
   Bfn.  Coefficient  Atom+Function         Bfn.  Coefficient  Atom+Function  
  ----- ------------  ---------------      ----- ------------  ---------------
    11      1.082004  2 H  s                 13     -1.045991  3 H  s          
     7     -0.720988  1 O  px                 3     -0.379439  1 O  px         
     8     -0.109258  1 O  py                10      0.106046  2 H  s          
    12     -0.095405  3 H  s                  4     -0.054014  1 O  py         

 Vector    8  Occ=0.000000D+00  E= 9.117011D-01
              MO Center= -8.5D-01,  1.5D+00, -1.3D-01, r^2= 1.6D+00
   Bfn.  Coefficient  Atom+Function         Bfn.  Coefficient  Atom+Function  
  ----- ------------  ---------------      ----- ------------  ---------------
    12      1.070683  3 H  s                 13     -0.859116  3 H  s          
    10     -0.819584  2 H  s                 11      0.713473  2 H  s          
     7      0.288410  1 O  px                 3      0.243860  1 O  px         
     8      0.028731  1 O  py         

 Vector    9  Occ=0.000000D+00  E= 9.326982D-01
              MO Center= -4.7D-01,  1.8D+00, -1.7D-01, r^2= 1.2D+00
   Bfn.  Coefficient  Atom+Function         Bfn.  Coefficient  Atom+Function  
  ----- ------------  ---------------      ----- ------------  ---------------
    10      1.072016  2 H  s                 12      0.815162  3 H  s          
    11     -0.670252  2 H  s                 13     -0.448134  3 H  s          
     4     -0.281139  1 O  py                 8     -0.177140  1 O  py         
     2     -0.085049  1 O  s                  5      0.060832  1 O  pz         
     1      0.056120  1 O  s                  9      0.035332  1 O  pz         

 Vector   10  Occ=0.000000D+00  E= 1.356983D+00
              MO Center= -5.9D-01,  1.2D+00, -4.4D-02, r^2= 7.3D-01
   Bfn.  Coefficient  Atom+Function         Bfn.  Coefficient  Atom+Function  
  ----- ------------  ---------------      ----- ------------  ---------------
     5      1.013608  1 O  pz                 9     -0.958039  1 O  pz         
     4      0.162430  1 O  py                 8     -0.144067  1 O  py         

 Vector   11  Occ=0.000000D+00  E= 1.450287D+00
              MO Center= -6.1D-01,  1.0D+00, -2.4D-02, r^2= 7.8D-01
   Bfn.  Coefficient  Atom+Function         Bfn.  Coefficient  Atom+Function  
  ----- ------------  ---------------      ----- ------------  ---------------
     8      1.161331  1 O  py                 4     -0.974238  1 O  py         
    10     -0.304390  2 H  s                 12     -0.274918  3 H  s          
     6      0.233414  1 O  s                  9     -0.192857  1 O  pz         
    11     -0.161164  2 H  s                  5      0.153576  1 O  pz         
     2      0.091613  1 O  s                  1     -0.046790  1 O  s          

 Vector   12  Occ=0.000000D+00  E= 1.571439D+00
              MO Center= -5.5D-01,  1.1D+00, -3.3D-02, r^2= 9.4D-01
   Bfn.  Coefficient  Atom+Function         Bfn.  Coefficient  Atom+Function  
  ----- ------------  ---------------      ----- ------------  ---------------
     7      1.497023  1 O  px                 3     -1.022566  1 O  px         
    13      0.510883  3 H  s                 11     -0.478367  2 H  s          
    12      0.266419  3 H  s                 10     -0.200832  2 H  s          
     8      0.061472  1 O  py                 6     -0.036048  1 O  s          

 Vector   13  Occ=0.000000D+00  E= 2.652350D+00
              MO Center= -6.1D-01,  1.3D+00, -8.3D-02, r^2= 7.6D-01
   Bfn.  Coefficient  Atom+Function         Bfn.  Coefficient  Atom+Function  
  ----- ------------  ---------------      ----- ------------  ---------------
     6      1.978428  1 O  s                  2     -1.639712  1 O  s          
     8      0.420321  1 O  py                11     -0.375009  2 H  s          
    13     -0.368390  3 H  s                 10     -0.258269  2 H  s          
    12     -0.253723  3 H  s                  4     -0.116378  1 O  py         
     1      0.092949  1 O  s                  9     -0.090615  1 O  pz         


                     DFT Final Beta Molecular Orbital Analysis
                     -----------------------------------------

 Vector    1  Occ=1.000000D+00  E=-1.844789D+01
              MO Center= -6.0D-01,  1.2D+00, -4.8D-02, r^2= 1.6D-02
   Bfn.  Coefficient  Atom+Function         Bfn.  Coefficient  Atom+Function  
  ----- ------------  ---------------      ----- ------------  ---------------
     1      0.981089  1 O  s                  2      0.107856  1 O  s          
     6     -0.044075  1 O  s          

 Vector    2  Occ=1.000000D+00  E=-8.958566D-01
              MO Center= -6.3D-01,  1.4D+00, -9.6D-02, r^2= 5.1D-01
   Bfn.  Coefficient  Atom+Function         Bfn.  Coefficient  Atom+Function  
  ----- ------------  ---------------      ----- ------------  ---------------
     6      0.672487  1 O  s                  1     -0.225510  1 O  s          
     2      0.209236  1 O  s                 10      0.126923  2 H  s          
    12      0.123645  3 H  s                  4      0.122605  1 O  py         
     8      0.120871  1 O  py                13      0.031909  3 H  s          
    11      0.030922  2 H  s                  5     -0.025645  1 O  pz         

 Vector    3  Occ=1.000000D+00  E=-4.687933D-01
              MO Center= -6.3D-01,  1.4D+00, -9.3D-02, r^2= 8.2D-01
   Bfn.  Coefficient  Atom+Function         Bfn.  Coefficient  Atom+Function  
  ----- ------------  ---------------      ----- ------------  ---------------
     3      0.411526  1 O  px                 7      0.332631  1 O  px         
    10      0.235689  2 H  s                 12     -0.231908  3 H  s          
    13     -0.200196  3 H  s                 11      0.192183  2 H  s          
     4      0.060612  1 O  py                 8      0.056628  1 O  py         

 Vector    4  Occ=1.000000D+00  E=-2.523340D-01
              MO Center= -5.9D-01,  1.0D+00, -1.3D-02, r^2= 6.2D-01
   Bfn.  Coefficient  Atom+Function         Bfn.  Coefficient  Atom+Function  
  ----- ------------  ---------------      ----- ------------  ---------------
     6      0.494662  1 O  s                  8     -0.451149  1 O  py         
     4     -0.434200  1 O  py                13     -0.142941  3 H  s          
    12     -0.128435  3 H  s                 11     -0.126956  2 H  s          
     9      0.121324  1 O  pz                10     -0.114238  2 H  s          
     1     -0.110147  1 O  s                  5      0.110204  1 O  pz         

 Vector    5  Occ=1.000000D+00  E=-2.004912D-01
              MO Center= -5.9D-01,  1.2D+00, -5.7D-02, r^2= 5.3D-01
   Bfn.  Coefficient  Atom+Function         Bfn.  Coefficient  Atom+Function  
  ----- ------------  ---------------      ----- ------------  ---------------
     9      0.610446  1 O  pz                 5      0.511412  1 O  pz         
     8      0.141609  1 O  py                 4      0.124753  1 O  py         

 Vector    6  Occ=0.000000D+00  E= 6.807492D-02
              MO Center= -7.2D-01,  1.8D+00, -1.7D-01, r^2= 2.0D+00
   Bfn.  Coefficient  Atom+Function         Bfn.  Coefficient  Atom+Function  
  ----- ------------  ---------------      ----- ------------  ---------------
     6      0.995966  1 O  s                 13     -0.838885  3 H  s          
    11     -0.787965  2 H  s                  8      0.421367  1 O  py         
     4      0.263049  1 O  py                 1     -0.114145  1 O  s          
    10     -0.109236  2 H  s                 12     -0.096573  3 H  s          
     9     -0.088107  1 O  pz                 7     -0.069704  1 O  px         

 Vector    7  Occ=0.000000D+00  E= 1.564411D-01
              MO Center= -6.3D-01,  1.7D+00, -1.6D-01, r^2= 2.1D+00
   Bfn.  Coefficient  Atom+Function         Bfn.  Coefficient  Atom+Function  
  ----- ------------  ---------------      ----- ------------  ---------------
    11      1.082004  2 H  s                 13     -1.045991  3 H  s          
     7     -0.720988  1 O  px                 3     -0.379439  1 O  px         
     8     -0.109258  1 O  py                10      0.106046  2 H  s          
    12     -0.095405  3 H  s                  4     -0.054014  1 O  py         

 Vector    8  Occ=0.000000D+00  E= 9.117011D-01
              MO Center= -8.5D-01,  1.5D+00, -1.3D-01, r^2= 1.6D+00
   Bfn.  Coefficient  Atom+Function         Bfn.  Coefficient  Atom+Function  
  ----- ------------  ---------------      ----- ------------  ---------------
    12      1.070683  3 H  s                 13     -0.859116  3 H  s          
    10     -0.819584  2 H  s                 11      0.713473  2 H  s          
     7      0.288410  1 O  px                 3      0.243860  1 O  px         
     8      0.028731  1 O  py         

 Vector    9  Occ=0.000000D+00  E= 9.326982D-01
              MO Center= -4.7D-01,  1.8D+00, -1.7D-01, r^2= 1.2D+00
   Bfn.  Coefficient  Atom+Function         Bfn.  Coefficient  Atom+Function  
  ----- ------------  ---------------      ----- ------------  ---------------
    10      1.072016  2 H  s                 12      0.815162  3 H  s          
    11     -0.670252  2 H  s                 13     -0.448134  3 H  s          
     4     -0.281139  1 O  py                 8     -0.177140  1 O  py         
     2     -0.085049  1 O  s                  5      0.060832  1 O  pz         
     1      0.056120  1 O  s                  9      0.035332  1 O  pz         

 Vector   10  Occ=0.000000D+00  E= 1.356983D+00
              MO Center= -5.9D-01,  1.2D+00, -4.4D-02, r^2= 7.3D-01
   Bfn.  Coefficient  Atom+Function         Bfn.  Coefficient  Atom+Function  
  ----- ------------  ---------------      ----- ------------  ---------------
     5      1.013608  1 O  pz                 9     -0.958039  1 O  pz         
     4      0.162430  1 O  py                 8     -0.144067  1 O  py         

 Vector   11  Occ=0.000000D+00  E= 1.450287D+00
              MO Center= -6.1D-01,  1.0D+00, -2.4D-02, r^2= 7.8D-01
   Bfn.  Coefficient  Atom+Function         Bfn.  Coefficient  Atom+Function  
  ----- ------------  ---------------      ----- ------------  ---------------
     8      1.161331  1 O  py                 4     -0.974238  1 O  py         
    10     -0.304390  2 H  s                 12     -0.274918  3 H  s          
     6      0.233414  1 O  s                  9     -0.192857  1 O  pz         
    11     -0.161164  2 H  s                  5      0.153576  1 O  pz         
     2      0.091613  1 O  s                  1     -0.046790  1 O  s          

 Vector   12  Occ=0.000000D+00  E= 1.571439D+00
              MO Center= -5.5D-01,  1.1D+00, -3.3D-02, r^2= 9.4D-01
   Bfn.  Coefficient  Atom+Function         Bfn.  Coefficient  Atom+Function  
  ----- ------------  ---------------      ----- ------------  ---------------
     7      1.497023  1 O  px                 3     -1.022566  1 O  px         
    13      0.510883  3 H  s                 11     -0.478367  2 H  s          
    12      0.266419  3 H  s                 10     -0.200832  2 H  s          
     8      0.061472  1 O  py                 6     -0.036048  1 O  s          

 Vector   13  Occ=0.000000D+00  E= 2.652350D+00
              MO Center= -6.1D-01,  1.3D+00, -8.3D-02, r^2= 7.6D-01
   Bfn.  Coefficient  Atom+Function         Bfn.  Coefficient  Atom+Function  
  ----- ------------  ---------------      ----- ------------  ---------------
     6      1.978428  1 O  s                  2     -1.639712  1 O  s          
     8      0.420321  1 O  py                11     -0.375009  2 H  s          
    13     -0.368390  3 H  s                 10     -0.258269  2 H  s          
    12     -0.253723  3 H  s                  4     -0.116378  1 O  py         
     1      0.092949  1 O  s                  9     -0.090615  1 O  pz         


   alpha - beta orbital overlaps 
   ----------------------------- 


   alpha      1      2      3      4      5      6      7      8      9     10
    beta      1      2      3      4      5      6      7      8      9     10
 overlap   1.000  1.000  1.000  1.000  1.000  1.000  1.000  1.000  1.000  1.000


   alpha     11     12     13
    beta     11     12     13
 overlap   1.000  1.000  1.000

     --------------------------
     Expectation value of S2:  
     --------------------------
      <S2> =      0.0000 (Exact =     0.0000)


 center of mass
 --------------
 x =  -1.14046009 y =   2.31573456 z =  -0.11481654

 moments of inertia (a.u.)
 ------------------
           2.029985630287          -0.339170413214          -0.010410989166
          -0.339170413214           4.510968658533           0.399680758757
          -0.010410989166           0.399680758757           6.373880367517

     Multipole analysis of the density
     ---------------------------------

     L   x y z        total         alpha         beta         nuclear
     -   - - -        -----         -----         ----         -------
     0   0 0 0     -0.000000     -5.000000     -5.000000     10.000000

     1   1 0 0     -0.076115      5.727497      5.727497    -11.531108
     1   0 1 0      0.829122    -11.613545    -11.613545     24.056212
     1   0 0 1     -0.177867      0.580029      0.580029     -1.337926

     2   2 0 0     -2.830033    -10.258050    -10.258050     17.686067
     2   1 1 0     -0.939832     13.218645     13.218645    -27.377122
     2   1 0 1      0.208542     -0.669557     -0.669557      1.547656
     2   0 2 0     -0.381460    -29.999739    -29.999739     59.618019
     2   0 1 1     -0.673092      1.451650      1.451650     -3.576392
     2   0 0 2     -4.980861     -2.617289     -2.617289      0.253717


 Task  times  cpu:        6.6s     wall:        6.6s


                                NWChem Input Module
                                -------------------


 Summary of allocated global arrays
-----------------------------------
  No active global arrays


MA_summarize_allocated_blocks: starting scan ...
heap block 'gridpts', handle 99, address 0x150002328:
	type of elements:		double precision
	number of elements:		33554432
	address of client space:	0x150002380
	index for client space:		132033333
	total number of bytes:		268435552
MA_summarize_allocated_blocks: scan completed: 1 heap block, 0 stack blocks
MA usage statistics:

	allocation statistics:
					      heap	     stack
					      ----	     -----
	current number of blocks	         1	         0
	maximum number of blocks	        27	        87
	current total bytes		 268435552	         0
	maximum total bytes		 276312896	  22510504
	maximum total K-bytes		    276313	     22511
	maximum total M-bytes		       277	        23


                                     CITATION
                                     --------
                Please cite the following reference when publishing
                           results obtained with NWChem:

          E. Apra, E. J. Bylaska, W. A. de Jong, N. Govind, K. Kowalski,
       T. P. Straatsma, M. Valiev, H. J. J. van Dam, Y. Alexeev, J. Anchell,
       V. Anisimov, F. W. Aquino, R. Atta-Fynn, J. Autschbach, N. P. Bauman,
     J. C. Becca, D. E. Bernholdt, K. Bhaskaran-Nair, S. Bogatko, P. Borowski,
         J. Boschen, J. Brabec, A. Bruner, E. Cauet, Y. Chen, G. N. Chuev,
      C. J. Cramer, J. Daily, M. J. O. Deegan, T. H. Dunning Jr., M. Dupuis,
   K. G. Dyall, G. I. Fann, S. A. Fischer, A. Fonari, H. Fruchtl, L. Gagliardi,
      J. Garza, N. Gawande, S. Ghosh, K. Glaesemann, A. W. Gotz, J. Hammond,
       V. Helms, E. D. Hermes, K. Hirao, S. Hirata, M. Jacquelin, L. Jensen,
   B. G. Johnson, H. Jonsson, R. A. Kendall, M. Klemm, R. Kobayashi, V. Konkov,
      S. Krishnamoorthy, M. Krishnan, Z. Lin, R. D. Lins, R. J. Littlefield,
      A. J. Logsdail, K. Lopata, W. Ma, A. V. Marenich, J. Martin del Campo,
   D. Mejia-Rodriguez, J. E. Moore, J. M. Mullin, T. Nakajima, D. R. Nascimento,
    J. A. Nichols, P. J. Nichols, J. Nieplocha, A. Otero-de-la-Roza, B. Palmer,
    A. Panyala, T. Pirojsirikul, B. Peng, R. Peverati, J. Pittner, L. Pollack,
   R. M. Richard, P. Sadayappan, G. C. Schatz, W. A. Shelton, D. W. Silverstein,
   D. M. A. Smith, T. A. Soares, D. Song, M. Swart, H. L. Taylor, G. S. Thomas,
            V. Tipparaju, D. G. Truhlar, K. Tsemekhman, T. Van Voorhis,
      A. Vazquez-Mayagoitia, P. Verma, O. Villa, A. Vishnu, K. D. Vogiatzis,
        D. Wang, J. H. Weare, M. J. Williamson, T. L. Windus, K. Wolinski,
        A. T. Wong, Q. Wu, C. Yang, Q. Yu, M. Zacharias, Z. Zhang, Y. Zhao,
                                and R. J. Harrison
                        "NWChem: Past, present, and future
                         J. Chem. Phys. 152, 184102 (2020)
                               doi:10.1063/5.0004997

                                      AUTHORS
                                      -------
  E. Apra, E. J. Bylaska, N. Govind, K. Kowalski, M. Valiev, D. Mejia-Rodriguez,
       A. Kunitsa, N. P. Bauman, A. Panyala, W. A. de Jong, T. P. Straatsma,
   H. J. J. van Dam, D. Wang, T. L. Windus, J. Hammond, J. Autschbach, A. Woods,
    K. Bhaskaran-Nair, J. Brabec, K. Lopata, S. A. Fischer, S. Krishnamoorthy,
     M. Jacquelin, W. Ma, M. Klemm, O. Villa, Y. Chen, V. Anisimov, F. Aquino,
     S. Hirata, M. T. Hackler, E. Hermes, L. Jensen, J. E. Moore, J. C. Becca,
      V. Konjkov, T. Risthaus, M. Malagoli, A. Marenich, A. Otero-de-la-Roza,
        J. Mullin, P. Nichols, R. Peverati, J. Pittner, Y. Zhao, P.-D. Fan,
        A. Fonari, M. J. Williamson, R. J. Harrison, J. R. Rehr, M. Dupuis,
     D. Silverstein, D. M. A. Smith, J. Nieplocha, V. Tipparaju, M. Krishnan,
     B. E. Van Kuiken, A. Vazquez-Mayagoitia, M. Swart, Q. Wu, T. Van Voorhis,
     A. A. Auer, M. Nooijen, L. D. Crosby, E. Brown, G. Cisneros, G. I. Fann,
   H. Fruchtl, J. Garza, K. Hirao, R. A. Kendall, J. A. Nichols, K. Tsemekhman,
    K. Wolinski, J. Anchell, D. E. Bernholdt, P. Borowski, T. Clark, D. Clerc,
   H. Dachsel, M. J. O. Deegan, K. Dyall, D. Elwood, E. Glendening, M. Gutowski,
   A. C. Hess, J. Jaffe, B. G. Johnson, J. Ju, R. Kobayashi, R. Kutteh, Z. Lin,
   R. Littlefield, X. Long, B. Meng, T. Nakajima, S. Niu, L. Pollack, M. Rosing,
   K. Glaesemann, G. Sandrone, M. Stave, H. Taylor, G. Thomas, J. H. van Lenthe,
                               A. T. Wong, Z. Zhang.

 Total times  cpu:       22.2s     wall:       22.2s
