 
Processor list
 
cu05n[81-82]
 
ARMCI configured for 2 cluster nodes. Network protocol is 'OpenIB Verbs API'.
All connections between all procs tested: SUCCESS
 argument  1 = /mscf/home/d3p852/nwchem-5.1.1/QA/tests/tce_lr_ccsd_c2/tce_lr_ccsd_c2.nw



============================== echo of input deck ==============================
start tce_lr_ccsd_c2

echo

memory 3500 mb

geometry units bohr
  symmetry d2h
C   0.0000000000   0.0000000000  -1.174000000
C   0.0000000000   0.0000000000   1.174000000
end

BASIS spherical
 C   S
   6665.0000000      0.69200000000E-03 -0.14600000000E-03
   1000.0000000      0.53290000000E-02 -0.11540000000E-02
   228.00000000      0.27077000000E-01 -0.57250000000E-02
   64.710000000      0.10171800000     -0.23312000000E-01
   21.060000000      0.27474000000     -0.63955000000E-01
   7.4950000000      0.44856400000     -0.14998100000
   2.7970000000      0.28507400000     -0.12726200000
  0.52150000000      0.15204000000E-01  0.54452900000
 C   S
  0.15960000000       1.0000000000
 C   S
  0.46900000000E-01   1.0000000000
 C   P
   9.4390000000      0.38109000000E-01
   2.0020000000      0.20948000000
  0.54560000000      0.50855700000
 C   P
  0.15170000000       1.0000000000
 C   P
  0.40410000000E-01   1.0000000000
 C   D
  0.55000000000       1.0000000000
END

scf
thresh 1.0e-10
tol2e 1.0e-10
singlet
rhf
end

tce
freeze atomic
lr-ccsd
tilesize 10
thresh 1.0d-6
nroots 1
2eorb
end

task tce energy

================================================================================


                                         
                                         


              Northwest Computational Chemistry Package (NWChem) 6.0
              ------------------------------------------------------


                    Environmental Molecular Sciences Laboratory
                       Pacific Northwest National Laboratory
                                Richland, WA 99352

                              Copyright (c) 1994-2010
                       Pacific Northwest National Laboratory
                            Battelle Memorial Institute

             NWChem is an open-source computational chemistry package
                        distributed under the terms of the
                      Educational Community License (ECL) 2.0
             A copy of the license is included with this distribution
                              in the LICENSE.TXT file

                                  ACKNOWLEDGMENT
                                  --------------

            This software and its documentation were developed at the
            EMSL at Pacific Northwest National Laboratory, a multiprogram
            national laboratory, operated for the U.S. Department of Energy
            by Battelle under Contract Number DE-AC05-76RL01830. Support
            for this work was provided by the Department of Energy Office
            of Biological and Environmental Research, Office of Basic
            Energy Sciences, and the Office of Advanced Scientific Computing.


           Job information
           ---------------

    hostname      = cu5n81
    program       = /scratch/nwchem
    date          = Fri Oct 29 11:41:34 2010

    compiled      = Thu_Oct_28_07:10:53_2010
    source        = /home/scicons/user/kurt/nwchem-6.0-release-pgf90-final/
    nwchem branch = 6.0
    input         = /mscf/home/d3p852/nwchem-5.1.1/QA/tests/tce_lr_ccsd_c2/tce_lr_ccsd_c2.nw
    prefix        = tce_lr_ccsd_c2.
    data base     = ./tce_lr_ccsd_c2.db
    status        = startup
    nproc         =        8
    time left     =   1763s



           Memory information
           ------------------

    heap     =  114688001 doubles =    875.0 Mbytes
    stack    =  114688001 doubles =    875.0 Mbytes
    global   =  229376000 doubles =   1750.0 Mbytes (distinct from heap & stack)
    total    =  458752002 doubles =   3500.0 Mbytes
    verify   = yes
    hardfail = no 


           Directory information
           ---------------------

  0 permanent = .
  0 scratch   = .




                                NWChem Input Module
                                -------------------


 Turning off AUTOSYM since
 SYMMETRY directive was detected!


          ------
          auto-z
          ------


                             Geometry "geometry" -> ""
                             -------------------------

 Output coordinates in a.u. (scale by  1.000000000 to convert to a.u.)

  No.       Tag          Charge          X              Y              Z
 ---- ---------------- ---------- -------------- -------------- --------------
    1 C                    6.0000     0.00000000     0.00000000    -1.17400000
    2 C                    6.0000     0.00000000     0.00000000     1.17400000

      Atomic Mass 
      ----------- 

      C                 12.000000


 Effective nuclear repulsion energy (a.u.)      15.3321976150

            Nuclear Dipole moment (a.u.) 
            ----------------------------
        X                 Y               Z
 ---------------- ---------------- ----------------
     0.0000000000     0.0000000000     0.0000000000

      Symmetry information
      --------------------

 Group name             D2h       
 Group number             26
 Group order               8
 No. of unique centers     1

      Symmetry unique atoms

     1



                                Z-matrix (autoz)
                                -------- 

 Units are Angstrom for bonds and degrees for angles

      Type          Name      I     J     K     L     M      Value
      ----------- --------  ----- ----- ----- ----- ----- ----------
    1 Stretch                  1     2                       1.24251


            XYZ format geometry
            -------------------
     2
 geometry
 C                     0.00000000     0.00000000    -0.62125409
 C                     0.00000000     0.00000000     0.62125409

 ==============================================================================
                                internuclear distances
 ------------------------------------------------------------------------------
       center one      |      center two      | atomic units |       a.u.
 ------------------------------------------------------------------------------
    2 C                |   1 C                |     2.34800  |     2.34800
 ------------------------------------------------------------------------------
                         number of included internuclear distances:          1
 ==============================================================================



  library name resolved from: environment
  library file name is: <
 /mscf/scicons/apps/nwchem-6.0.oct19//src/basis/libraries/>
  
                      Basis "ao basis" -> "" (spherical)
                      -----
  C (Carbon)
  ----------
            Exponent  Coefficients 
       -------------- ---------------------------------------------------------
  1 S  6.66500000E+03  0.000692
  1 S  1.00000000E+03  0.005329
  1 S  2.28000000E+02  0.027077
  1 S  6.47100000E+01  0.101718
  1 S  2.10600000E+01  0.274740
  1 S  7.49500000E+00  0.448564
  1 S  2.79700000E+00  0.285074
  1 S  5.21500000E-01  0.015204

  2 S  6.66500000E+03 -0.000146
  2 S  1.00000000E+03 -0.001154
  2 S  2.28000000E+02 -0.005725
  2 S  6.47100000E+01 -0.023312
  2 S  2.10600000E+01 -0.063955
  2 S  7.49500000E+00 -0.149981
  2 S  2.79700000E+00 -0.127262
  2 S  5.21500000E-01  0.544529

  3 S  1.59600000E-01  1.000000

  4 S  4.69000000E-02  1.000000

  5 P  9.43900000E+00  0.038109
  5 P  2.00200000E+00  0.209480
  5 P  5.45600000E-01  0.508557

  6 P  1.51700000E-01  1.000000

  7 P  4.04100000E-02  1.000000

  8 D  5.50000000E-01  1.000000



 Summary of "ao basis" -> "" (spherical)
 ------------------------------------------------------------------------------
       Tag                 Description            Shells   Functions and Types
 ---------------- ------------------------------  ------  ---------------------
 C                       user specified              8       18   4s3p1d


                                 NWChem SCF Module
                                 -----------------



  ao basis        = "ao basis"
  functions       =    36
  atoms           =     2
  closed shells   =     6
  open shells     =     0
  charge          =   0.00
  wavefunction    = RHF 
  input vectors   = atomic
  output vectors  = ./tce_lr_ccsd_c2.movecs
  use symmetry    = T
  symmetry adapt  = T


 Summary of "ao basis" -> "ao basis" (spherical)
 ------------------------------------------------------------------------------
       Tag                 Description            Shells   Functions and Types
 ---------------- ------------------------------  ------  ---------------------
 C                       user specified              8       18   4s3p1d


      Symmetry analysis of basis
      --------------------------

        ag          9
        au          1
        b1g         1
        b1u         9
        b2g         4
        b2u         4
        b3g         4
        b3u         4


 Forming initial guess at       2.0s


      Superposition of Atomic Density Guess
      -------------------------------------

 Sum of atomic energies:         -75.33404389

      Non-variational initial energy
      ------------------------------

 Total energy =     -75.619959
 1-e energy   =    -130.735950
 2-e energy   =      39.783793
 HOMO         =      -0.320187
 LUMO         =      -0.237835


      Symmetry analysis of molecular orbitals - initial
      -------------------------------------------------


 !! scf_movecs_sym_adapt:   20 vectors were symmetry contaminated

  Symmetry fudging

 !! scf_movecs_sym_adapt:   20 vectors were symmetry contaminated

  Numbering of irreducible representations: 

     1 ag          2 au          3 b1g         4 b1u         5 b2g     
     6 b2u         7 b3g         8 b3u     

  Orbital symmetries:

     1 ag          2 b1u         3 ag          4 b1u         5 b3u     
     6 b2u         7 ag          8 b1u         9 b2g        10 b3g     
    11 ag         12 b3u        13 b2u        14 ag         15 b2g     
    16 b3g     


 Starting SCF solution at       2.1s



 ----------------------------------------------
         Quadratically convergent ROHF

 Convergence threshold     :          1.000E-10
 Maximum no. of iterations :           30
 Final Fock-matrix accuracy:          1.000E-10
 ----------------------------------------------


 #quartets = 6.346D+03 #integrals = 3.999D+04 #direct =  0.0% #cached =100.0%


 Integral file          = ./tce_lr_ccsd_c2.aoints.0
 Record size in doubles =  65536        No. of integs per rec  =  43688
 Max. records in memory =      2        Max. records in file   = 169376
 No. of bits per label  =      8        No. of bits per value  =     64


File balance: exchanges=     0  moved=     0  time=   0.0


              iter       energy          gnorm     gmax       time
             ----- ------------------- --------- --------- --------
                 1      -75.3800778812  2.83D-01  1.39D-01      0.6
                 2      -75.3874269045  7.67D-02  4.39D-02      0.6
                 3      -75.3879638711  1.32D-03  5.17D-04      0.7
                 4      -75.3879640702  1.12D-06  5.62D-07      0.7
                 5      -75.3879640702  1.00D-12  4.76D-13      0.8


       Final RHF  results 
       ------------------ 

         Total SCF energy =    -75.387964070210
      One-electron energy =   -130.967266591809
      Two-electron energy =     40.247104906607
 Nuclear repulsion energy =     15.332197614991

        Time for solution =      0.3s



       Symmetry analysis of molecular orbitals - final
       -----------------------------------------------

  Numbering of irreducible representations: 

     1 ag          2 au          3 b1g         4 b1u         5 b2g     
     6 b2u         7 b3g         8 b3u     

  Orbital symmetries:

     1 ag          2 b1u         3 ag          4 b1u         5 b2u     
     6 b3u         7 ag          8 b1u         9 b2g        10 b3g     
    11 ag         12 b2u        13 b3u        14 ag         15 b2g     
    16 b3g     

             Final eigenvalues
             -----------------

              1      
    1  -11.3692
    2  -11.3669
    3   -1.0656
    4   -0.5189
    5   -0.4579
    6   -0.4579
    7   -0.1166
    8    0.0712
    9    0.1038
   10    0.1038
   11    0.1097
   12    0.1150
   13    0.1150
   14    0.1611
   15    0.2130
   16    0.2130

                       ROHF Final Molecular Orbital Analysis
                       -------------------------------------

 Vector    2  Occ=2.000000D+00  E=-1.136694D+01  Symmetry=b1u
              MO Center= -2.7D-37,  6.8D-51, -1.8D-16, r^2= 4.1D-01
   Bfn.  Coefficient  Atom+Function         Bfn.  Coefficient  Atom+Function  
  ----- ------------  ---------------      ----- ------------  ---------------
     1     -0.708581  1 C  s                 19      0.708581  2 C  s          

 Vector    3  Occ=2.000000D+00  E=-1.065636D+00  Symmetry=ag
              MO Center= -2.2D-16,  4.7D-17,  3.6D-17, r^2= 7.0D-01
   Bfn.  Coefficient  Atom+Function         Bfn.  Coefficient  Atom+Function  
  ----- ------------  ---------------      ----- ------------  ---------------
     2      0.344612  1 C  s                 20      0.344612  2 C  s          
    21      0.219270  2 C  s                  3      0.219270  1 C  s          
    25     -0.167871  2 C  pz                 7      0.167871  1 C  pz         

 Vector    4  Occ=2.000000D+00  E=-5.188596D-01  Symmetry=b1u
              MO Center= -5.5D-17, -1.6D-16,  1.2D-15, r^2= 1.8D+00
   Bfn.  Coefficient  Atom+Function         Bfn.  Coefficient  Atom+Function  
  ----- ------------  ---------------      ----- ------------  ---------------
    21      0.471004  2 C  s                  3     -0.471004  1 C  s          
     2     -0.329997  1 C  s                 20      0.329997  2 C  s          
     7      0.188358  1 C  pz                25      0.188358  2 C  pz         

 Vector    5  Occ=2.000000D+00  E=-4.579464D-01  Symmetry=b2u
              MO Center=  4.6D-32, -2.0D-16,  1.7D-18, r^2= 1.3D+00
   Bfn.  Coefficient  Atom+Function         Bfn.  Coefficient  Atom+Function  
  ----- ------------  ---------------      ----- ------------  ---------------
     6      0.431702  1 C  py                24      0.431702  2 C  py         
     9      0.236770  1 C  py                27      0.236770  2 C  py         

 Vector    6  Occ=2.000000D+00  E=-4.579464D-01  Symmetry=b3u
              MO Center=  4.1D-16, -1.3D-32, -8.7D-18, r^2= 1.3D+00
   Bfn.  Coefficient  Atom+Function         Bfn.  Coefficient  Atom+Function  
  ----- ------------  ---------------      ----- ------------  ---------------
     5      0.431702  1 C  px                23      0.431702  2 C  px         
     8      0.236770  1 C  px                26      0.236770  2 C  px         

 Vector    7  Occ=0.000000D+00  E=-1.165513D-01  Symmetry=ag
              MO Center= -1.3D-16,  9.6D-17, -1.7D-16, r^2= 2.4D+00
   Bfn.  Coefficient  Atom+Function         Bfn.  Coefficient  Atom+Function  
  ----- ------------  ---------------      ----- ------------  ---------------
     7      0.410818  1 C  pz                25     -0.410818  2 C  pz         
    28     -0.252374  2 C  pz                10      0.252374  1 C  pz         
     3     -0.225173  1 C  s                 21     -0.225173  2 C  s          
     4     -0.163084  1 C  s                 22     -0.163084  2 C  s          

 Vector    8  Occ=0.000000D+00  E= 7.121059D-02  Symmetry=b1u
              MO Center= -6.9D-33, -4.1D-32, -1.3D-14, r^2= 1.7D+01
   Bfn.  Coefficient  Atom+Function         Bfn.  Coefficient  Atom+Function  
  ----- ------------  ---------------      ----- ------------  ---------------
     4      8.978261  1 C  s                 22     -8.978261  2 C  s          
    13      2.752629  1 C  pz                31      2.752629  2 C  pz         

 Vector    9  Occ=0.000000D+00  E= 1.037702D-01  Symmetry=b2g
              MO Center=  2.8D-17, -8.4D-34,  1.6D-16, r^2= 9.3D+00
   Bfn.  Coefficient  Atom+Function         Bfn.  Coefficient  Atom+Function  
  ----- ------------  ---------------      ----- ------------  ---------------
    11      1.789003  1 C  px                29     -1.789003  2 C  px         
     5      0.214185  1 C  px                23     -0.214185  2 C  px         
    26     -0.175721  2 C  px                 8      0.175721  1 C  px         

 Vector   10  Occ=0.000000D+00  E= 1.037702D-01  Symmetry=b3g
              MO Center= -5.8D-33,  1.2D-16,  2.4D-16, r^2= 9.3D+00
   Bfn.  Coefficient  Atom+Function         Bfn.  Coefficient  Atom+Function  
  ----- ------------  ---------------      ----- ------------  ---------------
    12      1.789003  1 C  py                30     -1.789003  2 C  py         
    24     -0.214185  2 C  py                 6      0.214185  1 C  py         
    27     -0.175721  2 C  py                 9      0.175721  1 C  py         

 Vector   11  Occ=0.000000D+00  E= 1.096848D-01  Symmetry=ag
              MO Center= -1.2D-16,  9.0D-17,  6.4D-18, r^2= 1.2D+01
   Bfn.  Coefficient  Atom+Function         Bfn.  Coefficient  Atom+Function  
  ----- ------------  ---------------      ----- ------------  ---------------
    31     -1.278898  2 C  pz                13      1.278898  1 C  pz         
     4     -0.777063  1 C  s                 22     -0.777063  2 C  s          
    21      0.417180  2 C  s                  3      0.417180  1 C  s          
    28      0.281635  2 C  pz                10     -0.281635  1 C  pz         

 Vector   12  Occ=0.000000D+00  E= 1.150397D-01  Symmetry=b2u
              MO Center=  6.0D-32,  5.4D-15, -3.6D-16, r^2= 1.1D+01
   Bfn.  Coefficient  Atom+Function         Bfn.  Coefficient  Atom+Function  
  ----- ------------  ---------------      ----- ------------  ---------------
    12      0.611686  1 C  py                30      0.611686  2 C  py         
    27     -0.232765  2 C  py                 9     -0.232765  1 C  py         

 Vector   13  Occ=0.000000D+00  E= 1.150397D-01  Symmetry=b3u
              MO Center= -7.2D-15, -7.9D-32,  2.8D-16, r^2= 1.1D+01
   Bfn.  Coefficient  Atom+Function         Bfn.  Coefficient  Atom+Function  
  ----- ------------  ---------------      ----- ------------  ---------------
    29      0.611686  2 C  px                11      0.611686  1 C  px         
    26     -0.232765  2 C  px                 8     -0.232765  1 C  px         

 Vector   14  Occ=0.000000D+00  E= 1.610823D-01  Symmetry=ag
              MO Center=  7.3D-15, -5.5D-15, -2.9D-15, r^2= 8.1D+00
   Bfn.  Coefficient  Atom+Function         Bfn.  Coefficient  Atom+Function  
  ----- ------------  ---------------      ----- ------------  ---------------
    13      1.203188  1 C  pz                31     -1.203188  2 C  pz         
     3     -0.695575  1 C  s                 21     -0.695575  2 C  s          
     4      0.460502  1 C  s                 22      0.460502  2 C  s          

 Vector   15  Occ=0.000000D+00  E= 2.130202D-01  Symmetry=b2g
              MO Center=  2.6D-17, -1.2D-33, -1.0D-17, r^2= 6.5D+00
   Bfn.  Coefficient  Atom+Function         Bfn.  Coefficient  Atom+Function  
  ----- ------------  ---------------      ----- ------------  ---------------
    11      1.653740  1 C  px                29     -1.653740  2 C  px         
    26      0.821704  2 C  px                 8     -0.821704  1 C  px         
     5     -0.366220  1 C  px                23      0.366220  2 C  px         

 Vector   16  Occ=0.000000D+00  E= 2.130202D-01  Symmetry=b3g
              MO Center= -9.3D-33,  6.7D-17, -1.8D-16, r^2= 6.5D+00
   Bfn.  Coefficient  Atom+Function         Bfn.  Coefficient  Atom+Function  
  ----- ------------  ---------------      ----- ------------  ---------------
    12      1.653740  1 C  py                30     -1.653740  2 C  py         
    27      0.821704  2 C  py                 9     -0.821704  1 C  py         
    24      0.366220  2 C  py                 6     -0.366220  1 C  py         

 Vector   17  Occ=0.000000D+00  E= 2.670411D-01  Symmetry=b1u
              MO Center=  5.2D-33,  8.0D-19,  6.4D-15, r^2= 1.2D+01
   Bfn.  Coefficient  Atom+Function         Bfn.  Coefficient  Atom+Function  
  ----- ------------  ---------------      ----- ------------  ---------------
     4     18.328343  1 C  s                 22    -18.328343  2 C  s          
    31      4.105040  2 C  pz                13      4.105040  1 C  pz         
    10      0.652670  1 C  pz                28      0.652670  2 C  pz         
     3     -0.513383  1 C  s                 21      0.513383  2 C  s          

 Vector   18  Occ=0.000000D+00  E= 5.318960D-01  Symmetry=b1u
              MO Center= -2.8D-32,  1.8D-18,  7.6D-15, r^2= 4.8D+00
   Bfn.  Coefficient  Atom+Function         Bfn.  Coefficient  Atom+Function  
  ----- ------------  ---------------      ----- ------------  ---------------
    22     -6.984927  2 C  s                  4      6.984927  1 C  s          
     3      5.688613  1 C  s                 21     -5.688613  2 C  s          
    28      3.990234  2 C  pz                10      3.990234  1 C  pz         
    13      1.199944  1 C  pz                31      1.199944  2 C  pz         


 center of mass
 --------------
 x =   0.00000000 y =   0.00000000 z =   0.00000000

 moments of inertia (a.u.)
 ------------------
          33.078624000000           0.000000000000           0.000000000000
           0.000000000000          33.078624000000           0.000000000000
           0.000000000000           0.000000000000           0.000000000000

  Mulliken analysis of the total density
  --------------------------------------

    Atom       Charge   Shell Charges
 -----------   ------   -------------------------------------------------------
    1 C    6     6.00   2.00  0.85  0.71 -0.01  1.50  0.86  0.03  0.05
    2 C    6     6.00   2.00  0.85  0.71 -0.01  1.50  0.86  0.03  0.05

       Multipole analysis of the density wrt the origin
       ------------------------------------------------

     L   x y z        total         open         nuclear
     -   - - -        -----         ----         -------
     0   0 0 0      0.000000      0.000000     12.000000

     1   1 0 0      0.000000      0.000000      0.000000
     1   0 1 0      0.000000      0.000000      0.000000
     1   0 0 1      0.000000      0.000000      0.000000

     2   2 0 0     -9.437337      0.000000      0.000000
     2   1 1 0      0.000000      0.000000      0.000000
     2   1 0 1      0.000000      0.000000      0.000000
     2   0 2 0     -9.437337      0.000000      0.000000
     2   0 1 1      0.000000      0.000000      0.000000
     2   0 0 2     -6.653777      0.000000     16.539312


 Parallel integral file used       8 records with       0 large values

                   NWChem Extensible Many-Electron Theory Module
                   ---------------------------------------------

              ======================================================
                   This portion of the program was automatically
                  generated by a Tensor Contraction Engine (TCE).
                  The development of this portion of the program
                 and TCE was supported by US Department of Energy,
                Office of Science, Office of Basic Energy Science.
                      TCE is a product of Battelle and PNNL.
              Please cite: S.Hirata, J.Phys.Chem.A 107, 9887 (2003).
              ======================================================

            General Information
            -------------------
      Number of processors :     8
         Wavefunction type : Restricted Hartree-Fock
          No. of electrons :    12
           Alpha electrons :     6
            Beta electrons :     6
           No. of orbitals :    72
            Alpha orbitals :    36
             Beta orbitals :    36
        Alpha frozen cores :     2
         Beta frozen cores :     2
     Alpha frozen virtuals :     0
      Beta frozen virtuals :     0
         Spin multiplicity : singlet 
    Number of AO functions :    36
       Number of AO shells :    16
        Use of symmetry is : on 
      Symmetry adaption is : on 
         Schwarz screening : 0.10D-09

          Correlation Information
          -----------------------
          Calculation type : Locally renormalized CCSD calculations                      
   Perturbative correction : none                                                        
            Max iterations :      100
        Residual threshold : 0.10D-05
     T(0) DIIS level shift : 0.00D+00
     L(0) DIIS level shift : 0.00D+00
     T(1) DIIS level shift : 0.00D+00
     L(1) DIIS level shift : 0.00D+00
     T(R) DIIS level shift : 0.00D+00
     T(I) DIIS level shift : 0.00D+00
   CC-T/L Amplitude update :  5-th order DIIS
     No. of excited states :     1
               Target root :     1
           Target symmetry : none
      Symmetry restriction : off
   Dipole & oscillator str : off
                I/O scheme : Global Array Library

            Memory Information
            ------------------
          Available GA space size is    1835006704 doubles
          Available MA space size is     229374165 doubles

 Maximum block size supplied by input
 Maximum block size        10 doubles

 tile_dim =      7

 Block   Spin    Irrep     Size     Offset   Alpha
 -------------------------------------------------
   1    alpha     ag     1 doubles       0       1
   2    alpha     b1u    1 doubles       1       2
   3    alpha     b2u    1 doubles       2       3
   4    alpha     b3u    1 doubles       3       4
   5    beta      ag     1 doubles       4       1
   6    beta      b1u    1 doubles       5       2
   7    beta      b2u    1 doubles       6       3
   8    beta      b3u    1 doubles       7       4
   9    alpha     ag     7 doubles       8       9
  10    alpha     au     1 doubles      15      10
  11    alpha     b1g    1 doubles      16      11
  12    alpha     b1u    7 doubles      17      12
  13    alpha     b2g    4 doubles      24      13
  14    alpha     b2u    3 doubles      28      14
  15    alpha     b3g    4 doubles      31      15
  16    alpha     b3u    3 doubles      35      16
  17    beta      ag     7 doubles      38       9
  18    beta      au     1 doubles      45      10
  19    beta      b1g    1 doubles      46      11
  20    beta      b1u    7 doubles      47      12
  21    beta      b2g    4 doubles      54      13
  22    beta      b2u    3 doubles      58      14
  23    beta      b3g    4 doubles      61      15
  24    beta      b3u    3 doubles      65      16

 Global array virtual files algorithm will be used

 Parallel file system coherency ......... OK

 #quartets = 9.316D+03 #integrals = 5.772D+04 #direct =  0.0% #cached =100.0%


 Integral file          = ./tce_lr_ccsd_c2.aoints.0
 Record size in doubles =  65536        No. of integs per rec  =  43688
 Max. records in memory =      2        Max. records in file   = 169376
 No. of bits per label  =      8        No. of bits per value  =     64


File balance: exchanges=     0  moved=     0  time=   0.0


 Fock matrix recomputed
 1-e file size   =              194
 1-e file name   = ./tce_lr_ccsd_c2.f1 
 Cpu & wall time / sec            0.1            0.1
 4-electron integrals stored in orbital form

 v2    file size   =            39814
 4-index algorithm nr.   1 is used
 imaxsize =       30
 imaxsize ichop =        0
 v2int file size   =           418880
 Cpu & wall time / sec            2.2            2.2
 do_pt =   F
 do_lam_pt =   F
 do_cr_pt =   F
 do_lcr_pt =   F
 do_2t_pt =   F
 T1-number-of-tasks                        4

 t1 file size   =               20
 t1 file name   = ./tce_lr_ccsd_c2.t1 
 t1 file handle =       -998
 T2-number-of-boxes                      184

 t2 file size   =             2885
 t2 file name   = ./tce_lr_ccsd_c2.t2 
 t2 file handle =       -996

 CCSD iterations
 -----------------------------------------------------------------
 Iter          Residuum       Correlation     Cpu    Wall    V2*C2
 -----------------------------------------------------------------
    1   0.1813492735545  -0.3110228821832     0.4     0.4     0.0
    2   0.0807311164175  -0.2774143182654     0.4     0.4     0.0
    3   0.0386221317362  -0.3055221475748     0.4     0.4     0.0
    4   0.0284769330473  -0.3009680791981     0.4     0.4     0.0
    5   0.0161088621195  -0.3078664478752     0.4     0.4     0.0
 MICROCYCLE DIIS UPDATE:                        5                        5
    6   0.0039608930244  -0.3120527489029     0.4     0.4     0.0
    7   0.0018944747212  -0.3123110137437     0.4     0.4     0.0
    8   0.0011197521131  -0.3123778983085     0.4     0.4     0.0
    9   0.0007894933952  -0.3124319598213     0.4     0.4     0.0
   10   0.0005642791959  -0.3124910605431     0.4     0.4     0.0
 MICROCYCLE DIIS UPDATE:                       10                        5
   11   0.0001878365744  -0.3126532751539     0.4     0.4     0.0
   12   0.0001198339027  -0.3126250250755     0.4     0.4     0.0
   13   0.0000854903727  -0.3126440658077     0.4     0.4     0.0
   14   0.0000666680741  -0.3126392878603     0.4     0.4     0.0
   15   0.0000508737864  -0.3126441220304     0.4     0.4     0.0
 MICROCYCLE DIIS UPDATE:                       15                        5
   16   0.0000097927000  -0.3126476258976     0.4     0.4     0.0
   17   0.0000048347971  -0.3126480384178     0.4     0.4     0.0
   18   0.0000029290955  -0.3126479959877     0.4     0.4     0.0
   19   0.0000019970332  -0.3126479359893     0.4     0.4     0.0
   20   0.0000014291623  -0.3126479332957     0.4     0.4     0.0
 MICROCYCLE DIIS UPDATE:                       20                        5
   21   0.0000005585570  -0.3126479973595     0.4     0.4     0.0
 -----------------------------------------------------------------
 Iterations converged
 CCSD correlation energy / hartree =        -0.312647997359513
 CCSD total energy / hartree       =       -75.700612067569850

 Singles contributions

 Doubles contributions
     7ag  (alpha)     7ag  (beta ) ---     4b1u (alpha)     4b1u (beta )       -0.2949006698

 Ground-state symmetry is ag  

 =========================================
 Excited-state calculation ( ag  symmetry)
 =========================================
 Dim. of EOMCC iter. space      500

 x1 file size   =               20

 x2 file size   =             2885
 EOMCCSD SOLVER TYPE 1

 No. of initial right vectors    2

 LR-EOMCCSD right-hand side iterations
 --------------------------------------------------------------
      Residuum       Omega / hartree  Omega / eV    Cpu    Wall
 --------------------------------------------------------------

 Iteration   1 using    2 trial vectors
   0.3077912690786   0.4561133474083   12.41148     2.1     2.2

 Iteration   2 using    3 trial vectors
   0.0725919263708   0.3971491338051   10.80698     0.5     0.5

 Iteration   3 using    4 trial vectors
   0.0303698349697   0.3929071957832   10.69155     0.5     0.5

 Iteration   4 using    5 trial vectors
   0.0221237662305   0.3922442955986   10.67351     0.5     0.5

 Iteration   5 using    6 trial vectors
   0.0241549246151   0.3914870454364   10.65291     0.5     0.5

 Iteration   6 using    7 trial vectors
   0.0243507770462   0.3907281897448   10.63226     0.5     0.5

 Iteration   7 using    8 trial vectors
   0.1171657476596   0.3888190033497   10.58031     0.5     0.5

 Iteration   8 using    9 trial vectors
   0.2599279963741   0.2106799022985    5.73289     0.5     0.5

 Iteration   9 using   10 trial vectors
   0.1060992759653   0.1444040119034    3.92943     0.5     0.5

 Iteration  10 using   11 trial vectors
   0.0432815432812   0.1315406272078    3.57940     0.5     0.5

 Iteration  11 using   12 trial vectors
   0.0129196817630   0.1296793916691    3.52876     0.5     0.6

 Iteration  12 using   13 trial vectors
   0.0041151187377   0.1294387411560    3.52221     0.5     0.5

 Iteration  13 using   14 trial vectors
   0.0014756768199   0.1294040290880    3.52126     0.5     0.6

 Iteration  14 using   15 trial vectors
   0.0005230127301   0.1294052834394    3.52130     0.5     0.6

 Iteration  15 using   16 trial vectors
   0.0002076836820   0.1294084227093    3.52138     0.5     0.6

 Iteration  16 using   17 trial vectors
   0.0001323036652   0.1294085415624    3.52139     0.5     0.6

 Iteration  17 using   18 trial vectors
   0.0000962533681   0.1294075664729    3.52136     0.5     0.6

 Iteration  18 using   19 trial vectors
   0.0000354582506   0.1294064315492    3.52133     0.5     0.6

 Iteration  19 using   20 trial vectors
   0.0000110668256   0.1294062233934    3.52132     0.5     0.6

 Iteration  20 using   21 trial vectors
   0.0000038070312   0.1294061993600    3.52132     0.5     0.6

 Iteration  21 using   22 trial vectors
   0.0000011102835   0.1294061793599    3.52132     0.5     0.6

 Iteration  22 using   23 trial vectors
   0.0000002826136   0.1294061764318    3.52132     0.5     0.5
 --------------------------------------------------------------
 Iterations converged
 largest EOMCCSD amplitudes: R1 and R2

 Singles contributions

 Doubles contributions
     7ag  (alpha)     7ag  (beta ) ---     5b2u (alpha)     5b2u (beta )        0.6767162308
     7ag  (alpha)     7ag  (beta ) ---     6b3u (alpha)     6b3u (beta )       -0.6767162308

 =========================================
 Excited-state calculation ( au  symmetry)
 =========================================
 Dim. of EOMCC iter. space      500

 x1 file size   =               10

 x2 file size   =             2141
 EOMCCSD SOLVER TYPE 1

 No. of initial right vectors    2

 LR-EOMCCSD right-hand side iterations
 --------------------------------------------------------------
      Residuum       Omega / hartree  Omega / eV    Cpu    Wall
 --------------------------------------------------------------

 Iteration   1 using    2 trial vectors
   0.3406631134685   0.4211716620212   11.46067     1.7     1.9

 Iteration   2 using    3 trial vectors
   0.1291596047539   0.3379652973392    9.19651     0.4     0.5

 Iteration   3 using    4 trial vectors
   0.0976311754624   0.2992050647732    8.14179     0.4     0.5

 Iteration   4 using    5 trial vectors
   0.0260383926402   0.2921521288268    7.94987     0.4     0.5

 Iteration   5 using    6 trial vectors
   0.0076954660878   0.2914408968260    7.93051     0.4     0.5

 Iteration   6 using    7 trial vectors
   0.0039504653732   0.2915395498682    7.93320     0.4     0.5

 Iteration   7 using    8 trial vectors
   0.0023236754823   0.2915847167752    7.93443     0.4     0.5

 Iteration   8 using    9 trial vectors
   0.0009072342403   0.2915540683725    7.93359     0.4     0.5

 Iteration   9 using   10 trial vectors
   0.0003266959432   0.2915562547709    7.93365     0.4     0.5

 Iteration  10 using   11 trial vectors
   0.0001043652989   0.2915547323322    7.93361     0.5     0.5

 Iteration  11 using   12 trial vectors
   0.0000496960580   0.2915574610021    7.93369     0.5     0.5

 Iteration  12 using   13 trial vectors
   0.0000176374284   0.2915570167692    7.93367     0.5     0.5

 Iteration  13 using   14 trial vectors
   0.0000077313488   0.2915571069019    7.93368     0.4     0.5

 Iteration  14 using   15 trial vectors
   0.0000030497565   0.2915570701739    7.93367     0.5     0.5

 Iteration  15 using   16 trial vectors
   0.0000011038358   0.2915570680528    7.93367     0.5     0.6

 Iteration  16 using   17 trial vectors
   0.0000005305862   0.2915570774133    7.93368     0.4     0.5
 --------------------------------------------------------------
 Iterations converged
 largest EOMCCSD amplitudes: R1 and R2

 Singles contributions
     9b2g (alpha) ---     5b2u (alpha)       -0.5094682521
    15b2g (alpha) ---     5b2u (alpha)        0.4480894785
    10b3g (alpha) ---     6b3u (alpha)        0.5094682521
    16b3g (alpha) ---     6b3u (alpha)       -0.4480894785

 Doubles contributions

 =========================================
 Excited-state calculation ( b1g symmetry)
 =========================================
 Dim. of EOMCC iter. space      500

 x1 file size   =                8

 x2 file size   =             2228
 EOMCCSD SOLVER TYPE 1

 No. of initial right vectors    2

 LR-EOMCCSD right-hand side iterations
 --------------------------------------------------------------
      Residuum       Omega / hartree  Omega / eV    Cpu    Wall
 --------------------------------------------------------------

 Iteration   1 using    2 trial vectors
   0.3143774828074   0.4560747995985   12.41043     1.8     2.0

 Iteration   2 using    3 trial vectors
   0.0725551140950   0.3973783527984   10.81322     0.4     0.5

 Iteration   3 using    4 trial vectors
   0.0310990591605   0.3929384966110   10.69241     0.4     0.5

 Iteration   4 using    5 trial vectors
   0.0224927754272   0.3919861030736   10.66649     0.5     0.5

 Iteration   5 using    6 trial vectors
   0.0249717144271   0.3912384165578   10.64614     0.4     0.5

 Iteration   6 using    7 trial vectors
   0.0261214135982   0.3905458385557   10.62730     0.5     0.5

 Iteration   7 using    8 trial vectors
   0.1254914520472   0.3874558859976   10.54322     0.5     0.5

 Iteration   8 using    9 trial vectors
   0.2594748025254   0.2080444019080    5.66118     0.5     0.5

 Iteration   9 using   10 trial vectors
   0.1046675112013   0.1428795291063    3.88795     0.5     0.6

 Iteration  10 using   11 trial vectors
   0.0425485165326   0.1304993788113    3.55107     0.5     0.6

 Iteration  11 using   12 trial vectors
   0.0129655730863   0.1286616135566    3.50106     0.5     0.6

 Iteration  12 using   13 trial vectors
   0.0040155773813   0.1284079388109    3.49416     0.5     0.6

 Iteration  13 using   14 trial vectors
   0.0014285627084   0.1283755741083    3.49328     0.5     0.6

 Iteration  14 using   15 trial vectors
   0.0004677481292   0.1283763864918    3.49330     0.5     0.6

 Iteration  15 using   16 trial vectors
   0.0001391781773   0.1283799182867    3.49340     0.5     0.6

 Iteration  16 using   17 trial vectors
   0.0000380556340   0.1283809664533    3.49343     0.5     0.6

 Iteration  17 using   18 trial vectors
   0.0000126574394   0.1283812063702    3.49343     0.5     0.6

 Iteration  18 using   19 trial vectors
   0.0000055497080   0.1283812454082    3.49343     0.5     0.6

 Iteration  19 using   20 trial vectors
   0.0000042676303   0.1283812886963    3.49343     0.5     0.6

 Iteration  20 using   21 trial vectors
   0.0000030325903   0.1283813252720    3.49344     0.5     0.6

 Iteration  21 using   22 trial vectors
   0.0000011174264   0.1283813310362    3.49344     0.5     0.6

 Iteration  22 using   23 trial vectors
   0.0000002989550   0.1283813311680    3.49344     0.5     0.6
 --------------------------------------------------------------
 Iterations converged
 largest EOMCCSD amplitudes: R1 and R2

 Singles contributions

 Doubles contributions
     7ag  (alpha)     7ag  (beta ) ---     5b2u (alpha)     6b3u (beta )       -0.6766705617
     7ag  (alpha)     7ag  (beta ) ---     6b3u (alpha)     5b2u (beta )       -0.6766705617

 =========================================
 Excited-state calculation ( b1u symmetry)
 =========================================
 Dim. of EOMCC iter. space      500

 x1 file size   =               22

 x2 file size   =             2648
 EOMCCSD SOLVER TYPE 1

 No. of initial right vectors    1

 LR-EOMCCSD right-hand side iterations
 --------------------------------------------------------------
      Residuum       Omega / hartree  Omega / eV    Cpu    Wall
 --------------------------------------------------------------

 Iteration   1 using    1 trial vectors
   0.4781979837028   0.3761978392513   10.23687     1.5     1.7

 Iteration   2 using    2 trial vectors
   0.2331470469560   0.2338939018489    6.36458     0.5     0.5

 Iteration   3 using    3 trial vectors
   0.0940070704731   0.2126648669561    5.78691     0.5     0.6

 Iteration   4 using    4 trial vectors
   0.0289507363711   0.2082246303486    5.66608     0.5     0.5

 Iteration   5 using    5 trial vectors
   0.0114220107220   0.2083147908573    5.66854     0.5     0.5

 Iteration   6 using    6 trial vectors
   0.0031617774119   0.2083641316926    5.66988     0.5     0.6

 Iteration   7 using    7 trial vectors
   0.0010523271599   0.2083282929658    5.66890     0.5     0.6

 Iteration   8 using    8 trial vectors
   0.0004975031813   0.2083568708570    5.66968     0.5     0.6

 Iteration   9 using    9 trial vectors
   0.0002018369679   0.2083521084812    5.66955     0.5     0.6

 Iteration  10 using   10 trial vectors
   0.0000710462085   0.2083522306571    5.66956     0.5     0.6

 Iteration  11 using   11 trial vectors
   0.0000271600688   0.2083520799728    5.66955     0.5     0.6

 Iteration  12 using   12 trial vectors
   0.0000105571103   0.2083519955952    5.66955     0.5     0.6

 Iteration  13 using   13 trial vectors
   0.0000035640062   0.2083519883099    5.66955     0.5     0.6

 Iteration  14 using   14 trial vectors
   0.0000012236306   0.2083519628046    5.66955     0.5     0.6

 Iteration  15 using   15 trial vectors
   0.0000004536284   0.2083519710000    5.66955     0.5     0.6
 --------------------------------------------------------------
 Iterations converged
 largest EOMCCSD amplitudes: R1 and R2

 Singles contributions
     7ag  (alpha) ---     4b1u (alpha)        0.8035202129
     9b2g (alpha) ---     6b3u (alpha)       -0.2055552739
    15b2g (alpha) ---     6b3u (alpha)        0.2085385001
    10b3g (alpha) ---     5b2u (alpha)       -0.2055552739
    16b3g (alpha) ---     5b2u (alpha)        0.2085385001

 Doubles contributions
     7ag  (alpha)     7ag  (beta ) ---     3ag  (alpha)     4b1u (beta )       -0.1868288194
     7ag  (alpha)     7ag  (beta ) ---     4b1u (alpha)     3ag  (beta )       -0.1868288194

 =========================================
 Excited-state calculation ( b2g symmetry)
 =========================================
 Dim. of EOMCC iter. space      500

 x1 file size   =               15

 x2 file size   =             2437
 EOMCCSD SOLVER TYPE 1

 No. of initial right vectors    1

 LR-EOMCCSD right-hand side iterations
 --------------------------------------------------------------
      Residuum       Omega / hartree  Omega / eV    Cpu    Wall
 --------------------------------------------------------------

 Iteration   1 using    1 trial vectors
   0.3086838284989   0.4534305000058   12.33848     1.4     1.5

 Iteration   2 using    2 trial vectors
   0.0764913844743   0.3910919700970   10.64216     0.4     0.5

 Iteration   3 using    3 trial vectors
   0.0597897128093   0.3825843554075   10.41065     0.4     0.5

 Iteration   4 using    4 trial vectors
   0.0850119477489   0.3745353091680   10.19163     0.4     0.5

 Iteration   5 using    5 trial vectors
   0.2685115713366   0.2718150806870    7.39647     0.4     0.5

 Iteration   6 using    6 trial vectors
   0.1106891252805   0.1980459192384    5.38911     0.4     0.5

 Iteration   7 using    7 trial vectors
   0.0369055099989   0.1869603508938    5.08745     0.4     0.5

 Iteration   8 using    8 trial vectors
   0.0194815862774   0.1849656547192    5.03317     0.4     0.5

 Iteration   9 using    9 trial vectors
   0.0083913334610   0.1847550857487    5.02744     0.4     0.5

 Iteration  10 using   10 trial vectors
   0.0056772031581   0.1848930599977    5.03120     0.4     0.5

 Iteration  11 using   11 trial vectors
   0.0020543798367   0.1850830592107    5.03637     0.4     0.5

 Iteration  12 using   12 trial vectors
   0.0008575743041   0.1850782199055    5.03624     0.4     0.5

 Iteration  13 using   13 trial vectors
   0.0004100860154   0.1850699789442    5.03601     0.4     0.5

 Iteration  14 using   14 trial vectors
   0.0001456097662   0.1850637664284    5.03584     0.4     0.5

 Iteration  15 using   15 trial vectors
   0.0000960903503   0.1850611017868    5.03577     0.4     0.5

 Iteration  16 using   16 trial vectors
   0.0001057228624   0.1850593435820    5.03572     0.4     0.5

 Iteration  17 using   17 trial vectors
   0.0000722759985   0.1850592795105    5.03572     0.4     0.5

 Iteration  18 using   18 trial vectors
   0.0000378119243   0.1850588919392    5.03571     0.4     0.5

 Iteration  19 using   19 trial vectors
   0.0000199551138   0.1850582879903    5.03569     0.4     0.5

 Iteration  20 using   20 trial vectors
   0.0000100840751   0.1850576867121    5.03568     0.4     0.5

 Iteration  21 using   21 trial vectors
   0.0000039098793   0.1850575462373    5.03567     0.4     0.5

 Iteration  22 using   22 trial vectors
   0.0000014578994   0.1850575514438    5.03567     0.4     0.5

 Iteration  23 using   23 trial vectors
   0.0000006738016   0.1850575543690    5.03567     0.4     0.5
 --------------------------------------------------------------
 Iterations converged
 largest EOMCCSD amplitudes: R1 and R2

 Singles contributions

 Doubles contributions
     7ag  (alpha)    10b3g (alpha) ---     5b2u (alpha)     6b3u (alpha)        0.1017994033
     7ag  (alpha)    16b3g (alpha) ---     5b2u (alpha)     6b3u (alpha)       -0.1205045851
     7ag  (alpha)     7ag  (beta ) ---     4b1u (alpha)     6b3u (beta )        0.6591853853
     7ag  (alpha)    11ag  (beta ) ---     4b1u (alpha)     6b3u (beta )       -0.1027246024
     7ag  (alpha)     7ag  (beta ) ---     6b3u (alpha)     4b1u (beta )        0.6591853853
    11ag  (alpha)     7ag  (beta ) ---     6b3u (alpha)     4b1u (beta )       -0.1027246024

 =========================================
 Excited-state calculation ( b2u symmetry)
 =========================================
 Dim. of EOMCC iter. space      500

 x1 file size   =               15

 x2 file size   =             2437
 EOMCCSD SOLVER TYPE 1

 No. of initial right vectors    1

 LR-EOMCCSD right-hand side iterations
 --------------------------------------------------------------
      Residuum       Omega / hartree  Omega / eV    Cpu    Wall
 --------------------------------------------------------------

 Iteration   1 using    1 trial vectors
   0.4563989052307   0.1335034098511    3.63281     1.4     1.5

 Iteration   2 using    2 trial vectors
   0.0962369101427   0.0561181048866    1.52705     0.4     0.5

 Iteration   3 using    3 trial vectors
   0.0267771634820   0.0535556618080    1.45732     0.4     0.5

 Iteration   4 using    4 trial vectors
   0.0069482009048   0.0534469331032    1.45437     0.4     0.5

 Iteration   5 using    5 trial vectors
   0.0016801556061   0.0534253674266    1.45378     0.4     0.5

 Iteration   6 using    6 trial vectors
   0.0004854852014   0.0534168258730    1.45355     0.4     0.5

 Iteration   7 using    7 trial vectors
   0.0001465899995   0.0534171626589    1.45356     0.4     0.5

 Iteration   8 using    8 trial vectors
   0.0000386132921   0.0534179909209    1.45358     0.4     0.5

 Iteration   9 using    9 trial vectors
   0.0000102433598   0.0534181249796    1.45358     0.4     0.5

 Iteration  10 using   10 trial vectors
   0.0000024088199   0.0534181182254    1.45358     0.4     0.5

 Iteration  11 using   11 trial vectors
   0.0000006100130   0.0534180935706    1.45358     0.4     0.5
 --------------------------------------------------------------
 Iterations converged
 largest EOMCCSD amplitudes: R1 and R2

 Singles contributions
     7ag  (alpha) ---     5b2u (alpha)       -0.9417581911
    11ag  (alpha) ---     5b2u (alpha)        0.1432243362

 Doubles contributions

 =========================================
 Excited-state calculation ( b3g symmetry)
 =========================================
 Dim. of EOMCC iter. space      500

 x1 file size   =               15

 x2 file size   =             2437
 EOMCCSD SOLVER TYPE 1

 No. of initial right vectors    1

 LR-EOMCCSD right-hand side iterations
 --------------------------------------------------------------
      Residuum       Omega / hartree  Omega / eV    Cpu    Wall
 --------------------------------------------------------------

 Iteration   1 using    1 trial vectors
   0.3086838284989   0.4534305000058   12.33848     1.4     1.5

 Iteration   2 using    2 trial vectors
   0.0764913844743   0.3910919700970   10.64216     0.4     0.5

 Iteration   3 using    3 trial vectors
   0.0597897128093   0.3825843554075   10.41065     0.4     0.5

 Iteration   4 using    4 trial vectors
   0.0850119477489   0.3745353091680   10.19163     0.4     0.5

 Iteration   5 using    5 trial vectors
   0.2685115713366   0.2718150806870    7.39647     0.4     0.5

 Iteration   6 using    6 trial vectors
   0.1106891252805   0.1980459192384    5.38911     0.4     0.5

 Iteration   7 using    7 trial vectors
   0.0369055099989   0.1869603508938    5.08745     0.4     0.5

 Iteration   8 using    8 trial vectors
   0.0194815862774   0.1849656547192    5.03317     0.4     0.5

 Iteration   9 using    9 trial vectors
   0.0083913334610   0.1847550857487    5.02744     0.4     0.5

 Iteration  10 using   10 trial vectors
   0.0056772031581   0.1848930599977    5.03120     0.4     0.5

 Iteration  11 using   11 trial vectors
   0.0020543798367   0.1850830592107    5.03637     0.4     0.5

 Iteration  12 using   12 trial vectors
   0.0008575743041   0.1850782199055    5.03624     0.5     0.5

 Iteration  13 using   13 trial vectors
   0.0004100860154   0.1850699789442    5.03601     0.4     0.5

 Iteration  14 using   14 trial vectors
   0.0001456097662   0.1850637664284    5.03584     0.4     0.5

 Iteration  15 using   15 trial vectors
   0.0000960903503   0.1850611017868    5.03577     0.5     0.5

 Iteration  16 using   16 trial vectors
   0.0001057228624   0.1850593435820    5.03572     0.5     0.5

 Iteration  17 using   17 trial vectors
   0.0000722759985   0.1850592795105    5.03572     0.5     0.5

 Iteration  18 using   18 trial vectors
   0.0000378119243   0.1850588919392    5.03571     0.5     0.5

 Iteration  19 using   19 trial vectors
   0.0000199551138   0.1850582879903    5.03569     0.5     0.5

 Iteration  20 using   20 trial vectors
   0.0000100840751   0.1850576867121    5.03568     0.5     0.5

 Iteration  21 using   21 trial vectors
   0.0000039098793   0.1850575462373    5.03567     0.5     0.5

 Iteration  22 using   22 trial vectors
   0.0000014578994   0.1850575514438    5.03567     0.5     0.6

 Iteration  23 using   23 trial vectors
   0.0000006738016   0.1850575543691    5.03567     0.5     0.5
 --------------------------------------------------------------
 Iterations converged
 largest EOMCCSD amplitudes: R1 and R2

 Singles contributions

 Doubles contributions
     7ag  (alpha)     9b2g (alpha) ---     5b2u (alpha)     6b3u (alpha)        0.1017994033
     7ag  (alpha)    15b2g (alpha) ---     5b2u (alpha)     6b3u (alpha)       -0.1205045851
     7ag  (alpha)     7ag  (beta ) ---     4b1u (alpha)     5b2u (beta )       -0.6591853853
     7ag  (alpha)    11ag  (beta ) ---     4b1u (alpha)     5b2u (beta )        0.1027246024
     7ag  (alpha)     7ag  (beta ) ---     5b2u (alpha)     4b1u (beta )       -0.6591853853
    11ag  (alpha)     7ag  (beta ) ---     5b2u (alpha)     4b1u (beta )        0.1027246024

 =========================================
 Excited-state calculation ( b3u symmetry)
 =========================================
 Dim. of EOMCC iter. space      500

 x1 file size   =               15

 x2 file size   =             2437
 EOMCCSD SOLVER TYPE 1

 No. of initial right vectors    1

 LR-EOMCCSD right-hand side iterations
 --------------------------------------------------------------
      Residuum       Omega / hartree  Omega / eV    Cpu    Wall
 --------------------------------------------------------------

 Iteration   1 using    1 trial vectors
   0.4563989052307   0.1335034098511    3.63281     1.5     1.5

 Iteration   2 using    2 trial vectors
   0.0962369101427   0.0561181048866    1.52705     0.5     0.5

 Iteration   3 using    3 trial vectors
   0.0267771634820   0.0535556618080    1.45732     0.5     0.5

 Iteration   4 using    4 trial vectors
   0.0069482009048   0.0534469331032    1.45437     0.5     0.5

 Iteration   5 using    5 trial vectors
   0.0016801556061   0.0534253674266    1.45378     0.5     0.5

 Iteration   6 using    6 trial vectors
   0.0004854852014   0.0534168258730    1.45355     0.5     0.5

 Iteration   7 using    7 trial vectors
   0.0001465899995   0.0534171626589    1.45356     0.5     0.5

 Iteration   8 using    8 trial vectors
   0.0000386132921   0.0534179909209    1.45358     0.5     0.5

 Iteration   9 using    9 trial vectors
   0.0000102433598   0.0534181249796    1.45358     0.5     0.5

 Iteration  10 using   10 trial vectors
   0.0000024088199   0.0534181182254    1.45358     0.5     0.5

 Iteration  11 using   11 trial vectors
   0.0000006100130   0.0534180935706    1.45358     0.5     0.5
 --------------------------------------------------------------
 Iterations converged
 largest EOMCCSD amplitudes: R1 and R2

 Singles contributions
     7ag  (alpha) ---     6b3u (alpha)        0.9417581911
    11ag  (alpha) ---     6b3u (alpha)       -0.1432243362

 Doubles contributions

 Parallel integral file used       8 records with       0 large values


 Task  times  cpu:       86.7s     wall:       97.2s


                                NWChem Input Module
                                -------------------


 Summary of allocated global arrays
-----------------------------------
  No active global arrays



                         GA Statistics for process    0
                         ------------------------------

       create   destroy   get      put      acc     scatter   gather  read&inc
calls: 4405     4405     1.20e+06 3875     1.10e+05    0        0        0     
number of processes/call 1.06e+00 1.66e+00 1.08e+00 0.00e+00 0.00e+00
bytes total:             2.67e+08 4.94e+06 1.83e+07 0.00e+00 0.00e+00 0.00e+00
bytes remote:            2.16e+08 3.83e+06 1.54e+07 0.00e+00 0.00e+00 0.00e+00
Max memory consumed for GA by this process: 461488 bytes

MA_summarize_allocated_blocks: starting scan ...
MA_summarize_allocated_blocks: scan completed: 0 heap blocks, 0 stack blocks
MA usage statistics:

	allocation statistics:
					      heap	     stack
					      ----	     -----
	current number of blocks	         0	         0
	maximum number of blocks	        18	        39
	current total bytes		         0	         0
	maximum total bytes		   1061768	  22509736
	maximum total K-bytes		      1062	     22510
	maximum total M-bytes		         2	        23


                                     CITATION
                                     --------
                Please cite the following reference when publishing
                           results obtained with NWChem:

                 M. Valiev, E.J. Bylaska, N. Govind, K. Kowalski,
              T.P. Straatsma, H.J.J. van Dam, D. Wang, J. Nieplocha,
                        E. Apra, T.L. Windus, W.A. de Jong
                 "NWChem: a comprehensive and scalable open-source
                  solution for large scale molecular simulations"
                      Comput. Phys. Commun. 181, 1477 (2010)
                           doi:10.1016/j.cpc.2010.04.018

                              AUTHORS & CONTRIBUTORS
                              ----------------------
      E. J. Bylaska, W. A. de Jong, N. Govind, K. Kowalski, T. P. Straatsma,
     M. Valiev, H. J. J. van Dam, D. Wang, E. Apra, T. L. Windus, J. Hammond,
     J. Autschbach, P. Nichols, S. Hirata, M. T. Hackler, Y. Zhao, P.-D. Fan,
      R. J. Harrison, M. Dupuis, D. M. A. Smith, K. Glaesemann, J. Nieplocha,
      V. Tipparaju, M. Krishnan, A. Vazquez-Mayagoitia, L. Jensen, M. Swart,
      Q. Wu, T. Van Voorhis, A. A. Auer, M. Nooijen, L. D. Crosby, E. Brown,
             G. Cisneros, G. I. Fann, H. Fruchtl, J. Garza, K. Hirao,
        R. Kendall, J. A. Nichols, K. Tsemekhman, K. Wolinski, J. Anchell,
       D. Bernholdt, P. Borowski, T. Clark, D. Clerc, H. Dachsel, M. Deegan,
        K. Dyall, D. Elwood, E. Glendening, M. Gutowski, A. Hess, J. Jaffe,
        B. Johnson, J. Ju, R. Kobayashi, R. Kutteh, Z. Lin, R. Littlefield,
    X. Long, B. Meng, T. Nakajima, S. Niu, L. Pollack, M. Rosing, G. Sandrone,
       M. Stave, H. Taylor, G. Thomas, J. H. van Lenthe, A. Wong, Z. Zhang.

 Total times  cpu:       86.7s     wall:       99.2s
