 argument  1 = dft_meta.nw
                                         
                                         


              Northwest Computational Chemistry Package (NWChem) 4.1
              ------------------------------------------------------


                    Environmental Molecular Sciences Laboratory
                       Pacific Northwest National Laboratory
                                Richland, WA 99352

                                         
                                         


                     COPYRIGHT (C) 1994, 1995, 1996, 1997, 1998,
                               1999, 2000, 2001, 2002
                        Pacific Northwest National Laboratory,
                             Battelle Memorial Institute.

                            >>> All Rights Reserved <<<


                                    DISCLAIMER
                                    ----------

            This material was prepared as an account of work sponsored
            by an agency of the United States Government.  Neither the
            United States Government nor the United States Department
            of Energy, nor Battelle, nor any of their employees, MAKES
            ANY WARRANTY, EXPRESS OR IMPLIED, OR ASSUMES ANY LEGAL
            LIABILITY OR RESPONSIBILITY FOR THE ACCURACY, COMPLETENESS,
            OR USEFULNESS OF ANY INFORMATION, APPARATUS, PRODUCT,
            SOFTWARE, OR PROCESS DISCLOSED, OR REPRESENTS THAT ITS USE
            WOULD NOT INFRINGE PRIVATELY OWNED RIGHTS.


                                    LIMITED USE
                                    -----------

            This software (including any documentation) is being made
            available to you for your internal use only, solely for use
            in performance of work directly for the U.S. Federal
            Government or work under contracts with the U.S. Department
            of Energy or other U.S. Federal Government agencies.  This
            software is a version which has not yet been evaluated and
            cleared for commercialization.  Adherence to this notice
            may be necessary for the author, Battelle Memorial
            Institute, to successfully assert copyright in and
            commercialize this software. This software is not intended
            for duplication or distribution to third parties without
            the permission of the Manager of Software Products at
            Pacific Northwest National Laboratory, Richland,
            Washington, 99352.


                                  ACKNOWLEDGMENT
                                  --------------

            This software and its documentation were produced with
            Government support under Contract Number DE-AC06-76RLO-1830
            awarded by the United States Department of Energy.  The
            Government retains a paid-up non-exclusive, irrevocable
            worldwide license to reproduce, prepare derivative works,
            perform publicly and display publicly by or for the
            Government, including the right to distribute to other
            Government contractors.


           Job information
           ---------------

    hostname      = snickers
    program       = /home/pollack/NEW/nwchem/bin/LINUX/nwchem
    date          = Wed Feb 19 12:26:06 2003

    compiled      = Wed Feb 19 09:26:45 PST 2003
    source        = /home/pollack/NEW/nwchem
    nwchem branch = Development
    input         = dft_meta.nw
    prefix        = dft_meta.
    data base     = ./dft_meta.db
    status        = startup
    nproc         =    1
    time left     =     -1s



           Memory information
           ------------------

    heap      =   19660794 doubles =    150.0 Mbytes
    stack     =    6553587 doubles =     50.0 Mbytes
    global    =   26214404 doubles =    200.0 Mbytes (within heap+stack)
    total     =   26214381 doubles =    200.0 Mbytes
    verify    = yes
    hardfail  = no 


           Directory information
           ---------------------

  0 permanent = .
  0 scratch   = .




                                NWChem Input Module
                                -------------------



 Scaling coordinates for geometry "geometry" by  1.889725989
 (inverse scale =  0.529177249)



                             Geometry "geometry" -> ""
                             -------------------------

 Output coordinates in angstroms (scale by  1.889725989 to convert to a.u.)

  No.       Tag          Charge          X              Y              Z
 ---- ---------------- ---------- -------------- -------------- --------------
    1 he                   2.0000     0.00000000     0.58000000     0.00000000
    2 he                   2.0000     0.00000000    -0.58000000     0.00000000

      Atomic Mass 
      ----------- 

      he                 4.002600


 Effective nuclear repulsion energy (a.u.)       1.8247491345

            Nuclear Dipole moment (a.u.) 
            ----------------------------
        X                 Y               Z
 ---------------- ---------------- ----------------
     0.0000000000     0.0000000000     0.0000000000

      Symmetry information
      --------------------

 Group name             C2v       
 Group number             16
 Group order               4
 No. of unique centers     1

      Symmetry unique atoms

     1

 ==============================================================================
                                internuclear distances
 ------------------------------------------------------------------------------
       center one      |      center two      | atomic units |  angstroms
 ------------------------------------------------------------------------------
    2 he               |   1 he               |     2.19208  |     1.16000
 ------------------------------------------------------------------------------
                         number of included internuclear distances:          1
 ==============================================================================



                      Basis "ao basis" -> "" (cartesian)
                      -----
  he (Helium)
  -----------
            Exponent  Coefficients 
       -------------- ---------------------------------------------------------
  1 S  2.21388030E+02  0.002749
  1 S  3.32619660E+01  0.020866
  1 S  7.56165490E+00  0.097059
  1 S  2.08559900E+00  0.280729
  1 S  6.14339200E-01  0.474222

  2 S  1.82921200E-01  1.000000

  3 P  1.83000000E-01  1.000000



 Summary of "ao basis" -> "" (cartesian)
 ------------------------------------------------------------------------------
       Tag                 Description            Shells   Functions and Types
 ---------------- ------------------------------  ------  ---------------------
 he               modified:DZVP (DFT Orbital)        3        5   2s1p


                      Basis "cd basis" -> "" (cartesian)
                      -----
  he (Helium)
  -----------
            Exponent  Coefficients 
       -------------- ---------------------------------------------------------
  1 S  5.40000000E+01  1.000000

  2 S  9.00000000E+00  1.000000

  3 S  3.60000000E-01  1.000000

  4 S  1.80000000E+00  1.000000

  5 P  1.80000000E+00  1.000000

  6 D  1.80000000E+00  1.000000



 Summary of "cd basis" -> "" (cartesian)
 ------------------------------------------------------------------------------
       Tag                 Description            Shells   Functions and Types
 ---------------- ------------------------------  ------  ---------------------
 he               DGauss_A2_DFT_Coulomb_Fitting      6       13   4s1p1d


                                                                                                                          XC pbe96 GGA
                                                                                                                          ------------

  pbe96 is a nonlocal functional; adding pw91lda local functional. 


                           NWChem Geometry Optimization
                           ----------------------------




                                   XC pbe96 GGA


 maximum gradient threshold         (gmax) =   0.000450
 rms gradient threshold             (grms) =   0.000300
 maximum cartesian step threshold   (xmax) =   0.001800
 rms cartesian step threshold       (xrms) =   0.001200
 fixed trust radius                (trust) =   0.300000
 maximum step size to saddle      (sadstp) =   0.100000
 energy precision                  (eprec) =   5.0E-06
 maximum number of steps          (nptopt) =   20
 initial hessian option           (inhess) =    0
 line search option               (linopt) =    1
 hessian update option            (modupd) =    1
 saddle point option              (modsad) =    0
 initial eigen-mode to follow     (moddir) =    0
 initial variable to follow       (vardir) =    0
 follow first negative mode     (firstneg) =    T
 apply conjugacy                    (opcg) =    F
 source of zmatrix                         =           


          -------------------
          Energy Minimization
          -------------------


 Using diagonal initial Hessian 

          --------
          Step   0
          --------


                         Geometry "geometry" -> "geometry"
                         ---------------------------------

 Output coordinates in angstroms (scale by  1.889725989 to convert to a.u.)

  No.       Tag          Charge          X              Y              Z
 ---- ---------------- ---------- -------------- -------------- --------------
    1 he                   2.0000     0.00000000     0.58000000     0.00000000
    2 he                   2.0000     0.00000000    -0.58000000     0.00000000

      Atomic Mass 
      ----------- 

      he                 4.002600


 Effective nuclear repulsion energy (a.u.)       1.8247491345

            Nuclear Dipole moment (a.u.) 
            ----------------------------
        X                 Y               Z
 ---------------- ---------------- ----------------
     0.0000000000     0.0000000000     0.0000000000

      Symmetry information
      --------------------

 Group name             C2v       
 Group number             16
 Group order               4
 No. of unique centers     1

      Symmetry unique atoms

     1

                                 NWChem DFT Module
                                 -----------------


                                   XC pbe96 GGA


  Caching 1-el integrals 

            General Information
            -------------------
          SCF calculation type: DFT
          Wavefunction type:  spin polarized.
          No. of atoms     :     2
          No. of electrons :     3
           Alpha electrons :     2
            Beta electrons :     1
          Charge           :     1
          Spin multiplicity:     2
          Use of symmetry is: on ; symmetry adaption is: on 
          Maximum number of iterations:  30
          AO basis - number of functions:    10
                     number of shells:     6
          A Charge density fitting basis will be used.
          CD basis - number of functions:    26
                     number of shells:    12
          Convergence on energy requested: 1.00E-06
          Convergence on density requested: 1.00E-05
          Convergence on gradient requested: 5.00E-04

              XC Information
              --------------
          PerdewBurkeErnzerhof Exchange Functional  1.000          
            Perdew 1991 LDA Correlation Functional  1.000 local    
           PerdewBurkeErnz. Correlation Functional  1.000 non-local

             Grid Information
             ----------------
          Grid used for XC integration:  lebedev   
          Radial quadrature: Mura-Knowles        
          Angular quadrature: Lebedev. 
          Tag              B.-S. Rad. Rad. Pts. Rad. Cut. Ang. Pts.
          ---              ---------- --------- --------- ---------
          he                  0.35      100           5.0       194
          Grid pruning is: on 
          Number of quadrature shells:   100
          Spatial weights used:  Erf1

          Convergence Information
          -----------------------
          Convergence aids based upon iterative change in 
          total energy or number of iterations. 
          Levelshifting, if invoked, occurs when the 
          HOMO/LUMO gap drops below (HL_TOL): 1.00E-02
          DIIS, if invoked, will attempt to extrapolate 
          using up to (NFOCK): 10 stored Fock matrices.

                    Damping( 0%)  Levelshifting(0.5)       DIIS
                  --------------- ------------------- ---------------
          dE  on:    start            ASAP                start   
          dE off:    2 iters         30 iters            30 iters 


      Screening Tolerance Information
      -------------------------------
          Density screening/tol_rho: 1.00E-10
          AO Gaussian exp screening on grid/accAOfunc:  14
          CD Gaussian exp screening on grid/accCDfunc:  20
          XC Gaussian exp screening on grid/accXCfunc:  20
          Schwarz screening/accCoul: 1.00E-08
          Spatial weight screening/radius(au): 1.27E+01


      Superposition of Atomic Density Guess
      -------------------------------------

 Sum of atomic energies:          -5.72112150

 Renormalizing density from     4.00 to    3

      Non-variational initial energy
      ------------------------------

 Total energy =      -4.625399
 1-e energy   =      -8.548265
 2-e energy   =       2.098116
 HOMO         =      -1.163870
 LUMO         =      -0.036107


   Symmetry analysis of molecular orbitals - initial alpha
   -------------------------------------------------------


 !! scf_movecs_sym_adapt:    2 vectors were symmetry contaminated

  Symmetry fudging

 !! scf_movecs_sym_adapt:    2 vectors were symmetry contaminated

  Numbering of irreducible representations: 

     1 a1          2 a2          3 b1          4 b2      

  Orbital symmetries:

     1 a1          2 b2          3 a1          4 b1          5 a1      
     6 b2          7 a2          8 b2          9 a1         10 b2      


   Symmetry analysis of molecular orbitals - initial beta
   ------------------------------------------------------


 !! scf_movecs_sym_adapt:    2 vectors were symmetry contaminated

  Symmetry fudging

 !! scf_movecs_sym_adapt:    2 vectors were symmetry contaminated

  Numbering of irreducible representations: 

     1 a1          2 a2          3 b1          4 b2      

  Orbital symmetries:

     1 a1          2 b2          3 a1          4 b1          5 a1      
     6 b2          7 a2          8 b2          9 a1         10 b2      


      3 Center 2 Electron Integral Information
      ----------------------------------------
          Maximum number of 3-center 2e- integrals is:           2600.
            This is reduced with Schwarz screening to:           1586.
            Incore requires a per proc buffer size of:           6618.
                  The minimum integral buffer size is:            234.
          Minimum dble words available (all nodes) is:        26211576
                   This is reduced (for later use) to:        26084472
                             Suggested buffer size is:            6618

           0.007 MW buffer allocated for incore 3-center 
          2e- integral storage on stack. 
          The percent of 3c 2e- integrals held in-core is: 100.00

   Time prior to 1st pass:      0.1

 Grid_pts file          = ./dft_meta.gridpts.0
 Record size in doubles =  12289        No. of grid_pts per rec  =   3070
 Max. records in memory =      8        Max. recs in file   =     49629


           Memory utilization after 1st SCF pass: 
           Heap Space remaining (MW):       19.55            19554778
          Stack Space remaining (MW):        6.55             6546728

   convergence    iter        energy       DeltaE   RMS-Dens  Diis-err    time
 ---------------- ----- ----------------- --------- --------- ---------  ------
 d= 0,ls=0.0,diis     1     -4.9967181581 -6.82E+00  3.14E-02  1.86E-02     0.6
                                                     3.12E-03  9.97E-04
 d= 0,ls=0.0,diis     2     -5.0024982777 -5.78E-03  2.59E-03  2.23E-04     0.8
                                                     1.59E-03  3.30E-04
 d= 0,ls=0.0,diis     3     -5.0026661892 -1.68E-04  3.37E-04  1.88E-06     1.0
                                                     5.92E-05  2.18E-07
 d= 0,ls=0.0,diis     4     -5.0026669107 -7.21E-07  8.39E-07  4.40E-11     1.2
                                                     2.51E-07  9.60E-12


         Total DFT energy =     -5.002666910685
      One electron energy =     -8.746066482502
           Coulomb energy =      3.557306584011
          Exchange energy =     -1.581431230843
       Correlation energy =     -0.057224915833
 Nuclear repulsion energy =      1.824749134482

 Numeric. integr. density =      2.999999661166

     Total iterative time =      1.1s



                    DFT Final Alpha Molecular Orbital Analysis
                    ------------------------------------------

 Vector    1  Occ=1.000000E+00  E=-1.370059E+00  Symmetry=a1
              MO Center=  5.4E-22,  1.2E-16,  5.9E-14, r^2= 5.5E-01
   Bfn.  Coefficient  Atom+Function         Bfn.  Coefficient  Atom+Function  
  ----- ------------  ---------------      ----- ------------  ---------------
     6     -0.596442  2 He s                  1     -0.596442  1 He s          

 Vector    2  Occ=1.000000E+00  E=-1.112424E+00  Symmetry=b2
              MO Center=  4.0E-17, -8.2E-17, -5.9E-14, r^2= 6.5E-01
   Bfn.  Coefficient  Atom+Function         Bfn.  Coefficient  Atom+Function  
  ----- ------------  ---------------      ----- ------------  ---------------
     1      0.691953  1 He s                  6     -0.691953  2 He s          
     7     -0.163341  2 He s                  2      0.163341  1 He s          

 Vector    3  Occ=0.000000E+00  E=-1.663761E-01  Symmetry=b1
              MO Center= -5.4E-22,  7.9E-45,  8.0E-56, r^2= 2.1E+00
   Bfn.  Coefficient  Atom+Function         Bfn.  Coefficient  Atom+Function  
  ----- ------------  ---------------      ----- ------------  ---------------
     3      0.551445  1 He px                 8      0.551445  2 He px         

 Vector    4  Occ=0.000000E+00  E=-1.663761E-01  Symmetry=a1
              MO Center=  5.9E-61,  0.0E+00, -1.4E-11, r^2= 2.1E+00
   Bfn.  Coefficient  Atom+Function         Bfn.  Coefficient  Atom+Function  
  ----- ------------  ---------------      ----- ------------  ---------------
     5      0.551445  1 He pz                10      0.551445  2 He pz         

 Vector    5  Occ=0.000000E+00  E=-4.527936E-02  Symmetry=a1
              MO Center=  3.7E-33, -1.3E-16,  1.4E-11, r^2= 3.1E+00
   Bfn.  Coefficient  Atom+Function         Bfn.  Coefficient  Atom+Function  
  ----- ------------  ---------------      ----- ------------  ---------------
     9      0.678900  2 He py                 4     -0.678900  1 He py         
     2     -0.638321  1 He s                  7     -0.638321  2 He s          
     1      0.281261  1 He s                  6      0.281261  2 He s          

 Vector    6  Occ=0.000000E+00  E=-1.315783E-02  Symmetry=b2
              MO Center=  2.5E-17, -3.2E-16, -9.9E-11, r^2= 3.5E+00
   Bfn.  Coefficient  Atom+Function         Bfn.  Coefficient  Atom+Function  
  ----- ------------  ---------------      ----- ------------  ---------------
     9     -1.559352  2 He py                 4     -1.559352  1 He py         
     7     -1.543352  2 He s                  2      1.543352  1 He s          
     6     -0.345677  2 He s                  1      0.345677  1 He s          

 Vector    7  Occ=0.000000E+00  E= 7.869525E-02  Symmetry=a2
              MO Center= -6.4E-17, -1.5E-33, -1.5E-43, r^2= 2.9E+00
   Bfn.  Coefficient  Atom+Function         Bfn.  Coefficient  Atom+Function  
  ----- ------------  ---------------      ----- ------------  ---------------
     3     -1.185520  1 He px                 8      1.185520  2 He px         

 Vector    8  Occ=0.000000E+00  E= 7.869525E-02  Symmetry=b2
              MO Center=  2.6E-53,  0.0E+00,  1.2E-10, r^2= 2.9E+00
   Bfn.  Coefficient  Atom+Function         Bfn.  Coefficient  Atom+Function  
  ----- ------------  ---------------      ----- ------------  ---------------
     5     -1.185520  1 He pz                10      1.185520  2 He pz         

 Vector    9  Occ=0.000000E+00  E= 1.714735E-01  Symmetry=a1
              MO Center= -2.1E-31,  1.0E-18, -2.0E-13, r^2= 1.4E+00
   Bfn.  Coefficient  Atom+Function         Bfn.  Coefficient  Atom+Function  
  ----- ------------  ---------------      ----- ------------  ---------------
     6      0.686708  2 He s                  1      0.686708  1 He s          
     4      0.530517  1 He py                 9     -0.530517  2 He py         
     2     -0.476355  1 He s                  7     -0.476355  2 He s          

 Vector   10  Occ=0.000000E+00  E= 6.149796E-01  Symmetry=b2
              MO Center=  3.2E-34,  7.4E-16, -2.4E-11, r^2= 2.6E+00
   Bfn.  Coefficient  Atom+Function         Bfn.  Coefficient  Atom+Function  
  ----- ------------  ---------------      ----- ------------  ---------------
     2      6.314576  1 He s                  7     -6.314576  2 He s          
     4     -3.110560  1 He py                 9     -3.110560  2 He py         
     1     -0.695934  1 He s                  6      0.695934  2 He s          


                     DFT Final Beta Molecular Orbital Analysis
                     -----------------------------------------

 Vector    1  Occ=1.000000E+00  E=-1.255941E+00  Symmetry=a1
              MO Center= -1.3E-22,  4.3E-16,  4.4E-12, r^2= 5.7E-01
   Bfn.  Coefficient  Atom+Function         Bfn.  Coefficient  Atom+Function  
  ----- ------------  ---------------      ----- ------------  ---------------
     1     -0.567489  1 He s                  6     -0.567489  2 He s          

 Vector    2  Occ=0.000000E+00  E=-9.756141E-01  Symmetry=b2
              MO Center= -3.7E-17, -5.1E-16,  1.2E-10, r^2= 6.9E-01
   Bfn.  Coefficient  Atom+Function         Bfn.  Coefficient  Atom+Function  
  ----- ------------  ---------------      ----- ------------  ---------------
     6      0.665763  2 He s                  1     -0.665763  1 He s          
     7      0.263185  2 He s                  2     -0.263185  1 He s          

 Vector    3  Occ=0.000000E+00  E=-1.496296E-01  Symmetry=a1
              MO Center= -8.6E-24,  1.4E-20,  7.3E-09, r^2= 2.1E+00
   Bfn.  Coefficient  Atom+Function         Bfn.  Coefficient  Atom+Function  
  ----- ------------  ---------------      ----- ------------  ---------------
     5      0.551445  1 He pz                10      0.551445  2 He pz         

 Vector    4  Occ=0.000000E+00  E=-1.496296E-01  Symmetry=b1
              MO Center=  6.7E-17, -2.3E-16,  8.0E-32, r^2= 2.1E+00
   Bfn.  Coefficient  Atom+Function         Bfn.  Coefficient  Atom+Function  
  ----- ------------  ---------------      ----- ------------  ---------------
     8     -0.551445  2 He px                 3     -0.551445  1 He px         

 Vector    5  Occ=0.000000E+00  E=-4.510889E-03  Symmetry=a1
              MO Center= -6.4E-17, -5.1E-17, -9.4E-09, r^2= 3.1E+00
   Bfn.  Coefficient  Atom+Function         Bfn.  Coefficient  Atom+Function  
  ----- ------------  ---------------      ----- ------------  ---------------
     9     -0.704650  2 He py                 4      0.704650  1 He py         
     2      0.613074  1 He s                  7      0.613074  2 He s          
     1     -0.252597  1 He s                  6     -0.252597  2 He s          

 Vector    6  Occ=0.000000E+00  E= 3.330780E-02  Symmetry=b2
              MO Center= -8.3E-17,  2.2E-17,  7.4E-08, r^2= 3.5E+00
   Bfn.  Coefficient  Atom+Function         Bfn.  Coefficient  Atom+Function  
  ----- ------------  ---------------      ----- ------------  ---------------
     2     -1.676402  1 He s                  7      1.676402  2 He s          
     4      1.622220  1 He py                 9      1.622220  2 He py         
     1     -0.350623  1 He s                  6      0.350623  2 He s          

 Vector    7  Occ=0.000000E+00  E= 1.055112E-01  Symmetry=b2
              MO Center= -5.0E-19,  0.0E+00, -8.2E-08, r^2= 2.9E+00
   Bfn.  Coefficient  Atom+Function         Bfn.  Coefficient  Atom+Function  
  ----- ------------  ---------------      ----- ------------  ---------------
     5     -1.185520  1 He pz                10      1.185520  2 He pz         

 Vector    8  Occ=0.000000E+00  E= 1.055112E-01  Symmetry=a2
              MO Center=  1.2E-16,  2.8E-16, -7.5E-28, r^2= 2.9E+00
   Bfn.  Coefficient  Atom+Function         Bfn.  Coefficient  Atom+Function  
  ----- ------------  ---------------      ----- ------------  ---------------
     3      1.185520  1 He px                 8     -1.185520  2 He px         

 Vector    9  Occ=0.000000E+00  E= 2.174789E-01  Symmetry=a1
              MO Center= -3.5E-18,  2.1E-16,  2.2E-09, r^2= 1.3E+00
   Bfn.  Coefficient  Atom+Function         Bfn.  Coefficient  Atom+Function  
  ----- ------------  ---------------      ----- ------------  ---------------
     1     -0.721505  1 He s                  6     -0.721505  2 He s          
     2      0.504404  1 He s                  7      0.504404  2 He s          
     4     -0.495216  1 He py                 9      0.495216  2 He py         

 Vector   10  Occ=0.000000E+00  E= 6.645428E-01  Symmetry=b2
              MO Center= -2.0E-23, -1.1E-15,  7.9E-09, r^2= 2.5E+00
   Bfn.  Coefficient  Atom+Function         Bfn.  Coefficient  Atom+Function  
  ----- ------------  ---------------      ----- ------------  ---------------
     7      6.277172  2 He s                  2     -6.277172  1 He s          
     9      3.078107  2 He py                 4      3.078107  1 He py         
     6     -0.718637  2 He s                  1      0.718637  1 He s          


   alpha - beta orbital overlaps 
   ----------------------------- 


   alpha      1      2      3      4      5      6      7      8      9     10
    beta      1      2      4      3      5      6      8      7      9     10
 overlap   0.999  0.999  1.000  1.000  0.999  0.999  1.000  1.000  0.998  1.000


     --------------------------
     Expectation value of S2:  
     --------------------------
      <S2> =      0.7515 (Exact =     0.7500)


 center of mass
 --------------
 x =   0.00000000 y =   0.00000000 z =   0.00000000

 moments of inertia (a.u.)
 ------------------
           9.616695067604           0.000000000000           0.000000000000
           0.000000000000           0.000000000000           0.000000000000
           0.000000000000           0.000000000000           9.616695067604

     Multipole analysis of the density
     ---------------------------------

     L   x y z        total         alpha         beta         nuclear
     -   - - -        -----         -----         ----         -------
     0   0 0 0      1.000000     -2.000000     -1.000000      4.000000

     1   1 0 0      0.000000      0.000000      0.000000      0.000000
     1   0 1 0      0.000000      0.000000      0.000000      0.000000
     1   0 0 1      0.000000      0.000000      0.000000      0.000000

     2   2 0 0     -0.958810     -0.604017     -0.354794      0.000000
     2   1 1 0      0.000000      0.000000      0.000000      0.000000
     2   1 0 1      0.000000      0.000000      0.000000      0.000000
     2   0 2 0      0.409912     -3.079227     -1.316085      4.805224
     2   0 1 1      0.000000      0.000000      0.000000      0.000000
     2   0 0 2     -0.958810     -0.604017     -0.354794      0.000000

  int_init: cando_txs set to always be  F
  intd_init: cando_txs set to always be  F


                            NWChem DFT Gradient Module
                            --------------------------


                                   XC pbe96 GGA



  charge          =   1.00
  wavefunction    = open shell

  Using symmetry


                         DFT ENERGY GRADIENTS

    atom               coordinates                        gradient
                 x          y          z           x          y          z
   1 he      0.000000   1.096041   0.000000    0.000000  -0.014729   0.000000
   2 he      0.000000  -1.096041   0.000000    0.000000   0.014729   0.000000

                 ----------------------------------------
                 |  Time  |  1-e(secs)   |  2-e(secs)   |
                 ----------------------------------------
                 |  CPU   |       0.00   |       0.00   |
                 ----------------------------------------
                 |  WALL  |       0.00   |       0.00   |
                 ----------------------------------------

@ Step       Energy      Delta E   Gmax     Grms     Xrms     Xmax   Walltime
@ ---- ---------------- -------- -------- -------- -------- -------- --------
@    0      -5.00266691  0.0E+00  0.01473  0.00850  0.00000  0.00000      1.6
                                                       ok       ok  

                                 NWChem DFT Module
                                 -----------------


                                   XC pbe96 GGA


  Caching 1-el integrals 

            General Information
            -------------------
          SCF calculation type: DFT
          Wavefunction type:  spin polarized.
          No. of atoms     :     2
          No. of electrons :     3
           Alpha electrons :     2
            Beta electrons :     1
          Charge           :     1
          Spin multiplicity:     2
          Use of symmetry is: on ; symmetry adaption is: on 
          Maximum number of iterations:  30
          AO basis - number of functions:    10
                     number of shells:     6
          A Charge density fitting basis will be used.
          CD basis - number of functions:    26
                     number of shells:    12
          Convergence on energy requested: 1.00E-06
          Convergence on density requested: 1.00E-05
          Convergence on gradient requested: 5.00E-04

              XC Information
              --------------
          PerdewBurkeErnzerhof Exchange Functional  1.000          
            Perdew 1991 LDA Correlation Functional  1.000 local    
           PerdewBurkeErnz. Correlation Functional  1.000 non-local

             Grid Information
             ----------------
          Grid used for XC integration:  lebedev   
          Radial quadrature: Mura-Knowles        
          Angular quadrature: Lebedev. 
          Tag              B.-S. Rad. Rad. Pts. Rad. Cut. Ang. Pts.
          ---              ---------- --------- --------- ---------
          he                  0.35      100           5.0       194
          Grid pruning is: on 
          Number of quadrature shells:   100
          Spatial weights used:  Erf1

          Convergence Information
          -----------------------
          Convergence aids based upon iterative change in 
          total energy or number of iterations. 
          Levelshifting, if invoked, occurs when the 
          HOMO/LUMO gap drops below (HL_TOL): 1.00E-02
          DIIS, if invoked, will attempt to extrapolate 
          using up to (NFOCK): 10 stored Fock matrices.

                    Damping( 0%)  Levelshifting(0.5)       DIIS
                  --------------- ------------------- ---------------
          dE  on:    start            ASAP                start   
          dE off:    2 iters         30 iters            30 iters 


      Screening Tolerance Information
      -------------------------------
          Density screening/tol_rho: 1.00E-10
          AO Gaussian exp screening on grid/accAOfunc:  14
          CD Gaussian exp screening on grid/accCDfunc:  20
          XC Gaussian exp screening on grid/accXCfunc:  20
          Schwarz screening/accCoul: 1.00E-08
          Spatial weight screening/radius(au): 1.28E+01


 Loading old vectors from job with title :

XC pbe96 GGA


   Symmetry analysis of molecular orbitals - initial alpha
   -------------------------------------------------------

  Numbering of irreducible representations: 

     1 a1          2 a2          3 b1          4 b2      

  Orbital symmetries:

     1 a1          2 b2          3 b1          4 a1          5 a1      
     6 b2          7 a2          8 b2          9 a1         10 b2      


   Symmetry analysis of molecular orbitals - initial beta
   ------------------------------------------------------

  Numbering of irreducible representations: 

     1 a1          2 a2          3 b1          4 b2      

  Orbital symmetries:

     1 a1          2 b2          3 a1          4 b1          5 a1      
     6 b2          7 b2          8 a2          9 a1         10 b2      


      3 Center 2 Electron Integral Information
      ----------------------------------------
          Maximum number of 3-center 2e- integrals is:           2600.
            This is reduced with Schwarz screening to:           1586.
            Incore requires a per proc buffer size of:           6618.
                  The minimum integral buffer size is:            234.
          Minimum dble words available (all nodes) is:        26211576
                   This is reduced (for later use) to:        26076712
                             Suggested buffer size is:            6618

           0.007 MW buffer allocated for incore 3-center 
          2e- integral storage on stack. 
          The percent of 3c 2e- integrals held in-core is: 100.00

   Time prior to 1st pass:      1.5

 Grid_pts file          = ./dft_meta.gridpts.0
 Record size in doubles =  12289        No. of grid_pts per rec  =   3070
 Max. records in memory =      8        Max. recs in file   =     49619


           Memory utilization after 1st SCF pass: 
           Heap Space remaining (MW):       19.55            19554778
          Stack Space remaining (MW):        6.55             6546728

   convergence    iter        energy       DeltaE   RMS-Dens  Diis-err    time
 ---------------- ----- ----------------- --------- --------- ---------  ------
 d= 0,ls=0.0,diis     1     -5.0032456302 -6.78E+00  1.85E-03  9.28E-05     2.0
                                                     7.98E-04  6.11E-05
 d= 0,ls=0.0,diis     2     -5.0032994743 -5.38E-05  2.22E-04  1.23E-06     2.2
                                                     1.88E-05  3.78E-08
 d= 0,ls=0.0,diis     3     -5.0032998686 -3.94E-07  1.47E-05  8.21E-09     2.5
                                                     1.28E-05  1.95E-08
 d= 0,ls=0.0,diis     4     -5.0032998772 -8.61E-09  1.53E-06  5.36E-11     2.7
                                                     3.08E-07  5.51E-12


         Total DFT energy =     -5.003299877212
      One electron energy =     -8.673674120727
           Coulomb energy =      3.527263783658
          Exchange energy =     -1.577052063563
       Correlation energy =     -0.056826086187
 Nuclear repulsion energy =      1.776988609607

 Numeric. integr. density =      2.999999573099

     Total iterative time =      1.2s



                    DFT Final Alpha Molecular Orbital Analysis
                    ------------------------------------------

 Vector    1  Occ=1.000000E+00  E=-1.357221E+00  Symmetry=a1
              MO Center=  2.8E-31,  6.8E-16,  3.3E-11, r^2= 5.7E-01
   Bfn.  Coefficient  Atom+Function         Bfn.  Coefficient  Atom+Function  
  ----- ------------  ---------------      ----- ------------  ---------------
     1     -0.597160  1 He s                  6     -0.597160  2 He s          

 Vector    2  Occ=1.000000E+00  E=-1.119770E+00  Symmetry=b2
              MO Center=  1.1E-25, -6.3E-16, -6.5E-11, r^2= 6.7E-01
   Bfn.  Coefficient  Atom+Function         Bfn.  Coefficient  Atom+Function  
  ----- ------------  ---------------      ----- ------------  ---------------
     6      0.688479  2 He s                  1     -0.688479  1 He s          
     7      0.153165  2 He s                  2     -0.153165  1 He s          

 Vector    3  Occ=0.000000E+00  E=-1.648328E-01  Symmetry=b1
              MO Center= -2.8E-31,  2.1E-63, -3.6E-47, r^2= 2.1E+00
   Bfn.  Coefficient  Atom+Function         Bfn.  Coefficient  Atom+Function  
  ----- ------------  ---------------      ----- ------------  ---------------
     3     -0.554019  1 He px                 8     -0.554019  2 He px         

 Vector    4  Occ=0.000000E+00  E=-1.648328E-01  Symmetry=a1
              MO Center= -2.4E-66,  0.0E+00, -1.9E-09, r^2= 2.1E+00
   Bfn.  Coefficient  Atom+Function         Bfn.  Coefficient  Atom+Function  
  ----- ------------  ---------------      ----- ------------  ---------------
     5      0.554019  1 He pz                10      0.554019  2 He pz         

 Vector    5  Occ=0.000000E+00  E=-4.237839E-02  Symmetry=a1
              MO Center=  4.0E-33, -6.7E-16,  1.1E-09, r^2= 3.2E+00
   Bfn.  Coefficient  Atom+Function         Bfn.  Coefficient  Atom+Function  
  ----- ------------  ---------------      ----- ------------  ---------------
     9      0.680723  2 He py                 4     -0.680723  1 He py         
     2     -0.625847  1 He s                  7     -0.625847  2 He s          
     6      0.268714  2 He s                  1      0.268714  1 He s          

 Vector    6  Occ=0.000000E+00  E=-1.272109E-02  Symmetry=b2
              MO Center=  4.2E-24,  1.4E-15, -1.2E-09, r^2= 3.5E+00
   Bfn.  Coefficient  Atom+Function         Bfn.  Coefficient  Atom+Function  
  ----- ------------  ---------------      ----- ------------  ---------------
     4      1.502036  1 He py                 9      1.502036  2 He py         
     7      1.372000  2 He s                  2     -1.372000  1 He s          
     6      0.344035  2 He s                  1     -0.344035  1 He s          

 Vector    7  Occ=0.000000E+00  E= 7.629532E-02  Symmetry=a2
              MO Center= -2.4E-18,  2.8E-16,  5.3E-27, r^2= 2.9E+00
   Bfn.  Coefficient  Atom+Function         Bfn.  Coefficient  Atom+Function  
  ----- ------------  ---------------      ----- ------------  ---------------
     3      1.160902  1 He px                 8     -1.160902  2 He px         

 Vector    8  Occ=0.000000E+00  E= 7.629532E-02  Symmetry=b2
              MO Center=  2.4E-18,  0.0E+00,  1.1E-09, r^2= 2.9E+00
   Bfn.  Coefficient  Atom+Function         Bfn.  Coefficient  Atom+Function  
  ----- ------------  ---------------      ----- ------------  ---------------
     5     -1.160902  1 He pz                10      1.160902  2 He pz         

 Vector    9  Occ=0.000000E+00  E= 1.618886E-01  Symmetry=a1
              MO Center=  1.1E-31, -7.7E-17,  7.2E-10, r^2= 1.3E+00
   Bfn.  Coefficient  Atom+Function         Bfn.  Coefficient  Atom+Function  
  ----- ------------  ---------------      ----- ------------  ---------------
     1     -0.691094  1 He s                  6     -0.691094  2 He s          
     9      0.496246  2 He py                 4     -0.496246  1 He py         
     7      0.496143  2 He s                  2      0.496143  1 He s          

 Vector   10  Occ=0.000000E+00  E= 6.142456E-01  Symmetry=b2
              MO Center= -2.2E-30,  5.5E-16,  1.0E-10, r^2= 2.6E+00
   Bfn.  Coefficient  Atom+Function         Bfn.  Coefficient  Atom+Function  
  ----- ------------  ---------------      ----- ------------  ---------------
     2     -5.856412  1 He s                  7      5.856412  2 He s          
     4      2.959940  1 He py                 9      2.959940  2 He py         
     1      0.697061  1 He s                  6     -0.697061  2 He s          


                     DFT Final Beta Molecular Orbital Analysis
                     -----------------------------------------

 Vector    1  Occ=1.000000E+00  E=-1.242995E+00  Symmetry=a1
              MO Center=  5.8E-22, -2.3E-16,  7.0E-11, r^2= 5.9E-01
   Bfn.  Coefficient  Atom+Function         Bfn.  Coefficient  Atom+Function  
  ----- ------------  ---------------      ----- ------------  ---------------
     6      0.567675  2 He s                  1      0.567675  1 He s          

 Vector    2  Occ=0.000000E+00  E=-9.836577E-01  Symmetry=b2
              MO Center= -1.6E-17,  2.5E-16,  4.7E-11, r^2= 7.0E-01
   Bfn.  Coefficient  Atom+Function         Bfn.  Coefficient  Atom+Function  
  ----- ------------  ---------------      ----- ------------  ---------------
     1     -0.662470  1 He s                  6      0.662470  2 He s          
     7      0.247496  2 He s                  2     -0.247496  1 He s          

 Vector    3  Occ=0.000000E+00  E=-1.483931E-01  Symmetry=a1
              MO Center= -9.8E-22,  0.0E+00,  5.4E-09, r^2= 2.1E+00
   Bfn.  Coefficient  Atom+Function         Bfn.  Coefficient  Atom+Function  
  ----- ------------  ---------------      ----- ------------  ---------------
     5     -0.554019  1 He pz                10     -0.554019  2 He pz         

 Vector    4  Occ=0.000000E+00  E=-1.483931E-01  Symmetry=b1
              MO Center=  8.6E-17,  9.8E-17,  1.5E-29, r^2= 2.1E+00
   Bfn.  Coefficient  Atom+Function         Bfn.  Coefficient  Atom+Function  
  ----- ------------  ---------------      ----- ------------  ---------------
     3     -0.554019  1 He px                 8     -0.554019  2 He px         

 Vector    5  Occ=0.000000E+00  E=-3.278083E-03  Symmetry=a1
              MO Center= -8.5E-17, -4.3E-18, -5.9E-09, r^2= 3.2E+00
   Bfn.  Coefficient  Atom+Function         Bfn.  Coefficient  Atom+Function  
  ----- ------------  ---------------      ----- ------------  ---------------
     4     -0.706641  1 He py                 9      0.706641  2 He py         
     7     -0.597498  2 He s                  2     -0.597498  1 He s          
     6      0.236481  2 He s                  1      0.236481  1 He s          

 Vector    6  Occ=0.000000E+00  E= 3.234717E-02  Symmetry=b2
              MO Center= -5.6E-16, -2.8E-16,  4.3E-08, r^2= 3.5E+00
   Bfn.  Coefficient  Atom+Function         Bfn.  Coefficient  Atom+Function  
  ----- ------------  ---------------      ----- ------------  ---------------
     4      1.562860  1 He py                 9      1.562860  2 He py         
     2     -1.497556  1 He s                  7      1.497556  2 He s          
     6      0.348395  2 He s                  1     -0.348395  1 He s          

 Vector    7  Occ=0.000000E+00  E= 1.022580E-01  Symmetry=b2
              MO Center=  1.1E-18,  0.0E+00, -4.6E-08, r^2= 2.9E+00
   Bfn.  Coefficient  Atom+Function         Bfn.  Coefficient  Atom+Function  
  ----- ------------  ---------------      ----- ------------  ---------------
     5     -1.160902  1 He pz                10      1.160902  2 He pz         

 Vector    8  Occ=0.000000E+00  E= 1.022580E-01  Symmetry=a2
              MO Center=  5.8E-16, -4.3E-22,  1.3E-26, r^2= 2.9E+00
   Bfn.  Coefficient  Atom+Function         Bfn.  Coefficient  Atom+Function  
  ----- ------------  ---------------      ----- ------------  ---------------
     3      1.160902  1 He px                 8     -1.160902  2 He px         

 Vector    9  Occ=0.000000E+00  E= 2.086401E-01  Symmetry=a1
              MO Center= -8.4E-19, -3.1E-16,  3.5E-10, r^2= 1.3E+00
   Bfn.  Coefficient  Atom+Function         Bfn.  Coefficient  Atom+Function  
  ----- ------------  ---------------      ----- ------------  ---------------
     6     -0.726800  2 He s                  1     -0.726800  1 He s          
     7      0.525806  2 He s                  2      0.525806  1 He s          
     9      0.457977  2 He py                 4     -0.457977  1 He py         

 Vector   10  Occ=0.000000E+00  E= 6.630282E-01  Symmetry=b2
              MO Center=  2.4E-22,  6.2E-16,  2.5E-09, r^2= 2.5E+00
   Bfn.  Coefficient  Atom+Function         Bfn.  Coefficient  Atom+Function  
  ----- ------------  ---------------      ----- ------------  ---------------
     2     -5.822326  1 He s                  7      5.822326  2 He s          
     4      2.928174  1 He py                 9      2.928174  2 He py         
     1      0.719731  1 He s                  6     -0.719731  2 He s          


   alpha - beta orbital overlaps 
   ----------------------------- 


   alpha      1      2      3      4      5      6      7      8      9     10
    beta      1      2      4      3      5      6      8      7      9     10
 overlap   0.999  0.999  1.000  1.000  0.999  0.999  1.000  1.000  0.998  1.000


     --------------------------
     Expectation value of S2:  
     --------------------------
      <S2> =      0.7515 (Exact =     0.7500)


 center of mass
 --------------
 x =   0.00000000 y =   0.00000000 z =   0.00000000

 moments of inertia (a.u.)
 ------------------
          10.140582204561           0.000000000000           0.000000000000
           0.000000000000           0.000000000000           0.000000000000
           0.000000000000           0.000000000000          10.140582204561

     Multipole analysis of the density
     ---------------------------------

     L   x y z        total         alpha         beta         nuclear
     -   - - -        -----         -----         ----         -------
     0   0 0 0      1.000000     -2.000000     -1.000000      4.000000

     1   1 0 0      0.000000      0.000000      0.000000      0.000000
     1   0 1 0      0.000000      0.000000      0.000000      0.000000
     1   0 0 1      0.000000      0.000000      0.000000      0.000000

     2   2 0 0     -0.964364     -0.606160     -0.358204      0.000000
     2   1 1 0      0.000000      0.000000      0.000000      0.000000
     2   1 0 1      0.000000      0.000000      0.000000      0.000000
     2   0 2 0      0.487469     -3.199698     -1.379831      5.066998
     2   0 1 1      0.000000      0.000000      0.000000      0.000000
     2   0 0 2     -0.964364     -0.606160     -0.358204      0.000000

 Line search: 
     step= 1.00 grad=-8.7E-04 hess= 2.3E-04 energy=     -5.003300 mode=downhill
 new step= 1.85                   predicted energy=     -5.003469

          --------
          Step   1
          --------


                         Geometry "geometry" -> "geometry"
                         ---------------------------------

 Output coordinates in angstroms (scale by  1.889725989 to convert to a.u.)

  No.       Tag          Charge          X              Y              Z
 ---- ---------------- ---------- -------------- -------------- --------------
    1 he                   2.0000     0.00000000     0.60880273     0.00000000
    2 he                   2.0000     0.00000000    -0.60880273     0.00000000

      Atomic Mass 
      ----------- 

      he                 4.002600


 Effective nuclear repulsion energy (a.u.)       1.7384194318

            Nuclear Dipole moment (a.u.) 
            ----------------------------
        X                 Y               Z
 ---------------- ---------------- ----------------
     0.0000000000     0.0000000000     0.0000000000

      Symmetry information
      --------------------

 Group name             C2v       
 Group number             16
 Group order               4
 No. of unique centers     1

      Symmetry unique atoms

     1

                                 NWChem DFT Module
                                 -----------------


                                   XC pbe96 GGA


  Caching 1-el integrals 

            General Information
            -------------------
          SCF calculation type: DFT
          Wavefunction type:  spin polarized.
          No. of atoms     :     2
          No. of electrons :     3
           Alpha electrons :     2
            Beta electrons :     1
          Charge           :     1
          Spin multiplicity:     2
          Use of symmetry is: on ; symmetry adaption is: on 
          Maximum number of iterations:  30
          AO basis - number of functions:    10
                     number of shells:     6
          A Charge density fitting basis will be used.
          CD basis - number of functions:    26
                     number of shells:    12
          Convergence on energy requested: 1.00E-06
          Convergence on density requested: 1.00E-05
          Convergence on gradient requested: 5.00E-04

              XC Information
              --------------
          PerdewBurkeErnzerhof Exchange Functional  1.000          
            Perdew 1991 LDA Correlation Functional  1.000 local    
           PerdewBurkeErnz. Correlation Functional  1.000 non-local

             Grid Information
             ----------------
          Grid used for XC integration:  lebedev   
          Radial quadrature: Mura-Knowles        
          Angular quadrature: Lebedev. 
          Tag              B.-S. Rad. Rad. Pts. Rad. Cut. Ang. Pts.
          ---              ---------- --------- --------- ---------
          he                  0.35      100           5.0       194
          Grid pruning is: on 
          Number of quadrature shells:   100
          Spatial weights used:  Erf1

          Convergence Information
          -----------------------
          Convergence aids based upon iterative change in 
          total energy or number of iterations. 
          Levelshifting, if invoked, occurs when the 
          HOMO/LUMO gap drops below (HL_TOL): 1.00E-02
          DIIS, if invoked, will attempt to extrapolate 
          using up to (NFOCK): 10 stored Fock matrices.

                    Damping( 0%)  Levelshifting(0.5)       DIIS
                  --------------- ------------------- ---------------
          dE  on:    start            ASAP                start   
          dE off:    2 iters         30 iters            30 iters 


      Screening Tolerance Information
      -------------------------------
          Density screening/tol_rho: 1.00E-10
          AO Gaussian exp screening on grid/accAOfunc:  14
          CD Gaussian exp screening on grid/accCDfunc:  20
          XC Gaussian exp screening on grid/accXCfunc:  20
          Schwarz screening/accCoul: 1.00E-08
          Spatial weight screening/radius(au): 1.29E+01


 Loading old vectors from job with title :

XC pbe96 GGA


   Symmetry analysis of molecular orbitals - initial alpha
   -------------------------------------------------------

  Numbering of irreducible representations: 

     1 a1          2 a2          3 b1          4 b2      

  Orbital symmetries:

     1 a1          2 b2          3 b1          4 a1          5 a1      
     6 b2          7 a2          8 b2          9 a1         10 b2      


   Symmetry analysis of molecular orbitals - initial beta
   ------------------------------------------------------

  Numbering of irreducible representations: 

     1 a1          2 a2          3 b1          4 b2      

  Orbital symmetries:

     1 a1          2 b2          3 a1          4 b1          5 a1      
     6 b2          7 b2          8 a2          9 a1         10 b2      


      3 Center 2 Electron Integral Information
      ----------------------------------------
          Maximum number of 3-center 2e- integrals is:           2600.
            This is reduced with Schwarz screening to:           1586.
            Incore requires a per proc buffer size of:           6618.
                  The minimum integral buffer size is:            234.
          Minimum dble words available (all nodes) is:        26211576
                   This is reduced (for later use) to:        26076712
                             Suggested buffer size is:            6618

           0.007 MW buffer allocated for incore 3-center 
          2e- integral storage on stack. 
          The percent of 3c 2e- integrals held in-core is: 100.00

   Time prior to 1st pass:      2.8

 Grid_pts file          = ./dft_meta.gridpts.0
 Record size in doubles =  12289        No. of grid_pts per rec  =   3070
 Max. records in memory =      8        Max. recs in file   =     49619


           Memory utilization after 1st SCF pass: 
           Heap Space remaining (MW):       19.55            19554778
          Stack Space remaining (MW):        6.55             6546728

   convergence    iter        energy       DeltaE   RMS-Dens  Diis-err    time
 ---------------- ----- ----------------- --------- --------- ---------  ------
 d= 0,ls=0.0,diis     1     -5.0034812140 -6.74E+00  1.31E-03  5.45E-05     3.2
                                                     6.33E-04  3.78E-05
 d= 0,ls=0.0,diis     2     -5.0035135927 -3.24E-05  1.71E-04  8.09E-07     3.5
                                                     1.90E-05  3.82E-08
 d= 0,ls=0.0,diis     3     -5.0035138545 -2.62E-07  1.12E-05  5.18E-09     3.7
                                                     1.03E-05  1.24E-08
 d= 0,ls=0.0,diis     4     -5.0035138600 -5.48E-09  1.11E-06  3.01E-11     3.9
                                                     2.60E-07  4.06E-12


         Total DFT energy =     -5.003513860016
      One electron energy =     -8.614650904004
           Coulomb energy =      3.502866353541
          Exchange energy =     -1.573643539777
       Correlation energy =     -0.056505201600
 Nuclear repulsion energy =      1.738419431823

 Numeric. integr. density =      2.999999599210

     Total iterative time =      1.1s



                    DFT Final Alpha Molecular Orbital Analysis
                    ------------------------------------------

 Vector    1  Occ=1.000000E+00  E=-1.346957E+00  Symmetry=a1
              MO Center= -4.8E-31, -1.3E-16,  2.8E-11, r^2= 5.9E-01
   Bfn.  Coefficient  Atom+Function         Bfn.  Coefficient  Atom+Function  
  ----- ------------  ---------------      ----- ------------  ---------------
     6      0.597808  2 He s                  1      0.597808  1 He s          

 Vector    2  Occ=1.000000E+00  E=-1.125365E+00  Symmetry=b2
              MO Center= -2.0E-25,  4.6E-17, -5.2E-11, r^2= 6.8E-01
   Bfn.  Coefficient  Atom+Function         Bfn.  Coefficient  Atom+Function  
  ----- ------------  ---------------      ----- ------------  ---------------
     6      0.685691  2 He s                  1     -0.685691  1 He s          

 Vector    3  Occ=0.000000E+00  E=-1.634963E-01  Symmetry=b1
              MO Center=  4.7E-31,  5.8E-63, -6.6E-47, r^2= 2.1E+00
   Bfn.  Coefficient  Atom+Function         Bfn.  Coefficient  Atom+Function  
  ----- ------------  ---------------      ----- ------------  ---------------
     3      0.556235  1 He px                 8      0.556235  2 He px         

 Vector    4  Occ=0.000000E+00  E=-1.634963E-01  Symmetry=a1
              MO Center= -5.9E-63,  0.0E+00, -1.3E-09, r^2= 2.1E+00
   Bfn.  Coefficient  Atom+Function         Bfn.  Coefficient  Atom+Function  
  ----- ------------  ---------------      ----- ------------  ---------------
     5      0.556235  1 He pz                10      0.556235  2 He pz         

 Vector    5  Occ=0.000000E+00  E=-4.018377E-02  Symmetry=a1
              MO Center= -1.6E-34,  5.5E-17,  6.8E-10, r^2= 3.2E+00
   Bfn.  Coefficient  Atom+Function         Bfn.  Coefficient  Atom+Function  
  ----- ------------  ---------------      ----- ------------  ---------------
     4     -0.682510  1 He py                 9      0.682510  2 He py         
     7     -0.614062  2 He s                  2     -0.614062  1 He s          
     1      0.256993  1 He s                  6      0.256993  2 He s          

 Vector    6  Occ=0.000000E+00  E=-1.229493E-02  Symmetry=b2
              MO Center= -5.6E-24,  3.2E-16, -2.4E-10, r^2= 3.5E+00
   Bfn.  Coefficient  Atom+Function         Bfn.  Coefficient  Atom+Function  
  ----- ------------  ---------------      ----- ------------  ---------------
     4     -1.457344  1 He py                 9     -1.457344  2 He py         
     2      1.241391  1 He s                  7     -1.241391  2 He s          
     6     -0.342766  2 He s                  1      0.342766  1 He s          

 Vector    7  Occ=0.000000E+00  E= 7.425654E-02  Symmetry=a2
              MO Center=  1.8E-19,  4.1E-16,  2.0E-28, r^2= 2.9E+00
   Bfn.  Coefficient  Atom+Function         Bfn.  Coefficient  Atom+Function  
  ----- ------------  ---------------      ----- ------------  ---------------
     3     -1.141159  1 He px                 8      1.141159  2 He px         

 Vector    8  Occ=0.000000E+00  E= 7.425654E-02  Symmetry=b2
              MO Center= -1.8E-19, -5.4E-20,  1.6E-10, r^2= 2.9E+00
   Bfn.  Coefficient  Atom+Function         Bfn.  Coefficient  Atom+Function  
  ----- ------------  ---------------      ----- ------------  ---------------
     5      1.141159  1 He pz                10     -1.141159  2 He pz         

 Vector    9  Occ=0.000000E+00  E= 1.537191E-01  Symmetry=a1
              MO Center= -1.0E-31,  1.2E-16,  6.3E-10, r^2= 1.3E+00
   Bfn.  Coefficient  Atom+Function         Bfn.  Coefficient  Atom+Function  
  ----- ------------  ---------------      ----- ------------  ---------------
     1     -0.694566  1 He s                  6     -0.694566  2 He s          
     2      0.513400  1 He s                  7      0.513400  2 He s          
     9      0.467269  2 He py                 4     -0.467269  1 He py         

 Vector   10  Occ=0.000000E+00  E= 6.134875E-01  Symmetry=b2
              MO Center=  3.0E-30, -2.2E-16,  1.4E-10, r^2= 2.6E+00
   Bfn.  Coefficient  Atom+Function         Bfn.  Coefficient  Atom+Function  
  ----- ------------  ---------------      ----- ------------  ---------------
     7      5.503561  2 He s                  2     -5.503561  1 He s          
     4      2.840427  1 He py                 9      2.840427  2 He py         
     1      0.698145  1 He s                  6     -0.698145  2 He s          


                     DFT Final Beta Molecular Orbital Analysis
                     -----------------------------------------

 Vector    1  Occ=1.000000E+00  E=-1.232647E+00  Symmetry=a1
              MO Center=  1.8E-23,  8.1E-17,  5.9E-11, r^2= 6.0E-01
   Bfn.  Coefficient  Atom+Function         Bfn.  Coefficient  Atom+Function  
  ----- ------------  ---------------      ----- ------------  ---------------
     1     -0.567927  1 He s                  6     -0.567927  2 He s          

 Vector    2  Occ=0.000000E+00  E=-9.898529E-01  Symmetry=b2
              MO Center= -1.5E-17, -2.6E-17,  2.4E-11, r^2= 7.1E-01
   Bfn.  Coefficient  Atom+Function         Bfn.  Coefficient  Atom+Function  
  ----- ------------  ---------------      ----- ------------  ---------------
     1      0.659813  1 He s                  6     -0.659813  2 He s          
     7     -0.236115  2 He s                  2      0.236115  1 He s          

 Vector    3  Occ=0.000000E+00  E=-1.472754E-01  Symmetry=a1
              MO Center= -3.2E-21,  0.0E+00,  3.6E-09, r^2= 2.1E+00
   Bfn.  Coefficient  Atom+Function         Bfn.  Coefficient  Atom+Function  
  ----- ------------  ---------------      ----- ------------  ---------------
     5     -0.556235  1 He pz                10     -0.556235  2 He pz         

 Vector    4  Occ=0.000000E+00  E=-1.472754E-01  Symmetry=b1
              MO Center= -4.9E-17, -2.1E-16, -4.4E-29, r^2= 2.1E+00
   Bfn.  Coefficient  Atom+Function         Bfn.  Coefficient  Atom+Function  
  ----- ------------  ---------------      ----- ------------  ---------------
     8      0.556235  2 He px                 3      0.556235  1 He px         

 Vector    5  Occ=0.000000E+00  E=-2.486820E-03  Symmetry=a1
              MO Center=  4.9E-17, -7.1E-19, -3.6E-09, r^2= 3.2E+00
   Bfn.  Coefficient  Atom+Function         Bfn.  Coefficient  Atom+Function  
  ----- ------------  ---------------      ----- ------------  ---------------
     4      0.708218  1 He py                 9     -0.708218  2 He py         
     7      0.583100  2 He s                  2      0.583100  1 He s          
     6     -0.221877  2 He s                  1     -0.221877  1 He s          

 Vector    6  Occ=0.000000E+00  E= 3.166060E-02  Symmetry=b2
              MO Center=  1.0E-16, -3.4E-16,  2.8E-08, r^2= 3.5E+00
   Bfn.  Coefficient  Atom+Function         Bfn.  Coefficient  Atom+Function  
  ----- ------------  ---------------      ----- ------------  ---------------
     9      1.516572  2 He py                 4      1.516572  1 He py         
     7      1.361200  2 He s                  2     -1.361200  1 He s          
     6      0.346628  2 He s                  1     -0.346628  1 He s          

 Vector    7  Occ=0.000000E+00  E= 9.957240E-02  Symmetry=b2
              MO Center=  2.6E-18,  0.0E+00, -2.9E-08, r^2= 2.9E+00
   Bfn.  Coefficient  Atom+Function         Bfn.  Coefficient  Atom+Function  
  ----- ------------  ---------------      ----- ------------  ---------------
     5      1.141159  1 He pz                10     -1.141159  2 He pz         

 Vector    8  Occ=0.000000E+00  E= 9.957241E-02  Symmetry=a2
              MO Center= -9.0E-17, -6.3E-21, -8.0E-27, r^2= 2.9E+00
   Bfn.  Coefficient  Atom+Function         Bfn.  Coefficient  Atom+Function  
  ----- ------------  ---------------      ----- ------------  ---------------
     3      1.141159  1 He px                 8     -1.141159  2 He px         

 Vector    9  Occ=0.000000E+00  E= 2.011150E-01  Symmetry=a1
              MO Center= -1.6E-20,  1.6E-16, -1.1E-11, r^2= 1.3E+00
   Bfn.  Coefficient  Atom+Function         Bfn.  Coefficient  Atom+Function  
  ----- ------------  ---------------      ----- ------------  ---------------
     1      0.730801  1 He s                  6      0.730801  2 He s          
     2     -0.544102  1 He s                  7     -0.544102  2 He s          
     4      0.426673  1 He py                 9     -0.426673  2 He py         

 Vector   10  Occ=0.000000E+00  E= 6.616771E-01  Symmetry=b2
              MO Center=  8.1E-23,  1.4E-16,  1.2E-09, r^2= 2.5E+00
   Bfn.  Coefficient  Atom+Function         Bfn.  Coefficient  Atom+Function  
  ----- ------------  ---------------      ----- ------------  ---------------
     2      5.472014  1 He s                  7     -5.472014  2 He s          
     4     -2.809162  1 He py                 9     -2.809162  2 He py         
     6      0.720807  2 He s                  1     -0.720807  1 He s          


   alpha - beta orbital overlaps 
   ----------------------------- 


   alpha      1      2      3      4      5      6      7      8      9     10
    beta      1      2      4      3      5      6      8      7      9     10
 overlap   0.999  0.999  1.000  1.000  0.998  0.999  1.000  1.000  0.998  1.000


     --------------------------
     Expectation value of S2:  
     --------------------------
      <S2> =      0.7516 (Exact =     0.7500)


 center of mass
 --------------
 x =   0.00000000 y =   0.00000000 z =   0.00000000

 moments of inertia (a.u.)
 ------------------
          10.595538707354           0.000000000000           0.000000000000
           0.000000000000           0.000000000000           0.000000000000
           0.000000000000           0.000000000000          10.595538707354

     Multipole analysis of the density
     ---------------------------------

     L   x y z        total         alpha         beta         nuclear
     -   - - -        -----         -----         ----         -------
     0   0 0 0      1.000000     -2.000000     -1.000000      4.000000

     1   1 0 0      0.000000      0.000000      0.000000      0.000000
     1   0 1 0      0.000000      0.000000      0.000000      0.000000
     1   0 0 1      0.000000      0.000000      0.000000      0.000000

     2   2 0 0     -0.968735     -0.607920     -0.360815      0.000000
     2   1 1 0      0.000000      0.000000      0.000000      0.000000
     2   1 0 1      0.000000      0.000000      0.000000      0.000000
     2   0 2 0      0.553806     -3.305106     -1.435416      5.294328
     2   0 1 1      0.000000      0.000000      0.000000      0.000000
     2   0 0 2     -0.968735     -0.607920     -0.360815      0.000000

  int_init: cando_txs set to always be  F
  intd_init: cando_txs set to always be  F


                            NWChem DFT Gradient Module
                            --------------------------


                                   XC pbe96 GGA



  charge          =   1.00
  wavefunction    = open shell

  Using symmetry


                         DFT ENERGY GRADIENTS

    atom               coordinates                        gradient
                 x          y          z           x          y          z
   1 he      0.000000   1.150470   0.000000    0.000000  -0.001707   0.000000
   2 he      0.000000  -1.150470   0.000000    0.000000   0.001707   0.000000

                 ----------------------------------------
                 |  Time  |  1-e(secs)   |  2-e(secs)   |
                 ----------------------------------------
                 |  CPU   |       0.00   |       0.00   |
                 ----------------------------------------
                 |  WALL  |       0.00   |       0.00   |
                 ----------------------------------------

  Step       Energy      Delta E   Gmax     Grms     Xrms     Xmax   Walltime
  ---- ---------------- -------- -------- -------- -------- -------- --------
@    1      -5.00351386 -8.5E-04  0.00171  0.00099  0.03142  0.05443      4.4
                                                                    

                                 NWChem DFT Module
                                 -----------------


                                   XC pbe96 GGA


  Caching 1-el integrals 

            General Information
            -------------------
          SCF calculation type: DFT
          Wavefunction type:  spin polarized.
          No. of atoms     :     2
          No. of electrons :     3
           Alpha electrons :     2
            Beta electrons :     1
          Charge           :     1
          Spin multiplicity:     2
          Use of symmetry is: on ; symmetry adaption is: on 
          Maximum number of iterations:  30
          AO basis - number of functions:    10
                     number of shells:     6
          A Charge density fitting basis will be used.
          CD basis - number of functions:    26
                     number of shells:    12
          Convergence on energy requested: 1.00E-06
          Convergence on density requested: 1.00E-05
          Convergence on gradient requested: 5.00E-04

              XC Information
              --------------
          PerdewBurkeErnzerhof Exchange Functional  1.000          
            Perdew 1991 LDA Correlation Functional  1.000 local    
           PerdewBurkeErnz. Correlation Functional  1.000 non-local

             Grid Information
             ----------------
          Grid used for XC integration:  lebedev   
          Radial quadrature: Mura-Knowles        
          Angular quadrature: Lebedev. 
          Tag              B.-S. Rad. Rad. Pts. Rad. Cut. Ang. Pts.
          ---              ---------- --------- --------- ---------
          he                  0.35      100           5.0       194
          Grid pruning is: on 
          Number of quadrature shells:   100
          Spatial weights used:  Erf1

          Convergence Information
          -----------------------
          Convergence aids based upon iterative change in 
          total energy or number of iterations. 
          Levelshifting, if invoked, occurs when the 
          HOMO/LUMO gap drops below (HL_TOL): 1.00E-02
          DIIS, if invoked, will attempt to extrapolate 
          using up to (NFOCK): 10 stored Fock matrices.

                    Damping( 0%)  Levelshifting(0.5)       DIIS
                  --------------- ------------------- ---------------
          dE  on:    start            ASAP                start   
          dE off:    2 iters         30 iters            30 iters 


      Screening Tolerance Information
      -------------------------------
          Density screening/tol_rho: 1.00E-10
          AO Gaussian exp screening on grid/accAOfunc:  14
          CD Gaussian exp screening on grid/accCDfunc:  20
          XC Gaussian exp screening on grid/accXCfunc:  20
          Schwarz screening/accCoul: 1.00E-08
          Spatial weight screening/radius(au): 1.29E+01


 Loading old vectors from job with title :

XC pbe96 GGA


   Symmetry analysis of molecular orbitals - initial alpha
   -------------------------------------------------------

  Numbering of irreducible representations: 

     1 a1          2 a2          3 b1          4 b2      

  Orbital symmetries:

     1 a1          2 b2          3 b1          4 a1          5 a1      
     6 b2          7 a2          8 b2          9 a1         10 b2      


   Symmetry analysis of molecular orbitals - initial beta
   ------------------------------------------------------

  Numbering of irreducible representations: 

     1 a1          2 a2          3 b1          4 b2      

  Orbital symmetries:

     1 a1          2 b2          3 a1          4 b1          5 a1      
     6 b2          7 b2          8 a2          9 a1         10 b2      


      3 Center 2 Electron Integral Information
      ----------------------------------------
          Maximum number of 3-center 2e- integrals is:           2600.
            This is reduced with Schwarz screening to:           1586.
            Incore requires a per proc buffer size of:           6618.
                  The minimum integral buffer size is:            234.
          Minimum dble words available (all nodes) is:        26211576
                   This is reduced (for later use) to:        26076712
                             Suggested buffer size is:            6618

           0.007 MW buffer allocated for incore 3-center 
          2e- integral storage on stack. 
          The percent of 3c 2e- integrals held in-core is: 100.00

   Time prior to 1st pass:      4.2

 Grid_pts file          = ./dft_meta.gridpts.0
 Record size in doubles =  12289        No. of grid_pts per rec  =   3070
 Max. records in memory =      8        Max. recs in file   =     49619


           Memory utilization after 1st SCF pass: 
           Heap Space remaining (MW):       19.55            19554778
          Stack Space remaining (MW):        6.55             6546728

   convergence    iter        energy       DeltaE   RMS-Dens  Diis-err    time
 ---------------- ----- ----------------- --------- --------- ---------  ------
 d= 0,ls=0.0,diis     1     -5.0035261577 -6.73E+00  3.36E-04  3.94E-06     4.7
                                                     1.74E-04  2.83E-06
 d= 0,ls=0.0,diis     2     -5.0035285323 -2.37E-06  4.69E-05  6.27E-08     4.9
                                                     5.88E-06  3.66E-09
 d= 0,ls=0.0,diis     3     -5.0035285527 -2.04E-08  3.04E-06  3.88E-10     5.2
                                                     2.82E-06  9.30E-10


         Total DFT energy =     -5.003528552698
      One electron energy =     -8.598183281791
           Coulomb energy =      3.496096958796
          Exchange energy =     -1.572732092031
       Correlation energy =     -0.056416618737
 Nuclear repulsion energy =      1.727706481066

 Numeric. integr. density =      2.999999625921

     Total iterative time =      0.9s



                    DFT Final Alpha Molecular Orbital Analysis
                    ------------------------------------------

 Vector    1  Occ=1.000000E+00  E=-1.344122E+00  Symmetry=a1
              MO Center=  4.2E-30, -9.8E-17,  2.7E-11, r^2= 5.9E-01
   Bfn.  Coefficient  Atom+Function         Bfn.  Coefficient  Atom+Function  
  ----- ------------  ---------------      ----- ------------  ---------------
     6      0.597998  2 He s                  1      0.597998  1 He s          

 Vector    2  Occ=1.000000E+00  E=-1.126861E+00  Symmetry=b2
              MO Center= -2.6E-25,  1.3E-16, -4.9E-11, r^2= 6.8E-01
   Bfn.  Coefficient  Atom+Function         Bfn.  Coefficient  Atom+Function  
  ----- ------------  ---------------      ----- ------------  ---------------
     6      0.684920  2 He s                  1     -0.684920  1 He s          

 Vector    3  Occ=0.000000E+00  E=-1.631101E-01  Symmetry=b1
              MO Center= -4.2E-30,  4.6E-61, -1.2E-45, r^2= 2.1E+00
   Bfn.  Coefficient  Atom+Function         Bfn.  Coefficient  Atom+Function  
  ----- ------------  ---------------      ----- ------------  ---------------
     3      0.556873  1 He px                 8      0.556873  2 He px         

 Vector    4  Occ=0.000000E+00  E=-1.631101E-01  Symmetry=a1
              MO Center=  6.0E-65,  0.0E+00, -1.2E-09, r^2= 2.1E+00
   Bfn.  Coefficient  Atom+Function         Bfn.  Coefficient  Atom+Function  
  ----- ------------  ---------------      ----- ------------  ---------------
     5     -0.556873  1 He pz                10     -0.556873  2 He pz         

 Vector    5  Occ=0.000000E+00  E=-3.960195E-02  Symmetry=a1
              MO Center=  1.6E-33, -5.7E-16,  6.2E-10, r^2= 3.2E+00
   Bfn.  Coefficient  Atom+Function         Bfn.  Coefficient  Atom+Function  
  ----- ------------  ---------------      ----- ------------  ---------------
     9     -0.683063  2 He py                 4      0.683063  1 He py         
     2      0.610467  1 He s                  7      0.610467  2 He s          
     6     -0.253442  2 He s                  1     -0.253442  1 He s          

 Vector    6  Occ=0.000000E+00  E=-1.216448E-02  Symmetry=b2
              MO Center= -2.3E-23,  3.0E-17, -2.2E-10, r^2= 3.5E+00
   Bfn.  Coefficient  Atom+Function         Bfn.  Coefficient  Atom+Function  
  ----- ------------  ---------------      ----- ------------  ---------------
     4      1.445177  1 He py                 9      1.445177  2 He py         
     2     -1.206306  1 He s                  7      1.206306  2 He s          
     6      0.342422  2 He s                  1     -0.342422  1 He s          

 Vector    7  Occ=0.000000E+00  E= 7.367393E-02  Symmetry=a2
              MO Center=  1.1E-19,  1.8E-20,  7.8E-29, r^2= 2.9E+00
   Bfn.  Coefficient  Atom+Function         Bfn.  Coefficient  Atom+Function  
  ----- ------------  ---------------      ----- ------------  ---------------
     3     -1.135699  1 He px                 8      1.135699  2 He px         

 Vector    8  Occ=0.000000E+00  E= 7.367393E-02  Symmetry=b2
              MO Center= -1.1E-19,  5.4E-20,  1.5E-10, r^2= 2.9E+00
   Bfn.  Coefficient  Atom+Function         Bfn.  Coefficient  Atom+Function  
  ----- ------------  ---------------      ----- ------------  ---------------
     5      1.135699  1 He pz                10     -1.135699  2 He pz         

 Vector    9  Occ=0.000000E+00  E= 1.513881E-01  Symmetry=a1
              MO Center= -1.2E-31,  1.3E-16,  6.0E-10, r^2= 1.3E+00
   Bfn.  Coefficient  Atom+Function         Bfn.  Coefficient  Atom+Function  
  ----- ------------  ---------------      ----- ------------  ---------------
     1     -0.695524  1 He s                  6     -0.695524  2 He s          
     7      0.518423  2 He s                  2      0.518423  1 He s          
     9      0.458974  2 He py                 4     -0.458974  1 He py         

 Vector   10  Occ=0.000000E+00  E= 6.132441E-01  Symmetry=b2
              MO Center=  1.2E-29,  8.7E-16,  1.2E-10, r^2= 2.6E+00
   Bfn.  Coefficient  Atom+Function         Bfn.  Coefficient  Atom+Function  
  ----- ------------  ---------------      ----- ------------  ---------------
     2     -5.408231  1 He s                  7      5.408231  2 He s          
     9      2.807566  2 He py                 4      2.807566  1 He py         
     1      0.698471  1 He s                  6     -0.698471  2 He s          


                     DFT Final Beta Molecular Orbital Analysis
                     -----------------------------------------

 Vector    1  Occ=1.000000E+00  E=-1.229790E+00  Symmetry=a1
              MO Center= -1.8E-22,  3.0E-17,  5.4E-11, r^2= 6.1E-01
   Bfn.  Coefficient  Atom+Function         Bfn.  Coefficient  Atom+Function  
  ----- ------------  ---------------      ----- ------------  ---------------
     6      0.568014  2 He s                  1      0.568014  1 He s          

 Vector    2  Occ=0.000000E+00  E=-9.915235E-01  Symmetry=b2
              MO Center=  3.1E-17, -4.8E-17, -7.2E-12, r^2= 7.2E-01
   Bfn.  Coefficient  Atom+Function         Bfn.  Coefficient  Atom+Function  
  ----- ------------  ---------------      ----- ------------  ---------------
     1      0.659077  1 He s                  6     -0.659077  2 He s          
     7     -0.233145  2 He s                  2      0.233145  1 He s          

 Vector    3  Occ=0.000000E+00  E=-1.469443E-01  Symmetry=a1
              MO Center= -2.4E-22,  1.4E-20,  1.5E-09, r^2= 2.1E+00
   Bfn.  Coefficient  Atom+Function         Bfn.  Coefficient  Atom+Function  
  ----- ------------  ---------------      ----- ------------  ---------------
     5     -0.556873  1 He pz                10     -0.556873  2 He pz         

 Vector    4  Occ=0.000000E+00  E=-1.469443E-01  Symmetry=b1
              MO Center=  4.8E-18, -6.9E-17,  7.6E-31, r^2= 2.1E+00
   Bfn.  Coefficient  Atom+Function         Bfn.  Coefficient  Atom+Function  
  ----- ------------  ---------------      ----- ------------  ---------------
     8     -0.556873  2 He px                 3     -0.556873  1 He px         

 Vector    5  Occ=0.000000E+00  E=-2.303554E-03  Symmetry=a1
              MO Center= -5.6E-18,  7.4E-17, -1.1E-09, r^2= 3.2E+00
   Bfn.  Coefficient  Atom+Function         Bfn.  Coefficient  Atom+Function  
  ----- ------------  ---------------      ----- ------------  ---------------
     4     -0.708647  1 He py                 9      0.708647  2 He py         
     2     -0.578769  1 He s                  7     -0.578769  2 He s          
     6      0.217536  2 He s                  1      0.217536  1 He s          

 Vector    6  Occ=0.000000E+00  E= 3.148507E-02  Symmetry=b2
              MO Center= -3.8E-16, -2.6E-16,  6.1E-09, r^2= 3.5E+00
   Bfn.  Coefficient  Atom+Function         Bfn.  Coefficient  Atom+Function  
  ----- ------------  ---------------      ----- ------------  ---------------
     4     -1.503970  1 He py                 9     -1.503970  2 He py         
     2      1.324563  1 He s                  7     -1.324563  2 He s          
     6     -0.346142  2 He s                  1      0.346142  1 He s          

 Vector    7  Occ=0.000000E+00  E= 9.881758E-02  Symmetry=b2
              MO Center= -2.5E-17,  0.0E+00, -5.1E-09, r^2= 2.9E+00
   Bfn.  Coefficient  Atom+Function         Bfn.  Coefficient  Atom+Function  
  ----- ------------  ---------------      ----- ------------  ---------------
     5      1.135699  1 He pz                10     -1.135699  2 He pz         

 Vector    8  Occ=0.000000E+00  E= 9.881758E-02  Symmetry=a2
              MO Center=  3.8E-16,  2.8E-16, -1.8E-24, r^2= 2.9E+00
   Bfn.  Coefficient  Atom+Function         Bfn.  Coefficient  Atom+Function  
  ----- ------------  ---------------      ----- ------------  ---------------
     3     -1.135699  1 He px                 8      1.135699  2 He px         

 Vector    9  Occ=0.000000E+00  E= 1.989700E-01  Symmetry=a1
              MO Center=  8.0E-19, -1.6E-16, -5.1E-10, r^2= 1.3E+00
   Bfn.  Coefficient  Atom+Function         Bfn.  Coefficient  Atom+Function  
  ----- ------------  ---------------      ----- ------------  ---------------
     1      0.731865  1 He s                  6      0.731865  2 He s          
     7     -0.549358  2 He s                  2     -0.549358  1 He s          
[...]


                                                                                                                        X pkzb99 meta-GGA
                                                                                                                        -----------------

                                 NWChem DFT Module
                                 -----------------


                                 X pkzb99 meta-GGA


  Caching 1-el integrals 

            General Information
            -------------------
          SCF calculation type: DFT
          Wavefunction type:  spin polarized.
          No. of atoms     :     2
          No. of electrons :     3
           Alpha electrons :     2
            Beta electrons :     1
          Charge           :     1
          Spin multiplicity:     2
          Use of symmetry is: on ; symmetry adaption is: on 
          Maximum number of iterations:   1
          AO basis - number of functions:    10
                     number of shells:     6
          A Charge density fitting basis will be used.
          CD basis - number of functions:    26
                     number of shells:    12
          Convergence on energy requested: 1.00E-06
          Convergence on density requested: 1.00E-05
          Convergence on gradient requested: 5.00E-04

              XC Information
              --------------
                  PKZB metaGGA Exchange Functional  1.000          
  WARNING: Sum of local correlation is   0.
  Sum of components do not equal unity. 

             Grid Information
             ----------------
          Grid used for XC integration:  lebedev   
          Radial quadrature: Mura-Knowles        
          Angular quadrature: Lebedev. 
          Tag              B.-S. Rad. Rad. Pts. Rad. Cut. Ang. Pts.
          ---              ---------- --------- --------- ---------
          he                  0.35      100           5.0       194
          Grid pruning is: on 
          Number of quadrature shells:   100
          Spatial weights used:  Erf1

          Convergence Information
          -----------------------
          Convergence aids based upon iterative change in 
          total energy or number of iterations. 
          Levelshifting, if invoked, occurs when the 
          HOMO/LUMO gap drops below (HL_TOL): 1.00E-02
          DIIS, if invoked, will attempt to extrapolate 
          using up to (NFOCK): 10 stored Fock matrices.

                    Damping( 0%)  Levelshifting(0.5)       DIIS
                  --------------- ------------------- ---------------
          dE  on:    start            ASAP                start   
          dE off:    2 iters         30 iters            30 iters 


      Screening Tolerance Information
      -------------------------------
          Density screening/tol_rho: 1.00E-10
          AO Gaussian exp screening on grid/accAOfunc:  14
          CD Gaussian exp screening on grid/accCDfunc:  20
          XC Gaussian exp screening on grid/accXCfunc:  20
          Schwarz screening/accCoul: 1.00E-08
          Spatial weight screening/radius(au): 1.29E+01


 Loading old vectors from job with title :

XC pbe96 GGA


   Symmetry analysis of molecular orbitals - initial alpha
   -------------------------------------------------------

  Numbering of irreducible representations: 

     1 a1          2 a2          3 b1          4 b2      

  Orbital symmetries:

     1 a1          2 b2          3 b1          4 a1          5 a1      
     6 b2          7 a2          8 b2          9 a1         10 b2      


   Symmetry analysis of molecular orbitals - initial beta
   ------------------------------------------------------

  Numbering of irreducible representations: 

     1 a1          2 a2          3 b1          4 b2      

  Orbital symmetries:

     1 a1          2 b2          3 a1          4 b1          5 a1      
     6 b2          7 b2          8 a2          9 a1         10 b2      


      3 Center 2 Electron Integral Information
      ----------------------------------------
          Maximum number of 3-center 2e- integrals is:           2600.
            This is reduced with Schwarz screening to:           1586.
            Incore requires a per proc buffer size of:           6618.
                  The minimum integral buffer size is:            234.
          Minimum dble words available (all nodes) is:        26211592
                   This is reduced (for later use) to:        26076728
                             Suggested buffer size is:            6618

           0.007 MW buffer allocated for incore 3-center 
          2e- integral storage on stack. 
          The percent of 3c 2e- integrals held in-core is: 100.00

   Time prior to 1st pass:      7.5

 Grid_pts file          = ./dft_meta.gridpts.0
 Record size in doubles =  12289        No. of grid_pts per rec  =   3070
 Max. records in memory =      8        Max. recs in file   =     49619


 !! scf_movecs_sym_adapt:    4 vectors were symmetry contaminated

  Symmetry fudging

           Memory utilization after 1st SCF pass: 
           Heap Space remaining (MW):       19.55            19554794
          Stack Space remaining (MW):        6.55             6546728

   convergence    iter        energy       DeltaE   RMS-Dens  Diis-err    time
 ---------------- ----- ----------------- --------- --------- ---------  ------
 d= 0,ls=0.0,diis     1     -4.9554303490 -6.68E+00  8.86E-02  2.76E-01     7.9
                                                     3.31E-02  9.53E-02

      Calculation failed to converge
      ------------------------------



         Total DFT energy =     -4.955430348967
      One electron energy =     -8.593557136945
           Coulomb energy =      3.494173539241
          Exchange energy =     -1.580756895230
       Correlation energy =      0.000000000000
 Nuclear repulsion energy =      1.724710143967

 Numeric. integr. density =      2.999999635184

     Total iterative time =      0.4s



                    DFT Final Alpha Molecular Orbital Analysis
                    ------------------------------------------

 Vector    1  Occ=1.000000E+00  E=-6.826582E-01  Symmetry=a1
              MO Center=  2.3E-28, -1.2E-17, -3.3E-12, r^2= 7.7E-01
   Bfn.  Coefficient  Atom+Function         Bfn.  Coefficient  Atom+Function  
  ----- ------------  ---------------      ----- ------------  ---------------
     1      0.421500  1 He s                  6      0.421500  2 He s          
     7      0.242196  2 He s                  2      0.242196  1 He s          

 Vector    2  Occ=1.000000E+00  E=-4.210637E-01  Symmetry=b2
              MO Center=  4.0E-27,  1.6E-16, -2.0E-12, r^2= 1.1E+00
   Bfn.  Coefficient  Atom+Function         Bfn.  Coefficient  Atom+Function  
  ----- ------------  ---------------      ----- ------------  ---------------
     2     -0.507723  1 He s                  7      0.507723  2 He s          
     1     -0.486491  1 He s                  6      0.486491  2 He s          

 Vector    3  Occ=0.000000E+00  E= 7.327986E-03  Symmetry=a1
              MO Center= -1.0E-68,  0.0E+00,  2.8E-13, r^2= 2.1E+00
   Bfn.  Coefficient  Atom+Function         Bfn.  Coefficient  Atom+Function  
  ----- ------------  ---------------      ----- ------------  ---------------
     5     -0.557053  1 He pz                10     -0.557053  2 He pz         

 Vector    4  Occ=0.000000E+00  E= 7.327986E-03  Symmetry=b1
              MO Center= -2.3E-28,  1.0E-57,  4.9E-46, r^2= 2.1E+00
   Bfn.  Coefficient  Atom+Function         Bfn.  Coefficient  Atom+Function  
  ----- ------------  ---------------      ----- ------------  ---------------
     3      0.557053  1 He px                 8      0.557053  2 He px         

 Vector    5  Occ=0.000000E+00  E= 1.468152E-01  Symmetry=a1
              MO Center=  1.6E-32, -1.9E-16, -1.9E-12, r^2= 3.1E+00
   Bfn.  Coefficient  Atom+Function         Bfn.  Coefficient  Atom+Function  
  ----- ------------  ---------------      ----- ------------  ---------------
     4     -0.757455  1 He py                 9      0.757455  2 He py         
     7     -0.491137  2 He s                  2     -0.491137  1 He s          
     1      0.159313  1 He s                  6      0.159313  2 He s          

 Vector    6  Occ=0.000000E+00  E= 1.962263E-01  Symmetry=b2
              MO Center=  6.0E-26, -1.1E-15,  3.3E-12, r^2= 3.6E+00
   Bfn.  Coefficient  Atom+Function         Bfn.  Coefficient  Atom+Function  
  ----- ------------  ---------------      ----- ------------  ---------------
     2     -2.335174  1 He s                  7      2.335174  2 He s          
     9      1.977539  2 He py                 4      1.977539  1 He py         
     6      0.323639  2 He s                  1     -0.323639  1 He s          

 Vector    7  Occ=0.000000E+00  E= 2.266720E-01  Symmetry=b2
              MO Center=  1.6E-44,  0.0E+00, -3.2E-12, r^2= 2.9E+00
   Bfn.  Coefficient  Atom+Function         Bfn.  Coefficient  Atom+Function  
  ----- ------------  ---------------      ----- ------------  ---------------
     5     -1.134173  1 He pz                10      1.134173  2 He pz         

 Vector    8  Occ=0.000000E+00  E= 2.266720E-01  Symmetry=a2
              MO Center= -6.4E-26, -4.8E-33, -1.5E-44, r^2= 2.9E+00
   Bfn.  Coefficient  Atom+Function         Bfn.  Coefficient  Atom+Function  
  ----- ------------  ---------------      ----- ------------  ---------------
     3     -1.134173  1 He px                 8      1.134173  2 He px         

 Vector    9  Occ=0.000000E+00  E= 5.768735E-01  Symmetry=a1
              MO Center=  7.0E-49, -5.6E-16,  5.0E-12, r^2= 1.2E+00
   Bfn.  Coefficient  Atom+Function         Bfn.  Coefficient  Atom+Function  
  ----- ------------  ---------------      ----- ------------  ---------------
     6      0.838133  2 He s                  1      0.838133  1 He s          
     7     -0.589503  2 He s                  2     -0.589503  1 He s          
     9     -0.317967  2 He py                 4      0.317967  1 He py         

 Vector   10  Occ=0.000000E+00  E= 9.498730E-01  Symmetry=b2
              MO Center=  5.4E-34,  5.8E-16,  1.9E-12, r^2= 2.1E+00
   Bfn.  Coefficient  Atom+Function         Bfn.  Coefficient  Atom+Function  
  ----- ------------  ---------------      ----- ------------  ---------------
     2      4.970428  1 He s                  7     -4.970428  2 He s          
     9     -2.449284  2 He py                 4     -2.449284  1 He py         
     1     -0.855911  1 He s                  6      0.855911  2 He s          


                     DFT Final Beta Molecular Orbital Analysis
                     -----------------------------------------

 Vector    1  Occ=1.000000E+00  E=-6.826582E-01  Symmetry=a1
              MO Center=  1.2E-19,  5.4E-17, -3.3E-12, r^2= 7.7E-01
   Bfn.  Coefficient  Atom+Function         Bfn.  Coefficient  Atom+Function  
  ----- ------------  ---------------      ----- ------------  ---------------
     1     -0.421500  1 He s                  6     -0.421500  2 He s          
     7     -0.242196  2 He s                  2     -0.242196  1 He s          

 Vector    2  Occ=0.000000E+00  E=-4.210637E-01  Symmetry=b2
              MO Center=  2.8E-17, -2.1E-16, -2.0E-12, r^2= 1.1E+00
   Bfn.  Coefficient  Atom+Function         Bfn.  Coefficient  Atom+Function  
  ----- ------------  ---------------      ----- ------------  ---------------
     7     -0.507723  2 He s                  2      0.507723  1 He s          
     1      0.486491  1 He s                  6     -0.486491  2 He s          

 Vector    3  Occ=0.000000E+00  E= 7.327986E-03  Symmetry=a1
              MO Center= -7.1E-22,  0.0E+00,  2.8E-13, r^2= 2.1E+00
   Bfn.  Coefficient  Atom+Function         Bfn.  Coefficient  Atom+Function  
  ----- ------------  ---------------      ----- ------------  ---------------
     5     -0.557053  1 He pz                10     -0.557053  2 He pz         

 Vector    4  Occ=0.000000E+00  E= 7.327986E-03  Symmetry=b1
              MO Center=  8.0E-18,  3.1E-16,  2.0E-26, r^2= 2.1E+00
   Bfn.  Coefficient  Atom+Function         Bfn.  Coefficient  Atom+Function  
  ----- ------------  ---------------      ----- ------------  ---------------
     3      0.557053  1 He px                 8      0.557053  2 He px         

 Vector    5  Occ=0.000000E+00  E= 1.468152E-01  Symmetry=a1
              MO Center= -8.6E-18, -1.1E-15, -1.9E-12, r^2= 3.1E+00
   Bfn.  Coefficient  Atom+Function         Bfn.  Coefficient  Atom+Function  
  ----- ------------  ---------------      ----- ------------  ---------------
     9      0.757455  2 He py                 4     -0.757455  1 He py         
     2     -0.491137  1 He s                  7     -0.491137  2 He s          
     6      0.159313  2 He s                  1      0.159313  1 He s          

 Vector    6  Occ=0.000000E+00  E= 1.962263E-01  Symmetry=b2
              MO Center= -1.1E-16,  1.5E-15,  3.3E-12, r^2= 3.6E+00
   Bfn.  Coefficient  Atom+Function         Bfn.  Coefficient  Atom+Function  
  ----- ------------  ---------------      ----- ------------  ---------------
     7      2.335174  2 He s                  2     -2.335174  1 He s          
     4      1.977539  1 He py                 9      1.977539  2 He py         
     1     -0.323639  1 He s                  6      0.323639  2 He s          

 Vector    7  Occ=0.000000E+00  E= 2.266720E-01  Symmetry=b2
              MO Center= -7.9E-44,  0.0E+00, -3.2E-12, r^2= 2.9E+00
   Bfn.  Coefficient  Atom+Function         Bfn.  Coefficient  Atom+Function  
  ----- ------------  ---------------      ----- ------------  ---------------
     5      1.134173  1 He pz                10     -1.134173  2 He pz         

 Vector    8  Occ=0.000000E+00  E= 2.266720E-01  Symmetry=a2
              MO Center=  8.4E-17, -5.6E-16,  7.0E-40, r^2= 2.9E+00
   Bfn.  Coefficient  Atom+Function         Bfn.  Coefficient  Atom+Function  
  ----- ------------  ---------------      ----- ------------  ---------------
     8     -1.134173  2 He px                 3      1.134173  1 He px         

 Vector    9  Occ=0.000000E+00  E= 5.768735E-01  Symmetry=a1
              MO Center=  4.3E-19,  4.6E-16,  5.0E-12, r^2= 1.2E+00
   Bfn.  Coefficient  Atom+Function         Bfn.  Coefficient  Atom+Function  
  ----- ------------  ---------------      ----- ------------  ---------------
     1     -0.838133  1 He s                  6     -0.838133  2 He s          
     2      0.589503  1 He s                  7      0.589503  2 He s          
     4     -0.317967  1 He py                 9      0.317967  2 He py         

 Vector   10  Occ=0.000000E+00  E= 9.498730E-01  Symmetry=b2
              MO Center= -1.4E-32, -9.4E-16,  1.9E-12, r^2= 2.1E+00
   Bfn.  Coefficient  Atom+Function         Bfn.  Coefficient  Atom+Function  
  ----- ------------  ---------------      ----- ------------  ---------------
     7      4.970428  2 He s                  2     -4.970428  1 He s          
     4      2.449284  1 He py                 9      2.449284  2 He py         
     6     -0.855911  2 He s                  1      0.855911  1 He s          


   alpha - beta orbital overlaps 
   ----------------------------- 


   alpha      1      2      3      4      5      6      7      8      9     10
    beta      1      2      3      4      5      6      7      8      9     10
 overlap   1.000  1.000  1.000  1.000  1.000  1.000  1.000  1.000  1.000  1.000


     --------------------------
     Expectation value of S2:  
     --------------------------
      <S2> =      0.7500 (Exact =     0.7500)


 center of mass
 --------------
 x =   0.00000000 y =   0.00000000 z =   0.00000000

 moments of inertia (a.u.)
 ------------------
          10.764650714384           0.000000000000           0.000000000000
           0.000000000000           0.000000000000           0.000000000000
           0.000000000000           0.000000000000          10.764650714384

     Multipole analysis of the density
     ---------------------------------

     L   x y z        total         alpha         beta         nuclear
     -   - - -        -----         -----         ----         -------
     0   0 0 0      1.000000     -2.000000     -1.000000      4.000000

     1   1 0 0      0.000000      0.000000      0.000000      0.000000
     1   0 1 0      0.000000      0.000000      0.000000      0.000000
     1   0 0 1      0.000000      0.000000      0.000000      0.000000

     2   2 0 0     -1.749939     -1.161508     -0.588431      0.000000
     2   1 1 0      0.000000      0.000000      0.000000      0.000000
     2   1 0 1      0.000000      0.000000      0.000000      0.000000
     2   0 2 0     -0.431568     -4.252202     -1.558196      5.378829
     2   0 1 1      0.000000      0.000000      0.000000      0.000000
     2   0 0 2     -1.749939     -1.161508     -0.588431      0.000000

  !! warning: dft energy failed

 Task  times  cpu:        0.5s     wall:        0.5s


                                NWChem Input Module
                                -------------------


 Summary of allocated global arrays
-----------------------------------
  No active global arrays



                         GA Statistics for process    0
                         ------------------------------

       create   destroy   get      put      acc     scatter   gather  read&inc
calls: 1390     1390     2.30e+04 1.05e+04 7026        8        0        0     
number of processes/call 1.00e+00 1.00e+00 1.00e+00 1.00e+00 0.00e+00
bytes total:             4.20e+06 1.55e+06 2.15e+06 9.60e+01 0.00e+00 0.00e+00
bytes remote:            0.00e+00 0.00e+00 0.00e+00 0.00e+00 0.00e+00 0.00e+00
Max memory consumed for GA by this process: 50208 bytes

MA_summarize_allocated_blocks: starting scan ...
MA_summarize_allocated_blocks: scan completed: 0 heap blocks, 0 stack blocks
MA usage statistics:

	allocation statistics:
					      heap	     stack
					      ----	     -----
	current number of blocks	         0	         0
	maximum number of blocks	        88	        51
	current total bytes		         0	         0
	maximum total bytes		    853316	 188746716
	maximum total K-bytes		       854	    188747
	maximum total M-bytes		         1	       189



                                  ACKNOWLEDGEMENT
                                  ---------------

            Please use the following acknowledgement where appropriate 
            for results obtained with NWChem:

            High Performance Computational Chemistry Group, "NWChem, A
            Computational Chemistry Package for Parallel Computers, 
            Version 4.1" (2002), Pacific Northwest National Laboratory,
            Richland, Washington 99352-0999, USA.


                                     CITATION
                                     --------

            Please use the following citation when publishing results
            obtained with NWChem:

            R. J. Harrison, J. A. Nichols, T. P. Straatsma, M. Dupuis,
            E. J. Bylaska, G. I. Fann, T. L. Windus, E. Apra, W. de Jong,
            S. Hirata, M. T. Hackler, J. Anchell, D. Bernholdt, P. Borowski,
            T. Clark, D. Clerc, H. Dachsel, M. Deegan, K. Dyall, D. Elwood,
            H. Fruchtl, E. Glendening, M. Gutowski, K. Hirao, A. Hess,
            J. Jaffe, B. Johnson, J. Ju, R. Kendall, R. Kobayashi, R. Kutteh,
            Z. Lin, R. Littlefield, X. Long, B. Meng, T. Nakajima,
            J. Nieplocha, S. Niu, M. Rosing, G. Sandrone, M. Stave, H. Taylor,
            G. Thomas, J. van Lenthe, K. Wolinski, A. Wong, and Z. Zhang,
            "NWChem, A Computational Chemistry Package for Parallel Computers, 
            Version 4.1" (2002),
                      Pacific Northwest National Laboratory,
                      Richland, Washington 99352-0999, USA.



 Total times  cpu:        8.0s     wall:        8.4s
