 argument  1 = /Users/edo/nwchem/nwchem/QA/tests/dft_feco5/dft_feco5.nw
  NWChem w/ OpenMP: maximum threads =    1



============================== echo of input deck ==============================
echo

start dft_feco5

# test of DFT with Fe(CO)5 using cd basis and xc basis

# There are 2 million integrals

geometry units au
  symmetry group d3h

  fe 0.0 0.0 0.0

  c 0.0 0.0 3.414358
  o 0.0 0.0 5.591323

  c 2.4417087 2.4417087 0.0
  o 3.9810552 3.9810552 0.0
end

basis "ao basis"
  o library "DZVP (DFT Orbital)"
  c library "DZVP (DFT Orbital)"
 fe library "DZVP (DFT Orbital)"
end
basis "cd basis"
  o library "DGauss A1 DFT Coulomb Fitting"
  c library "DGauss A1 DFT Coulomb Fitting"
 fe library "DGauss A1 DFT Coulomb Fitting"
end

dft
convergence energy 1d-9
end
title  "case t19 --- Default DFT (energy)"
task dft energy

dft
 xc becke88 perdew86
end
title "case t20 --- DFT (energy) with Becke '88 and Perdew '86"
task dft energy

dft
 xc becke88 perdew91
end
title "case t21 --- Default DFT (energy) with Becke '88 and Perdew '91"
task dft energy

basis "xc basis"
  o library "DGauss A1 DFT Exchange Fitting"
  c library "DGauss A1 DFT Exchange Fitting"
 fe library "DGauss A1 DFT Exchange Fitting"
end

dft
  xc acm
end
title "case t22 --- (acm) DFT (energy)"
task dft energy

dft
  xc b3lyp
end
title "case t23 --- (b3lyp) DFT (energy)"
task dft energy



================================================================================


                                         
                                         


             Northwest Computational Chemistry Package (NWChem) 7.0.1
             --------------------------------------------------------


                    Environmental Molecular Sciences Laboratory
                       Pacific Northwest National Laboratory
                                Richland, WA 99352

                              Copyright (c) 1994-2020
                       Pacific Northwest National Laboratory
                            Battelle Memorial Institute

             NWChem is an open-source computational chemistry package
                        distributed under the terms of the
                      Educational Community License (ECL) 2.0
             A copy of the license is included with this distribution
                              in the LICENSE.TXT file

                                  ACKNOWLEDGMENT
                                  --------------

            This software and its documentation were developed at the
            EMSL at Pacific Northwest National Laboratory, a multiprogram
            national laboratory, operated for the U.S. Department of Energy
            by Battelle under Contract Number DE-AC05-76RL01830. Support
            for this work was provided by the Department of Energy Office
            of Biological and Environmental Research, Office of Basic
            Energy Sciences, and the Office of Advanced Scientific Computing.


           Job information
           ---------------

    hostname        = WE40672
    program         = /Users/edo/nwchem/nwchem/bin/MACX64/nwchem
    date            = Fri Feb  4 15:22:03 2022

    compiled        = Thu_Feb_03_11:51:49_2022
    source          = /Users/edo/nwchem/nwchem
    nwchem branch   = 7.0.0
    nwchem revision = nwchem_on_git-3195-g27fae8c638
    ga revision     = 5.8.1
    use scalapack   = T
    input           = /Users/edo/nwchem/nwchem/QA/tests/dft_feco5/dft_feco5.nw
    prefix          = dft_feco5.
    data base       = ./dft_feco5.db
    status          = startup
    nproc           =        1
    time left       =     -1s



           Memory information
           ------------------

    heap     =   52195779 doubles =    398.2 Mbytes
    stack    =   52195783 doubles =    398.2 Mbytes
    global   =   29826161 doubles =    227.6 Mbytes (distinct from heap & stack)
    total    =  134217723 doubles =   1024.0 Mbytes
    verify   = yes
    hardfail = no 


           Directory information
           ---------------------

  0 permanent = .
  0 scratch   = .




                                NWChem Input Module
                                -------------------


 Turning off AUTOSYM since
 SYMMETRY directive was detected!


          ------
          auto-z
          ------
  Looking for out-of-plane bends
  no constraints, skipping    0.0000000000000000     
  no constraints, skipping    0.0000000000000000     


                             Geometry "geometry" -> ""
                             -------------------------

 Output coordinates in a.u. (scale by  1.000000000 to convert to a.u.)

  No.       Tag          Charge          X              Y              Z
 ---- ---------------- ---------- -------------- -------------- --------------
    1 fe                  26.0000     0.00000000     0.00000000     0.00000000
    2 c                    6.0000    -0.00000000    -0.00000000     3.41435800
    3 c                    6.0000     0.00000000    -0.00000000    -3.41435800
    4 o                    8.0000    -0.00000000    -0.00000000     5.59132300
    5 o                    8.0000     0.00000000    -0.00000000    -5.59132300
    6 c                    6.0000     2.44170870     2.44170870     0.00000000
    7 c                    6.0000    -3.33543611     0.89372741     0.00000000
    8 c                    6.0000     0.89372741    -3.33543611     0.00000000
    9 o                    8.0000     3.98105520     3.98105520     0.00000000
   10 o                    8.0000    -5.43822254     1.45716734     0.00000000
   11 o                    8.0000     1.45716734    -5.43822254     0.00000000

      Atomic Mass 
      ----------- 

      fe                55.934900
      c                 12.000000
      o                 15.994910


 Effective nuclear repulsion energy (a.u.)     798.4956180942

            Nuclear Dipole moment (a.u.) 
            ----------------------------
        X                 Y               Z
 ---------------- ---------------- ----------------
    -0.0000000000    -0.0000000000     0.0000000000

      Symmetry information
      --------------------

 Group name             D3h       
 Group number             27
 Group order              12
 No. of unique centers     5

      Symmetry unique atoms

     1    2    4    6    9



                                Z-matrix (autoz)
                                -------- 

 Units are Angstrom for bonds and degrees for angles

      Type          Name      I     J     K     L     M      Value
      ----------- --------  ----- ----- ----- ----- ----- ----------
    1 Stretch                  1     2                       1.80680
    2 Stretch                  1     3                       1.80680
    3 Stretch                  1     6                       1.82730
    4 Stretch                  1     7                       1.82730
    5 Stretch                  1     8                       1.82730
    6 Stretch                  2     4                       1.15200
    7 Stretch                  3     5                       1.15200
    8 Stretch                  6     9                       1.15200
    9 Stretch                  7    10                       1.15200
   10 Stretch                  8    11                       1.15200
   11 Bend                     2     1     6                90.00000
   12 Bend                     2     1     7                90.00000
   13 Bend                     2     1     8                90.00000
   14 Bend                     3     1     6                90.00000
   15 Bend                     3     1     7                90.00000
   16 Bend                     3     1     8                90.00000
   17 Bend                     4     1     6                90.00000
   18 Bend                     4     1     7                90.00000
   19 Bend                     4     1     8                90.00000
   20 Bend                     5     1     6                90.00000
   21 Bend                     5     1     7                90.00000
   22 Bend                     5     1     8                90.00000
   23 Bend                     6     1     7               120.00000
   24 Bend                     6     1     8               120.00000
   25 Bend                     7     1     8               120.00000
   26 Bend                     9     1     2                90.00000
   27 Bend                     9     1     3                90.00000
   28 Bend                     9     1     7               120.00000
   29 Bend                     9     1     8               120.00000
   30 Bend                    10     1     2                90.00000
   31 Bend                    10     1     3                90.00000
   32 Bend                    10     1     6               120.00000
   33 Bend                    10     1     8               120.00000
   34 Bend                    11     1     2                90.00000
   35 Bend                    11     1     3                90.00000
   36 Bend                    11     1     6               120.00000
   37 Bend                    11     1     7               120.00000
   38 Torsion                  1     2     6     9         180.00000
   39 Torsion                  1     2     7    10         180.00000
   40 Torsion                  1     2     8    11        -180.00000
   41 Torsion                  1     3     6     9        -180.00000
   42 Torsion                  1     3     7    10        -180.00000
   43 Torsion                  1     3     8    11         180.00000
   44 Torsion                  1     6     2     4         180.00000
   45 Torsion                  1     6     3     5        -180.00000
   46 Torsion                  1     6     7    10         180.00000
   47 Torsion                  1     6     8    11         180.00000
   48 Torsion                  1     7     2     4        -180.00000
   49 Torsion                  1     7     3     5         180.00000
   50 Torsion                  1     7     6     9         180.00000
   51 Torsion                  1     7     8    11         180.00000
   52 Torsion                  1     8     2     4         180.00000
   53 Torsion                  1     8     3     5        -180.00000
   54 Torsion                  1     8     6     9         180.00000
   55 Torsion                  1     8     7    10         180.00000


            XYZ format geometry
            -------------------
    11
 geometry
 fe                    0.00000000     0.00000000     0.00000000
 c                    -0.00000000    -0.00000000     1.80680057
 c                     0.00000000    -0.00000000    -1.80680057
 o                    -0.00000000    -0.00000000     2.95880092
 o                     0.00000000    -0.00000000    -2.95880092
 c                     1.29209669     1.29209669     0.00000000
 c                    -1.76503691     0.47294021     0.00000000
 c                     0.47294021    -1.76503691     0.00000000
 o                     2.10668384     2.10668384     0.00000000
 o                    -2.87778364     0.77109980     0.00000000
 o                     0.77109980    -2.87778364     0.00000000

 ==============================================================================
                                internuclear distances
 ------------------------------------------------------------------------------
       center one      |      center two      | atomic units |       a.u.
 ------------------------------------------------------------------------------
    2 c                |   1 fe               |     3.41436  |     3.41436
    3 c                |   1 fe               |     3.41436  |     3.41436
    4 o                |   2 c                |     2.17697  |     2.17697
    5 o                |   3 c                |     2.17697  |     2.17697
    6 c                |   1 fe               |     3.45310  |     3.45310
    7 c                |   1 fe               |     3.45310  |     3.45310
    8 c                |   1 fe               |     3.45310  |     3.45310
    9 o                |   6 c                |     2.17696  |     2.17696
   10 o                |   7 c                |     2.17696  |     2.17696
   11 o                |   8 c                |     2.17696  |     2.17696
 ------------------------------------------------------------------------------
                         number of included internuclear distances:         10
 ==============================================================================



 ==============================================================================
                                 internuclear angles
 ------------------------------------------------------------------------------
        center 1       |       center 2       |       center 3       |  degrees
 ------------------------------------------------------------------------------
    2 c                |   1 fe               |   3 c                |   180.00
    2 c                |   1 fe               |   6 c                |    90.00
    2 c                |   1 fe               |   7 c                |    90.00
    2 c                |   1 fe               |   8 c                |    90.00
    3 c                |   1 fe               |   6 c                |    90.00
    3 c                |   1 fe               |   7 c                |    90.00
    3 c                |   1 fe               |   8 c                |    90.00
    6 c                |   1 fe               |   7 c                |   120.00
    6 c                |   1 fe               |   8 c                |   120.00
    7 c                |   1 fe               |   8 c                |   120.00
    1 fe               |   2 c                |   4 o                |   180.00
    1 fe               |   3 c                |   5 o                |   180.00
    1 fe               |   6 c                |   9 o                |   180.00
    1 fe               |   7 c                |  10 o                |   180.00
    1 fe               |   8 c                |  11 o                |   180.00
 ------------------------------------------------------------------------------
                            number of included internuclear angles:         15
 ==============================================================================



                      Basis "ao basis" -> "" (cartesian)
                      -----
  o (Oxygen)
  ----------
            Exponent  Coefficients 
       -------------- ---------------------------------------------------------
  1 S  5.22290220E+03 -0.001936
  1 S  7.82539940E+02 -0.014851
  1 S  1.77267430E+02 -0.073319
  1 S  4.95166880E+01 -0.245116
  1 S  1.56664400E+01 -0.480285
  1 S  5.17935990E+00 -0.335943

  2 S  1.06014410E+01  0.078806
  2 S  9.42317000E-01 -0.567695

  3 S  2.77474600E-01  1.000000

  4 P  3.34241260E+01  0.017560
  4 P  7.62217140E+00  0.107630
  4 P  2.23820930E+00  0.323526
  4 P  6.86730000E-01  0.483223

  5 P  1.93813500E-01  1.000000

  6 D  8.00000000E-01  1.000000

  c (Carbon)
  ----------
            Exponent  Coefficients 
       -------------- ---------------------------------------------------------
  1 S  2.80806450E+03  0.002018
  1 S  4.21138280E+02  0.015433
  1 S  9.55866160E+01  0.075582
  1 S  2.67390040E+01  0.247828
  1 S  8.43282680E+00  0.479373
  1 S  2.76058210E+00  0.333834

  2 S  5.44700450E+00 -0.077841
  2 S  4.79242200E-01  0.568956

  3 S  1.46156500E-01  1.000000

  4 P  1.81308520E+01  0.015855
  4 P  4.09988320E+00  0.095683
  4 P  1.18583700E+00  0.304912
  4 P  3.68597400E-01  0.493502

  5 P  1.09720000E-01  1.000000

  6 D  6.00000000E-01  1.000000

  fe (Iron)
  ---------
            Exponent  Coefficients 
       -------------- ---------------------------------------------------------
  1 S  6.14302270E+04  0.001756
  1 S  9.22217600E+03  0.013417
  1 S  2.09759690E+03  0.066695
  1 S  5.91490400E+02  0.228205
  1 S  1.91860620E+02  0.469450
  1 S  6.58263280E+01  0.363557

  2 S  1.28740740E+02 -0.104917
  2 S  1.47181330E+01  0.617962
  2 S  5.95075430E+00  0.456009

  3 S  1.08598790E+01  0.218492
  3 S  1.71944710E+00 -0.711331
  3 S  6.66453200E-01 -0.418695

  4 S  9.75476100E-01 -0.144105
  4 S  1.23114300E-01  0.595813

  5 S  4.48795000E-02  1.000000

  6 P  7.80620300E+02 -0.009122
  6 P  1.84006220E+02 -0.068004
  6 P  5.80844670E+01 -0.259768
  6 P  2.07597950E+01 -0.506014
  6 P  7.59345150E+00 -0.341908

  7 P  4.02791730E+00 -0.327296
  7 P  1.52647000E+00 -0.548150
  7 P  5.57370200E-01 -0.250663

  8 P  1.21000000E-01  1.000000

  9 D  2.39293160E+01 -0.063492
  9 D  6.39990130E+00 -0.278391
  9 D  1.93174170E+00 -0.493820
  9 D  5.11527900E-01 -0.486269

 10 D  9.00000000E-02  1.000000



 Summary of "ao basis" -> "" (cartesian)
 ------------------------------------------------------------------------------
       Tag                 Description            Shells   Functions and Types
 ---------------- ------------------------------  ------  ---------------------
 o                     DZVP (DFT Orbital)            6       15   3s2p1d
 c                     DZVP (DFT Orbital)            6       15   3s2p1d
 fe                    DZVP (DFT Orbital)           10       26   5s3p2d


                      Basis "cd basis" -> "" (cartesian)
                      -----
  o (Oxygen)
  ----------
            Exponent  Coefficients 
       -------------- ---------------------------------------------------------
  1 S  2.00000000E+03  1.000000

  2 S  4.00000000E+02  1.000000

  3 S  1.00000000E+02  1.000000

  4 S  2.50000000E+01  1.000000

  5 S  7.80000000E+00  1.000000

  6 P  7.80000000E+00  1.000000

  7 S  1.56000000E+00  1.000000

  8 P  1.56000000E+00  1.000000

  9 S  3.90000000E-01  1.000000

 10 P  3.90000000E-01  1.000000

 11 D  7.80000000E+00  1.000000

 12 D  1.56000000E+00  1.000000

 13 D  3.90000000E-01  1.000000

  c (Carbon)
  ----------
            Exponent  Coefficients 
       -------------- ---------------------------------------------------------
  1 S  1.11400000E+03  1.000000

  2 S  2.23000000E+02  1.000000

  3 S  5.57200000E+01  1.000000

  4 S  1.39000000E+01  1.000000

  5 S  4.40000000E+00  1.000000

  6 P  4.40000000E+00  1.000000

  7 S  8.70000000E-01  1.000000

  8 P  8.70000000E-01  1.000000

  9 S  2.20000000E-01  1.000000

 10 P  2.20000000E-01  1.000000

 11 D  4.40000000E+00  1.000000

 12 D  8.70000000E-01  1.000000

 13 D  2.20000000E-01  1.000000

  fe (Iron)
  ---------
            Exponent  Coefficients 
       -------------- ---------------------------------------------------------
  1 S  4.40000000E+04  1.000000

  2 S  8.80000000E+03  1.000000

  3 S  2.20000000E+03  1.000000

  4 S  5.50000000E+02  1.000000

  5 S  1.37000000E+02  1.000000

  6 S  4.32000000E+01  1.000000

  7 P  4.32000000E+01  1.000000

  8 S  8.60000000E+00  1.000000

  9 P  8.60000000E+00  1.000000

 10 S  2.20000000E+00  1.000000

 11 P  2.20000000E+00  1.000000

 12 S  5.40000000E-01  1.000000

 13 P  5.40000000E-01  1.000000

 14 S  1.35000000E-01  1.000000

 15 P  1.35000000E-01  1.000000

 16 D  4.32000000E+01  1.000000

 17 D  8.60000000E+00  1.000000

 18 D  2.20000000E+00  1.000000

 19 D  5.40000000E-01  1.000000

 20 D  1.35000000E-01  1.000000



 Summary of "cd basis" -> "" (cartesian)
 ------------------------------------------------------------------------------
       Tag                 Description            Shells   Functions and Types
 ---------------- ------------------------------  ------  ---------------------
 o                DGauss A1 DFT Coulomb Fitting     13       34   7s3p3d
 c                DGauss A1 DFT Coulomb Fitting     13       34   7s3p3d
 fe               DGauss A1 DFT Coulomb Fitting     20       55   10s5p5d


                         case t19 --- Default DFT (energy)
                         ---------------------------------

                                 NWChem DFT Module
                                 -----------------


                         case t19 --- Default DFT (energy)




 Summary of "ao basis" -> "ao basis" (cartesian)
 ------------------------------------------------------------------------------
       Tag                 Description            Shells   Functions and Types
 ---------------- ------------------------------  ------  ---------------------
 o                     DZVP (DFT Orbital)            6       15   3s2p1d
 c                     DZVP (DFT Orbital)            6       15   3s2p1d
 fe                    DZVP (DFT Orbital)           10       26   5s3p2d


      Symmetry analysis of basis
      --------------------------

        a1'        39
        a1"         2
        a2'         6
        a2"        23
        e'         70
        e"         36

  Caching 1-el integrals 
  Rotation of axis 
  itol2e modified to match energy
  convergence criterion.
  tol_rho modified to match energy
  convergence criterion.

            General Information
            -------------------
          SCF calculation type: DFT
          Wavefunction type:  closed shell.
          No. of atoms     :    11
          No. of electrons :    96
           Alpha electrons :    48
            Beta electrons :    48
          Charge           :     0
          Spin multiplicity:     1
          Use of symmetry is: on ; symmetry adaption is: on 
          Maximum number of iterations:  50
          AO basis - number of functions:   176
                     number of shells:    70
          A Charge density fitting basis will be used.
          CD basis - number of functions:   395
                     number of shells:   150
          Convergence on energy requested:  1.00D-09
          Convergence on density requested:  1.00D-05
          Convergence on gradient requested:  5.00D-04

              XC Information
              --------------
                        Slater Exchange Functional  1.000 local    
                      VWN V Correlation Functional  1.000 local    

             Grid Information
             ----------------
          Grid used for XC integration:  medium    
          Radial quadrature: Mura-Knowles        
          Angular quadrature: Lebedev. 
          Tag              B.-S. Rad. Rad. Pts. Rad. Cut. Ang. Pts.
          ---              ---------- --------- --------- ---------
          fe                  1.40      112           8.0       590
          c                   0.70       49          11.0       434
          o                   0.60       49          13.0       434
          Grid pruning is: on 
          Number of quadrature shells:   308
          Spatial weights used:  Erf1

          Convergence Information
          -----------------------
          Convergence aids based upon iterative change in 
          total energy or number of iterations. 
          Levelshifting, if invoked, occurs when the 
          HOMO/LUMO gap drops below (HL_TOL):  1.00D-02
          DIIS, if invoked, will attempt to extrapolate 
          using up to (NFOCK): 10 stored Fock matrices.

                    Damping( 0%)  Levelshifting(0.5)       DIIS
                  --------------- ------------------- ---------------
          dE  on:    start            ASAP                start   
          dE off:    2 iters         50 iters            50 iters 


      Screening Tolerance Information
      -------------------------------
          Density screening/tol_rho:  1.00D-12
          AO Gaussian exp screening on grid/accAOfunc:  21
          CD Gaussian exp screening on grid/accCDfunc:  20
          XC Gaussian exp screening on grid/accXCfunc:  20
          Schwarz screening/accCoul:  1.00D-10


      Superposition of Atomic Density Guess
      -------------------------------------

 Sum of atomic energies:       -1824.13130503

      Non-variational initial energy
      ------------------------------

 Total energy =   -1827.679833
 1-e energy   =   -4099.408592
 2-e energy   =    1473.233141
 HOMO         =      -0.328823
 LUMO         =      -0.090738


      Symmetry analysis of molecular orbitals - initial
      -------------------------------------------------

  Numbering of irreducible representations: 

     1 a1'         2 a1"         3 a2'         4 a2"         5 e'      
     6 e"      

  Orbital symmetries:

     1 a1'         2 a1'         3 a2"         4 e'          5 e'      
     6 a1'         7 a2"         8 a1'         9 e'         10 e'      
    11 a1'        12 a2"        13 a1'        14 e'         15 e'      
    16 a1'        17 a2"        18 e'         19 e'         20 a1'     
    21 a2"        22 e'         23 e'         24 a1'        25 a1'     
    26 e'         27 e'         28 a2"        29 a1'        30 a1'     
    31 e"         32 e"         33 e'         34 e'         35 a2"     
    36 e'         37 e'         38 a2'        39 a1'        40 e"      
    41 e"         42 e'         43 e'         44 a2"        45 e"      
    46 e"         47 e'         48 e'         49 a1'        50 e"      
    51 e"         52 e'         53 e'         54 a2"        55 a2'     
    56 e'         57 e'         58 a1'     

   Time after variat. SCF:      1.1

      3 Center 2 Electron Integral Information
      ----------------------------------------
          Maximum number of 3-center 2e- integrals is:        12235520.
            This is reduced with Schwarz screening to:         6233100.
            Incore requires a per proc buffer size of:         6233101.
          Minimum dble words available (all nodes) is:       104376932
                   This is reduced (for later use) to:       103668063
                      proc 0 Suggested buffer size is:         6233101
                         Max Suggested buffer size is:         6233101
                              no. integral batches is:            1000

           6.233 MW buffer allocated for incore 3-center 
          2e- integral storage on stack. 
   Time prior to 1st pass:      1.6

 Grid_pts file          = ./dft_feco5.gridpts.0
 Record size in doubles =  12289        No. of grid_pts per rec  =   3070
 Max. records in memory =     67        Max. recs in file   = *********


           Memory utilization after 1st SCF pass: 
           Heap Space remaining (MW):       17.80            17804131
          Stack Space remaining (MW):       45.96            45960436

   convergence    iter        energy       DeltaE   RMS-Dens  Diis-err    time
 ---------------- ----- ----------------- --------- --------- ---------  ------
 d= 0,ls=0.0,diis     1  -1822.8238771021 -2.62D+03  6.20D-02  9.95D+00     1.9
 d= 0,ls=0.0,diis     2  -1811.2269233965  1.16D+01  7.18D-02  6.78D+01     2.2
 d= 0,ls=0.0,diis     3  -1819.6761946966 -8.45D+00  9.88D-03  3.75D+01     2.4
 d= 0,ls=0.0,diis     4  -1821.7870729684 -2.11D+00  3.10D-03  1.88D+01     2.6
 d= 0,ls=0.0,diis     5  -1821.2546120655  5.32D-01  3.05D-03  2.34D+01     2.8
 d= 0,ls=0.0,diis     6  -1821.5446538597 -2.90D-01  4.72D-03  2.13D+01     3.0
 d= 0,ls=0.0,diis     7  -1821.9353986452 -3.91D-01  5.47D-03  1.80D+01     3.3
 d= 0,ls=0.0,diis     8  -1821.6794348129  2.56D-01  2.03D-03  1.97D+01     3.5
 d= 0,ls=0.0,diis     9  -1821.7478985380 -6.85D-02  2.58D-05  1.90D+01     3.7
  Resetting Diis
 d= 0,ls=0.0,diis    10  -1821.7460939353  1.80D-03  1.30D-03  1.90D+01     3.9
 d= 0,ls=0.0,diis    11  -1821.6761350837  7.00D-02  9.38D-02  1.95D+01     4.2
 d= 0,ls=0.0,diis    12  -1802.9471161098  1.87D+01  6.83D-02  1.55D+02     4.4
 d= 0,ls=0.0,diis    13  -1816.8592876960 -1.39D+01  4.31D-02  5.88D+01     4.7
 d= 0,ls=0.0,diis    14  -1823.2755139123 -6.42D+00  1.45D-02  2.91D+00     5.0
 d= 0,ls=0.0,diis    15  -1823.5345047638 -2.59D-01  5.27D-03  1.41D+00     5.2
 d= 0,ls=0.0,diis    16  -1823.6259854415 -9.15D-02  2.99D-03  4.64D-01     5.5
 d= 0,ls=0.0,diis    17  -1823.6660516021 -4.01D-02  9.38D-04  1.87D-01     5.7
 d= 0,ls=0.0,diis    18  -1823.6490568744  1.70D-02  1.03D-03  4.07D-01     6.0
 d= 0,ls=0.0,diis    19  -1823.6668444561 -1.78D-02  1.69D-03  1.72D-01     6.2
 d= 0,ls=0.0,diis    20  -1823.6800556252 -1.32D-02  1.69D-04  1.56D-03     6.5
 d= 0,ls=0.0,diis    21  -1823.6802016988 -1.46D-04  2.71D-05  1.25D-05     6.8
 d= 0,ls=0.0,diis    22  -1823.6801990131  2.69D-06  2.46D-05  5.20D-05     7.0
 d= 0,ls=0.0,diis    23  -1823.6802027827 -3.77D-06  6.15D-06  2.21D-06     7.3
 d= 0,ls=0.0,diis    24  -1823.6802029496 -1.67D-07  9.87D-08  5.36D-10     7.6
 d= 0,ls=0.0,diis    25  -1823.6802029497 -3.46D-11  2.17D-08  1.38D-11     7.9


         Total DFT energy =    -1823.680202949684
      One electron energy =    -4105.877279210947
           Coulomb energy =     1601.847508667155
    Exchange-Corr. energy =     -118.146050500083
 Nuclear repulsion energy =      798.495618094190

 Numeric. integr. density =       95.999997074472

     Total iterative time =      6.3s



                  Occupations of the irreducible representations
                  ----------------------------------------------

                     irrep           alpha         beta
                     --------     --------     --------
                     a1'              13.0         13.0
                     a1"               0.0          0.0
                     a2'               1.0          1.0
                     a2"               8.0          8.0
                     e'               20.0         20.0
                     e"                6.0          6.0


                       DFT Final Molecular Orbital Analysis
                       ------------------------------------

 Vector    1  Occ=2.000000D+00  E=-2.541970D+02  Symmetry=a1'
              MO Center= -9.0D-20, -9.6D-20, -1.4D-20, r^2= 1.3D-03
   Bfn.  Coefficient  Atom+Function         Bfn.  Coefficient  Atom+Function  
  ----- ------------  ---------------      ----- ------------  ---------------
     1      0.995585   1 Fe s                 4     -0.030308   1 Fe s         

 Vector    2  Occ=2.000000D+00  E=-2.955251D+01  Symmetry=a1'
              MO Center=  4.8D-21,  4.5D-21, -1.2D-21, r^2= 2.4D-02
   Bfn.  Coefficient  Atom+Function         Bfn.  Coefficient  Atom+Function  
  ----- ------------  ---------------      ----- ------------  ---------------
     2      1.045683   1 Fe s                 1     -0.332832   1 Fe s         

 Vector    3  Occ=2.000000D+00  E=-2.556163D+01  Symmetry=a2"
              MO Center= -8.0D-21, -1.4D-20,  5.0D-17, r^2= 1.9D-02
   Bfn.  Coefficient  Atom+Function         Bfn.  Coefficient  Atom+Function  
  ----- ------------  ---------------      ----- ------------  ---------------
     8      0.993895   1 Fe pz        

 Vector    4  Occ=2.000000D+00  E=-2.554755D+01  Symmetry=e'
              MO Center=  4.2D-06,  5.0D-06, -1.3D-21, r^2= 1.9D-02
   Bfn.  Coefficient  Atom+Function         Bfn.  Coefficient  Atom+Function  
  ----- ------------  ---------------      ----- ------------  ---------------
     6      0.732682   1 Fe px                7      0.671726   1 Fe py        

 Vector    5  Occ=2.000000D+00  E=-2.554755D+01  Symmetry=e'
              MO Center= -4.2D-06, -5.0D-06, -9.1D-23, r^2= 1.9D-02
   Bfn.  Coefficient  Atom+Function         Bfn.  Coefficient  Atom+Function  
  ----- ------------  ---------------      ----- ------------  ---------------
     7     -0.732682   1 Fe py                6      0.671726   1 Fe px        

 Vector    6  Occ=2.000000D+00  E=-1.872439D+01  Symmetry=a1'
              MO Center= -6.4D-22, -1.7D-22, -1.4D-15, r^2= 8.8D+00
   Bfn.  Coefficient  Atom+Function         Bfn.  Coefficient  Atom+Function  
  ----- ------------  ---------------      ----- ------------  ---------------
    57      0.705566   4 O  s                72      0.705566   5 O  s         

 Vector    7  Occ=2.000000D+00  E=-1.872439D+01  Symmetry=a2"
              MO Center=  1.3D-17,  1.0D-17,  1.5D-15, r^2= 8.8D+00
   Bfn.  Coefficient  Atom+Function         Bfn.  Coefficient  Atom+Function  
  ----- ------------  ---------------      ----- ------------  ---------------
    57      0.705517   4 O  s                72     -0.705517   5 O  s         

 Vector    8  Occ=2.000000D+00  E=-1.871442D+01  Symmetry=a1'
              MO Center= -4.1D-16, -4.8D-16, -3.5D-17, r^2= 8.9D+00
   Bfn.  Coefficient  Atom+Function         Bfn.  Coefficient  Atom+Function  
  ----- ------------  ---------------      ----- ------------  ---------------
   132      0.576074   9 O  s               147      0.576074  10 O  s         
   162      0.576074  11 O  s         

 Vector    9  Occ=2.000000D+00  E=-1.871442D+01  Symmetry=e'
              MO Center=  1.4D+00, -4.9D-01, -4.0D-24, r^2= 6.7D+00
   Bfn.  Coefficient  Atom+Function         Bfn.  Coefficient  Atom+Function  
  ----- ------------  ---------------      ----- ------------  ---------------
   162     -0.719425  11 O  s               132      0.690710   9 O  s         
   147      0.028715  10 O  s         

 Vector   10  Occ=2.000000D+00  E=-1.871442D+01  Symmetry=e'
              MO Center= -1.4D+00,  4.9D-01,  3.1D-23, r^2= 6.7D+00
   Bfn.  Coefficient  Atom+Function         Bfn.  Coefficient  Atom+Function  
  ----- ------------  ---------------      ----- ------------  ---------------
   147      0.814142  10 O  s               132     -0.431939   9 O  s         
   162     -0.382203  11 O  s         

 Vector   11  Occ=2.000000D+00  E=-9.950001D+00  Symmetry=a1'
              MO Center=  1.9D-21, -6.5D-23,  3.6D-16, r^2= 3.3D+00
   Bfn.  Coefficient  Atom+Function         Bfn.  Coefficient  Atom+Function  
  ----- ------------  ---------------      ----- ------------  ---------------
    27      0.705770   2 C  s                42      0.705770   3 C  s         

 Vector   12  Occ=2.000000D+00  E=-9.949997D+00  Symmetry=a2"
              MO Center=  7.5D-22,  1.0D-22, -1.1D-15, r^2= 3.3D+00
   Bfn.  Coefficient  Atom+Function         Bfn.  Coefficient  Atom+Function  
  ----- ------------  ---------------      ----- ------------  ---------------
    27      0.705656   2 C  s                42     -0.705656   3 C  s         

 Vector   13  Occ=2.000000D+00  E=-9.938565D+00  Symmetry=a1'
              MO Center=  4.1D-10,  2.0D-10, -2.6D-18, r^2= 3.4D+00
   Bfn.  Coefficient  Atom+Function         Bfn.  Coefficient  Atom+Function  
  ----- ------------  ---------------      ----- ------------  ---------------
    87      0.576226   6 C  s               102      0.576226   7 C  s         
   117      0.576226   8 C  s         

 Vector   14  Occ=2.000000D+00  E=-9.938562D+00  Symmetry=e'
              MO Center=  2.8D-01,  8.7D-01, -3.1D-22, r^2= 2.5D+00
   Bfn.  Coefficient  Atom+Function         Bfn.  Coefficient  Atom+Function  
  ----- ------------  ---------------      ----- ------------  ---------------
    87      0.791710   6 C  s               102     -0.562698   7 C  s         
   117     -0.229012   8 C  s         

 Vector   15  Occ=2.000000D+00  E=-9.938562D+00  Symmetry=e'
              MO Center= -2.8D-01, -8.7D-01, -2.8D-18, r^2= 2.5D+00
   Bfn.  Coefficient  Atom+Function         Bfn.  Coefficient  Atom+Function  
  ----- ------------  ---------------      ----- ------------  ---------------
   117      0.781968   8 C  s               102     -0.589314   7 C  s         
    87     -0.192654   6 C  s         

 Vector   16  Occ=2.000000D+00  E=-3.312084D+00  Symmetry=a1'
              MO Center=  1.6D-17,  7.3D-18, -4.6D-17, r^2= 2.2D-01
   Bfn.  Coefficient  Atom+Function         Bfn.  Coefficient  Atom+Function  
  ----- ------------  ---------------      ----- ------------  ---------------
     3      1.123992   1 Fe s                 2      0.466397   1 Fe s         
     1     -0.126940   1 Fe s                 4     -0.046902   1 Fe s         

 Vector   17  Occ=2.000000D+00  E=-2.161250D+00  Symmetry=a2"
              MO Center=  2.0D-19,  1.9D-19,  3.0D-17, r^2= 2.5D-01
   Bfn.  Coefficient  Atom+Function         Bfn.  Coefficient  Atom+Function  
  ----- ------------  ---------------      ----- ------------  ---------------
    11      1.073643   1 Fe pz                8     -0.405669   1 Fe pz        
    14      0.048940   1 Fe pz               29     -0.032350   2 C  s         
    44      0.032350   3 C  s         

 Vector   18  Occ=2.000000D+00  E=-2.132708D+00  Symmetry=e'
              MO Center= -9.5D-04,  2.2D-03, -3.7D-20, r^2= 2.5D-01
   Bfn.  Coefficient  Atom+Function         Bfn.  Coefficient  Atom+Function  
  ----- ------------  ---------------      ----- ------------  ---------------
     9      1.055791   1 Fe px                6     -0.398809   1 Fe px        
    10      0.197055   1 Fe py                7     -0.074434   1 Fe py        
   104      0.028563   7 C  s                22      0.027542   1 Fe dxy       
    12      0.026891   1 Fe px               89     -0.026118   6 C  s         

 Vector   19  Occ=2.000000D+00  E=-2.132708D+00  Symmetry=e'
              MO Center=  9.5D-04, -2.2D-03,  6.5D-20, r^2= 2.5D-01
   Bfn.  Coefficient  Atom+Function         Bfn.  Coefficient  Atom+Function  
  ----- ------------  ---------------      ----- ------------  ---------------
    10      1.055791   1 Fe py                7     -0.398809   1 Fe py        
     9     -0.197055   1 Fe px                6      0.074434   1 Fe px        
   119      0.031570   8 C  s                13      0.026891   1 Fe py        

 Vector   20  Occ=2.000000D+00  E=-1.070170D+00  Symmetry=a1'
              MO Center= -6.4D-15, -5.9D-15,  5.4D-12, r^2= 7.3D+00
   Bfn.  Coefficient  Atom+Function         Bfn.  Coefficient  Atom+Function  
  ----- ------------  ---------------      ----- ------------  ---------------
    58      0.318096   4 O  s                73      0.318096   5 O  s         
    59     -0.195526   4 O  s                74     -0.195526   5 O  s         
    32     -0.167651   2 C  pz               47      0.167651   3 C  pz        
    28     -0.164725   2 C  s                43     -0.164725   3 C  s         
    57     -0.149922   4 O  s                62      0.149495   4 O  pz        

 Vector   21  Occ=2.000000D+00  E=-1.070007D+00  Symmetry=a2"
              MO Center= -4.4D-16, -1.4D-16, -5.3D-12, r^2= 7.3D+00
   Bfn.  Coefficient  Atom+Function         Bfn.  Coefficient  Atom+Function  
  ----- ------------  ---------------      ----- ------------  ---------------
    58      0.321423   4 O  s                73     -0.321423   5 O  s         
    59     -0.185904   4 O  s                74      0.185904   5 O  s         
    32     -0.168289   2 C  pz               47     -0.168289   3 C  pz        
    28     -0.166752   2 C  s                43      0.166752   3 C  s         
    57     -0.150223   4 O  s                62      0.149759   4 O  pz        

 Vector   22  Occ=2.000000D+00  E=-1.059564D+00  Symmetry=a1'
              MO Center= -1.3D-16, -2.3D-16, -2.8D-14, r^2= 7.4D+00
   Bfn.  Coefficient  Atom+Function         Bfn.  Coefficient  Atom+Function  
  ----- ------------  ---------------      ----- ------------  ---------------
   133      0.261936   9 O  s               148      0.261936  10 O  s         
   163      0.261936  11 O  s               134     -0.148089   9 O  s         
   149     -0.148089  10 O  s               164     -0.148089  11 O  s         
    88     -0.133087   6 C  s               103     -0.133087   7 C  s         
   118     -0.133087   8 C  s               105      0.131405   7 C  px        

 Vector   23  Occ=2.000000D+00  E=-1.059529D+00  Symmetry=e'
              MO Center= -6.4D-01, -1.2D+00,  7.1D-17, r^2= 5.6D+00
   Bfn.  Coefficient  Atom+Function         Bfn.  Coefficient  Atom+Function  
  ----- ------------  ---------------      ----- ------------  ---------------
   163      0.342302  11 O  s               148     -0.291262  10 O  s         
   164     -0.211184  11 O  s               149      0.179695  10 O  s         
   118     -0.177534   8 C  s               121      0.174329   8 C  py        
   162     -0.161354  11 O  s               166     -0.154227  11 O  py        
   103      0.151062   7 C  s               105     -0.148370   7 C  px        

 Vector   24  Occ=2.000000D+00  E=-1.059529D+00  Symmetry=e'
              MO Center=  6.4D-01,  1.2D+00, -3.2D-16, r^2= 5.6D+00
   Bfn.  Coefficient  Atom+Function         Bfn.  Coefficient  Atom+Function  
  ----- ------------  ---------------      ----- ------------  ---------------
   133      0.365788   9 O  s               148     -0.227096  10 O  s         
   134     -0.225674   9 O  s                88     -0.189715   6 C  s         
   132     -0.172425   9 O  s               149      0.140108  10 O  s         
   163     -0.138692  11 O  s                90     -0.136294   6 C  px        
    91     -0.136384   6 C  py              135      0.120614   9 O  px        

 Vector   25  Occ=2.000000D+00  E=-5.739279D-01  Symmetry=a1'
              MO Center= -1.4D-17,  8.5D-17, -8.7D-17, r^2= 4.6D+00
   Bfn.  Coefficient  Atom+Function         Bfn.  Coefficient  Atom+Function  
  ----- ------------  ---------------      ----- ------------  ---------------
     3      0.271574   1 Fe s                28      0.216002   2 C  s         
    43      0.216002   3 C  s                29      0.185912   2 C  s         
    44      0.185912   3 C  s                59     -0.142336   4 O  s         
    74     -0.142336   5 O  s                88      0.140116   6 C  s         
   103      0.140116   7 C  s               118      0.140116   8 C  s         

 Vector   26  Occ=2.000000D+00  E=-5.307929D-01  Symmetry=a2"
              MO Center=  6.0D-18,  3.8D-18,  7.2D-17, r^2= 8.2D+00
   Bfn.  Coefficient  Atom+Function         Bfn.  Coefficient  Atom+Function  
  ----- ------------  ---------------      ----- ------------  ---------------
    62      0.318013   4 O  pz               77      0.318013   5 O  pz        
    28     -0.262291   2 C  s                43      0.262291   3 C  s         
    59      0.251694   4 O  s                74     -0.251694   5 O  s         
    58     -0.201487   4 O  s                73      0.201487   5 O  s         
    29     -0.165636   2 C  s                44      0.165636   3 C  s         

 Vector   27  Occ=2.000000D+00  E=-5.221401D-01  Symmetry=e'
              MO Center=  9.9D-01,  8.2D-01,  5.4D-16, r^2= 6.5D+00
   Bfn.  Coefficient  Atom+Function         Bfn.  Coefficient  Atom+Function  
  ----- ------------  ---------------      ----- ------------  ---------------
    88      0.308502   6 C  s               134     -0.266006   9 O  s         
   135     -0.258456   9 O  px              136     -0.258325   9 O  py        
   133      0.231467   9 O  s                16     -0.201050   1 Fe dxy       
   166     -0.190219  11 O  py              118     -0.166636   8 C  s         
   150     -0.161855  10 O  px               89      0.157157   6 C  s         

 Vector   28  Occ=2.000000D+00  E=-5.221401D-01  Symmetry=e'
              MO Center= -9.9D-01, -8.2D-01, -1.6D-18, r^2= 6.5D+00
   Bfn.  Coefficient  Atom+Function         Bfn.  Coefficient  Atom+Function  
  ----- ------------  ---------------      ----- ------------  ---------------
   150      0.314098  10 O  px              166     -0.297777  11 O  py        
   103      0.274321   7 C  s               118     -0.260020   8 C  s         
   149     -0.236533  10 O  s               164      0.224202  11 O  s         
   148      0.205821  10 O  s               163     -0.195091  11 O  s         
   104      0.139744   7 C  s               119     -0.132459   8 C  s         

 Vector   29  Occ=2.000000D+00  E=-5.183798D-01  Symmetry=a1'
              MO Center= -2.2D-13, -2.4D-13,  9.1D-16, r^2= 8.5D+00
   Bfn.  Coefficient  Atom+Function         Bfn.  Coefficient  Atom+Function  
  ----- ------------  ---------------      ----- ------------  ---------------
    62      0.239783   4 O  pz               77     -0.239783   5 O  pz        
   150      0.196995  10 O  px              166      0.196995  11 O  py        
    59      0.175199   4 O  s                74      0.175199   5 O  s         
    29     -0.170205   2 C  s                44     -0.170205   3 C  s         
    20      0.167230   1 Fe dzz              28     -0.163305   2 C  s         

 Vector   30  Occ=2.000000D+00  E=-4.713069D-01  Symmetry=a1'
              MO Center= -3.2D-15, -3.4D-15, -1.2D-17, r^2= 8.0D+00
   Bfn.  Coefficient  Atom+Function         Bfn.  Coefficient  Atom+Function  
  ----- ------------  ---------------      ----- ------------  ---------------
    62      0.312039   4 O  pz               77     -0.312039   5 O  pz        
    32     -0.253122   2 C  pz               47      0.253122   3 C  pz        
   150     -0.202263  10 O  px              166     -0.202263  11 O  py        
     3      0.186246   1 Fe s                20     -0.153825   1 Fe dzz       
    59      0.152516   4 O  s                74      0.152516   5 O  s         

 Vector   31  Occ=2.000000D+00  E=-4.580969D-01  Symmetry=e"
              MO Center=  4.0D-01,  3.0D-02, -6.7D-16, r^2= 6.6D+00
   Bfn.  Coefficient  Atom+Function         Bfn.  Coefficient  Atom+Function  
  ----- ------------  ---------------      ----- ------------  ---------------
    61     -0.289109   4 O  py               76      0.289109   5 O  py        
    19      0.280344   1 Fe dyz             137     -0.241577   9 O  pz        
    31     -0.228788   2 C  py               46      0.228788   3 C  py        
    92     -0.201991   6 C  pz              167      0.198489  11 O  pz        
   122      0.165963   8 C  pz               60     -0.132518   4 O  px        

 Vector   32  Occ=2.000000D+00  E=-4.580969D-01  Symmetry=e"
              MO Center= -4.0D-01, -3.0D-02, -1.0D-15, r^2= 6.6D+00
   Bfn.  Coefficient  Atom+Function         Bfn.  Coefficient  Atom+Function  
  ----- ------------  ---------------      ----- ------------  ---------------
    60     -0.289109   4 O  px               75      0.289109   5 O  px        
    17      0.280344   1 Fe dxz             152      0.254072  10 O  pz        
    30     -0.228788   2 C  px               45      0.228788   3 C  px        
   107      0.212438   7 C  pz              167     -0.164351  11 O  pz        
   122     -0.137420   8 C  pz               61      0.132518   4 O  py        

 Vector   33  Occ=2.000000D+00  E=-4.495699D-01  Symmetry=e'
              MO Center= -1.2D-01, -1.3D-01,  3.3D-14, r^2= 7.2D+00
   Bfn.  Coefficient  Atom+Function         Bfn.  Coefficient  Atom+Function  
  ----- ------------  ---------------      ----- ------------  ---------------
    61     -0.263211   4 O  py               76     -0.263211   5 O  py        
    60      0.256743   4 O  px               75      0.256743   5 O  px        
    31     -0.189637   2 C  py               46     -0.189637   3 C  py        
    30      0.184977   2 C  px               45      0.184977   3 C  px        
   166     -0.154330  11 O  py              121      0.151292   8 C  py        

 Vector   34  Occ=2.000000D+00  E=-4.495699D-01  Symmetry=e'
              MO Center=  1.2D-01,  1.3D-01,  2.4D-17, r^2= 7.2D+00
   Bfn.  Coefficient  Atom+Function         Bfn.  Coefficient  Atom+Function  
  ----- ------------  ---------------      ----- ------------  ---------------
    60      0.263211   4 O  px               75      0.263211   5 O  px        
    61      0.256743   4 O  py               76      0.256743   5 O  py        
    30      0.189637   2 C  px               45      0.189637   3 C  px        
    31      0.184977   2 C  py               46      0.184977   3 C  py        
   135      0.139324   9 O  px              136      0.137826   9 O  py        

 Vector   35  Occ=2.000000D+00  E=-4.487313D-01  Symmetry=a2"
              MO Center= -9.3D-17, -2.5D-16, -7.9D-16, r^2= 7.0D+00
   Bfn.  Coefficient  Atom+Function         Bfn.  Coefficient  Atom+Function  
  ----- ------------  ---------------      ----- ------------  ---------------
   137      0.269348   9 O  pz              152      0.269348  10 O  pz        
   167      0.269348  11 O  pz               62      0.213967   4 O  pz        
    77      0.213967   5 O  pz               92      0.206214   6 C  pz        
   107      0.206214   7 C  pz              122      0.206214   8 C  pz        
    32     -0.198067   2 C  pz               47     -0.198067   3 C  pz        

 Vector   36  Occ=2.000000D+00  E=-4.347057D-01  Symmetry=e'
              MO Center=  1.1D+00,  2.9D-01, -1.9D-13, r^2= 6.0D+00
   Bfn.  Coefficient  Atom+Function         Bfn.  Coefficient  Atom+Function  
  ----- ------------  ---------------      ----- ------------  ---------------
   136     -0.337224   9 O  py              135      0.308836   9 O  px        
   165      0.308367  11 O  px               90      0.241493   6 C  px        
   120      0.241291   8 C  px               91     -0.208162   6 C  py        
   166      0.139669  11 O  py               15     -0.136153   1 Fe dxx       
    18      0.136153   1 Fe dyy             139     -0.124273   9 O  py        

 Vector   37  Occ=2.000000D+00  E=-4.347057D-01  Symmetry=e'
              MO Center= -1.1D+00, -2.9D-01, -1.6D-14, r^2= 6.0D+00
   Bfn.  Coefficient  Atom+Function         Bfn.  Coefficient  Atom+Function  
  ----- ------------  ---------------      ----- ------------  ---------------
   151      0.446269  10 O  py              165      0.337495  11 O  px        
   106      0.300813   7 C  py               16      0.272306   1 Fe dxy       
   120      0.208279   8 C  px              154      0.165720  10 O  py        
   135     -0.139398   9 O  px              168      0.124370  11 O  px        
    91      0.122449   6 C  py              121      0.122651   8 C  py        

 Vector   38  Occ=2.000000D+00  E=-4.278377D-01  Symmetry=a2'
              MO Center=  9.5D-14, -1.0D-13, -8.8D-17, r^2= 7.8D+00
   Bfn.  Coefficient  Atom+Function         Bfn.  Coefficient  Atom+Function  
  ----- ------------  ---------------      ----- ------------  ---------------
   151      0.350952  10 O  py              165     -0.350952  11 O  px        
   135      0.256915   9 O  px              136     -0.256915   9 O  py        
   106      0.224983   7 C  py              120     -0.224983   8 C  px        
    90      0.164699   6 C  px               91     -0.164699   6 C  py        
   154      0.127938  10 O  py              168     -0.127938  11 O  px        

 Vector   39  Occ=2.000000D+00  E=-4.271427D-01  Symmetry=a1'
              MO Center=  7.5D-15,  6.1D-15, -4.5D-16, r^2= 3.6D+00
   Bfn.  Coefficient  Atom+Function         Bfn.  Coefficient  Atom+Function  
  ----- ------------  ---------------      ----- ------------  ---------------
    20      0.492469   1 Fe dzz              15     -0.249636   1 Fe dxx       
    18     -0.249636   1 Fe dyy             105      0.215750   7 C  px        
   121      0.215750   8 C  py               32      0.188826   2 C  pz        
    47     -0.188826   3 C  pz              150     -0.178558  10 O  px        
   166     -0.178558  11 O  py               90     -0.157940   6 C  px        

 Vector   40  Occ=2.000000D+00  E=-4.270969D-01  Symmetry=e"
              MO Center=  2.6D-01,  8.2D-01,  1.4D-14, r^2= 7.2D+00
   Bfn.  Coefficient  Atom+Function         Bfn.  Coefficient  Atom+Function  
  ----- ------------  ---------------      ----- ------------  ---------------
   137      0.408722   9 O  pz              152     -0.290010  10 O  pz        
    92      0.253592   6 C  pz               60     -0.236992   4 O  px        
    75      0.236992   5 O  px              107     -0.179936   7 C  pz        
   140      0.150144   9 O  pz               61     -0.144647   4 O  py        
    76      0.144647   5 O  py               30     -0.135749   2 C  px        

 Vector   41  Occ=2.000000D+00  E=-4.270969D-01  Symmetry=e"
              MO Center= -2.6D-01, -8.2D-01,  1.7D-13, r^2= 7.2D+00
   Bfn.  Coefficient  Atom+Function         Bfn.  Coefficient  Atom+Function  
  ----- ------------  ---------------      ----- ------------  ---------------
   167      0.403413  11 O  pz              152     -0.304515  10 O  pz        
   122      0.250298   8 C  pz               61      0.236992   4 O  py        
    76     -0.236992   5 O  py              107     -0.188936   7 C  pz        
   170      0.148194  11 O  pz               60     -0.144647   4 O  px        
    75      0.144647   5 O  px               31      0.135749   2 C  py        

 Vector   42  Occ=2.000000D+00  E=-4.086715D-01  Symmetry=e'
              MO Center= -3.4D-01,  4.0D-01,  6.7D-17, r^2= 4.9D+00
   Bfn.  Coefficient  Atom+Function         Bfn.  Coefficient  Atom+Function  
  ----- ------------  ---------------      ----- ------------  ---------------
    16      0.384549   1 Fe dxy             105      0.323050   7 C  px        
   150     -0.258673  10 O  px               60      0.235726   4 O  px        
    75      0.235726   5 O  px               91      0.204528   6 C  py        
   135     -0.190395   9 O  px               15     -0.178007   1 Fe dxx       
    18      0.178007   1 Fe dyy             103      0.170693   7 C  s         

 Vector   43  Occ=2.000000D+00  E=-4.086715D-01  Symmetry=e'
              MO Center=  3.4D-01, -4.0D-01, -5.7D-17, r^2= 4.9D+00
   Bfn.  Coefficient  Atom+Function         Bfn.  Coefficient  Atom+Function  
  ----- ------------  ---------------      ----- ------------  ---------------
    16      0.356015   1 Fe dxy             121      0.330701   8 C  py        
   166     -0.261928  11 O  py               61      0.235726   4 O  py        
    76      0.235726   5 O  py               15      0.192274   1 Fe dxx       
    18     -0.192274   1 Fe dyy              90      0.192590   6 C  px        
   136     -0.183885   9 O  py              118      0.174254   8 C  s         

 Vector   44  Occ=2.000000D+00  E=-3.936895D-01  Symmetry=a2"
              MO Center= -4.6D-17, -5.2D-17,  6.7D-17, r^2= 5.8D+00
   Bfn.  Coefficient  Atom+Function         Bfn.  Coefficient  Atom+Function  
  ----- ------------  ---------------      ----- ------------  ---------------
    32      0.304574   2 C  pz               47      0.304574   3 C  pz        
    14     -0.257701   1 Fe pz              137      0.248765   9 O  pz        
   152      0.248765  10 O  pz              167      0.248765  11 O  pz        
    62     -0.220912   4 O  pz               77     -0.220912   5 O  pz        
    11     -0.181643   1 Fe pz               28     -0.173916   2 C  s         

 Vector   45  Occ=2.000000D+00  E=-2.903248D-01  Symmetry=e"
              MO Center= -2.6D-02,  1.4D-01, -3.7D-17, r^2= 2.6D+00
   Bfn.  Coefficient  Atom+Function         Bfn.  Coefficient  Atom+Function  
  ----- ------------  ---------------      ----- ------------  ---------------
    17      1.312365   1 Fe dxz              19      0.409972   1 Fe dyz       
    23     -0.384476   1 Fe dxz              60      0.191123   4 O  px        
    75     -0.191123   5 O  px              137      0.173998   9 O  pz        
   152     -0.165949  10 O  pz               25     -0.120107   1 Fe dyz       
    30     -0.092759   2 C  px               45      0.092759   3 C  px        

 Vector   46  Occ=2.000000D+00  E=-2.903248D-01  Symmetry=e"
              MO Center=  2.6D-02, -1.4D-01, -1.1D-14, r^2= 2.6D+00
   Bfn.  Coefficient  Atom+Function         Bfn.  Coefficient  Atom+Function  
  ----- ------------  ---------------      ----- ------------  ---------------
    19      1.312365   1 Fe dyz              17     -0.409972   1 Fe dxz       
    25     -0.384476   1 Fe dyz             167     -0.196269  11 O  pz        
    61      0.191123   4 O  py               76     -0.191123   5 O  py        
    23      0.120107   1 Fe dxz             152      0.105105  10 O  pz        
   170     -0.100394  11 O  pz               31     -0.092759   2 C  py        

 Vector   47  Occ=2.000000D+00  E=-2.366908D-01  Symmetry=e'
              MO Center=  1.6D-01, -3.6D-01,  1.5D-16, r^2= 2.9D+00
   Bfn.  Coefficient  Atom+Function         Bfn.  Coefficient  Atom+Function  
  ----- ------------  ---------------      ----- ------------  ---------------
    16      0.974757   1 Fe dxy              12      0.372882   1 Fe px        
    15     -0.334094   1 Fe dxx              18      0.334094   1 Fe dyy       
   165     -0.242547  11 O  px              120      0.164934   8 C  px        
   136      0.147549   9 O  py               22     -0.132724   1 Fe dxy       
     9      0.129154   1 Fe px              168     -0.128893  11 O  px        

 Vector   48  Occ=2.000000D+00  E=-2.366908D-01  Symmetry=e'
              MO Center= -1.6D-01,  3.6D-01,  7.7D-17, r^2= 2.9D+00
   Bfn.  Coefficient  Atom+Function         Bfn.  Coefficient  Atom+Function  
  ----- ------------  ---------------      ----- ------------  ---------------
    16      0.668187   1 Fe dxy              15      0.487378   1 Fe dxx       
    18     -0.487378   1 Fe dyy              13      0.372882   1 Fe py        
   151     -0.212032  10 O  py              135      0.179519   9 O  px        
   106      0.142231   7 C  py               90     -0.130666   6 C  px        
    10      0.129154   1 Fe py               61     -0.123876   4 O  py        

 Vector   49  Occ=0.000000D+00  E=-9.791633D-02  Symmetry=e"
              MO Center= -5.8D-02,  4.0D-01,  7.7D-16, r^2= 4.4D+00
   Bfn.  Coefficient  Atom+Function         Bfn.  Coefficient  Atom+Function  
  ----- ------------  ---------------      ----- ------------  ---------------
    17      0.939035   1 Fe dxz              19      0.312365   1 Fe dyz       
    92      0.290660   6 C  pz              107     -0.271384   7 C  pz        
    30      0.267491   2 C  px               45     -0.267491   3 C  px        
   137     -0.237200   9 O  pz              152      0.221470  10 O  pz        
    60     -0.215531   4 O  px               75      0.215531   5 O  px        

 Vector   50  Occ=0.000000D+00  E=-9.791633D-02  Symmetry=e"
              MO Center=  5.8D-02, -4.0D-01,  1.4D-14, r^2= 4.4D+00
   Bfn.  Coefficient  Atom+Function         Bfn.  Coefficient  Atom+Function  
  ----- ------------  ---------------      ----- ------------  ---------------
    19      0.939035   1 Fe dyz             122     -0.324496   8 C  pz        
    17     -0.312365   1 Fe dxz              31      0.267491   2 C  py        
    46     -0.267491   3 C  py              167      0.264813  11 O  pz        
   125     -0.227578   8 C  pz               61     -0.215531   4 O  py        
    76      0.215531   5 O  py              170      0.189742  11 O  pz        

 Vector   51  Occ=0.000000D+00  E=-8.799059D-02  Symmetry=e'
              MO Center= -1.6D-02,  3.9D-02, -1.7D-14, r^2= 5.3D+00
   Bfn.  Coefficient  Atom+Function         Bfn.  Coefficient  Atom+Function  
  ----- ------------  ---------------      ----- ------------  ---------------
    30      0.492911   2 C  px               45      0.492911   3 C  px        
   104      0.395890   7 C  s                89     -0.367267   6 C  s         
    16     -0.357936   1 Fe dxy              60     -0.328599   4 O  px        
    75     -0.328599   5 O  px               33      0.317676   2 C  px        
    48      0.317676   3 C  px               63     -0.254007   4 O  px        

 Vector   52  Occ=0.000000D+00  E=-8.799059D-02  Symmetry=e'
              MO Center=  1.6D-02, -3.9D-02,  4.5D-14, r^2= 5.3D+00
   Bfn.  Coefficient  Atom+Function         Bfn.  Coefficient  Atom+Function  
  ----- ------------  ---------------      ----- ------------  ---------------
    31      0.492911   2 C  py               46      0.492911   3 C  py        
   119      0.440609   8 C  s                61     -0.328599   4 O  py        
    76     -0.328599   5 O  py               34      0.317676   2 C  py        
    49      0.317676   3 C  py               64     -0.254007   4 O  py        
    79     -0.254007   5 O  py               89     -0.245093   6 C  s         

 Vector   53  Occ=0.000000D+00  E=-8.642647D-02  Symmetry=a1'
              MO Center=  2.3D-16, -7.3D-15,  6.3D-15, r^2= 2.2D+00
   Bfn.  Coefficient  Atom+Function         Bfn.  Coefficient  Atom+Function  
  ----- ------------  ---------------      ----- ------------  ---------------
    20      0.852229   1 Fe dzz              15     -0.415808   1 Fe dxx       
    18     -0.415808   1 Fe dyy              29      0.268495   2 C  s         
    44      0.268495   3 C  s                89     -0.229218   6 C  s         
   104     -0.229218   7 C  s               119     -0.229218   8 C  s         
    28      0.168627   2 C  s                43      0.168627   3 C  s         

 Vector   54  Occ=0.000000D+00  E=-8.349897D-02  Symmetry=a2"
              MO Center= -1.4D-15,  3.2D-15, -4.4D-15, r^2= 5.6D+00
   Bfn.  Coefficient  Atom+Function         Bfn.  Coefficient  Atom+Function  
  ----- ------------  ---------------      ----- ------------  ---------------
    92      0.407041   6 C  pz              107      0.407041   7 C  pz        
   122      0.407041   8 C  pz               29     -0.369746   2 C  s         
    44      0.369746   3 C  s               137     -0.281414   9 O  pz        
   152     -0.281414  10 O  pz              167     -0.281414  11 O  pz        
    95      0.270349   6 C  pz              110      0.270349   7 C  pz        

 Vector   55  Occ=0.000000D+00  E=-7.792946D-02  Symmetry=a2'
              MO Center=  5.9D-14, -3.7D-14,  3.6D-16, r^2= 5.8D+00
   Bfn.  Coefficient  Atom+Function         Bfn.  Coefficient  Atom+Function  
  ----- ------------  ---------------      ----- ------------  ---------------
   106      0.427530   7 C  py              120     -0.427530   8 C  px        
    90      0.312974   6 C  px               91     -0.312974   6 C  py        
   109      0.281591   7 C  py              123     -0.281591   8 C  px        
   151     -0.282858  10 O  py              165      0.282858  11 O  px        
   154     -0.221475  10 O  py              168      0.221475  11 O  px        

 Vector   56  Occ=0.000000D+00  E=-6.749724D-02  Symmetry=e'
              MO Center=  6.2D-01,  2.0D-02,  2.5D-15, r^2= 4.1D+00
   Bfn.  Coefficient  Atom+Function         Bfn.  Coefficient  Atom+Function  
  ----- ------------  ---------------      ----- ------------  ---------------
    15      0.453381   1 Fe dxx              18     -0.453381   1 Fe dyy       
   120      0.377620   8 C  px               16     -0.358345   1 Fe dxy       
    90      0.336154   6 C  px               91     -0.301774   6 C  py        
   165     -0.268968  11 O  px              135     -0.242330   9 O  px        
   123      0.222266   8 C  px              104      0.212718   7 C  s         

 Vector   57  Occ=0.000000D+00  E=-6.749724D-02  Symmetry=e'
              MO Center= -6.2D-01, -2.0D-02,  1.8D-15, r^2= 4.1D+00
   Bfn.  Coefficient  Atom+Function         Bfn.  Coefficient  Atom+Function  
  ----- ------------  ---------------      ----- ------------  ---------------
    16      0.906762   1 Fe dxy             106     -0.460922   7 C  py        
   151      0.322482  10 O  py              109     -0.282591   7 C  py        
   120     -0.277833   8 C  px              154      0.233266  10 O  py        
    89      0.199994   6 C  s               165      0.189920  11 O  px        
    15      0.179173   1 Fe dxx              18     -0.179173   1 Fe dyy       

 Vector   58  Occ=0.000000D+00  E=-4.407881D-02  Symmetry=e"
              MO Center= -4.3D-01,  3.0D-01, -3.3D-14, r^2= 5.3D+00
   Bfn.  Coefficient  Atom+Function         Bfn.  Coefficient  Atom+Function  
  ----- ------------  ---------------      ----- ------------  ---------------
   107      0.494628   7 C  pz              110      0.424024   7 C  pz        
    30      0.417357   2 C  px               45     -0.417357   3 C  px        
    92     -0.322779   6 C  pz              152     -0.281541  10 O  pz        
    95     -0.276705   6 C  pz              155     -0.261270  10 O  pz        
    33      0.256127   2 C  px               48     -0.256127   3 C  px        

 Vector   59  Occ=0.000000D+00  E=-4.407881D-02  Symmetry=e"
              MO Center=  4.3D-01, -3.0D-01, -6.2D-15, r^2= 5.3D+00
   Bfn.  Coefficient  Atom+Function         Bfn.  Coefficient  Atom+Function  
  ----- ------------  ---------------      ----- ------------  ---------------
   122      0.471931   8 C  pz               31      0.417357   2 C  py        
    46     -0.417357   3 C  py              125      0.404566   8 C  pz        
    92     -0.384791   6 C  pz               95     -0.329865   6 C  pz        
   167     -0.268622  11 O  pz               34      0.256127   2 C  py        
    49     -0.256127   3 C  py              170     -0.249281  11 O  pz        

 Vector   60  Occ=0.000000D+00  E= 1.653397D-03  Symmetry=a1'
              MO Center=  1.3D-16,  6.3D-17,  2.1D-16, r^2= 1.0D+01
   Bfn.  Coefficient  Atom+Function         Bfn.  Coefficient  Atom+Function  
  ----- ------------  ---------------      ----- ------------  ---------------
     5      3.069280   1 Fe s                 4     -0.650730   1 Fe s         
    29     -0.403419   2 C  s                44     -0.403419   3 C  s         
    21     -0.358632   1 Fe dxx              24     -0.358632   1 Fe dyy       
    89     -0.236777   6 C  s               104     -0.236777   7 C  s         
   119     -0.236777   8 C  s                35      0.202040   2 C  pz        

 Vector   61  Occ=0.000000D+00  E= 9.449191D-02  Symmetry=a2"
              MO Center= -4.8D-16,  4.6D-16, -3.9D-15, r^2= 1.0D+01
   Bfn.  Coefficient  Atom+Function         Bfn.  Coefficient  Atom+Function  
  ----- ------------  ---------------      ----- ------------  ---------------
    35      1.483887   2 C  pz               50      1.483887   3 C  pz        
    59     -0.986258   4 O  s                74      0.986258   5 O  s         
    14      0.668149   1 Fe pz               95      0.451966   6 C  pz        
   110      0.451966   7 C  pz              125      0.451966   8 C  pz        
    29     -0.218344   2 C  s                44      0.218344   3 C  s         

 Vector   62  Occ=0.000000D+00  E= 1.179559D-01  Symmetry=e'
              MO Center=  8.6D-01, -3.6D-01, -2.6D-16, r^2= 9.3D+00
   Bfn.  Coefficient  Atom+Function         Bfn.  Coefficient  Atom+Function  
  ----- ------------  ---------------      ----- ------------  ---------------
   124      1.367972   8 C  py              164      1.178133  11 O  s         
   134     -1.090439   9 O  s                94      1.016315   6 C  py        
    93      0.793723   6 C  px               34      0.450586   2 C  py        
    49      0.450586   3 C  py              119     -0.356053   8 C  s         
    89      0.329550   6 C  s               109      0.299109   7 C  py        

 Vector   63  Occ=0.000000D+00  E= 1.179559D-01  Symmetry=e'
              MO Center= -8.6D-01,  3.6D-01, -1.3D-14, r^2= 9.3D+00
   Bfn.  Coefficient  Atom+Function         Bfn.  Coefficient  Atom+Function  
  ----- ------------  ---------------      ----- ------------  ---------------
   108      1.489821   7 C  px              149      1.309761  10 O  s         
    93      0.772615   6 C  px              134     -0.730826   9 O  s         
   124     -0.590694   8 C  py              164     -0.578935  11 O  s         
    33      0.450586   2 C  px               48      0.450586   3 C  px        
    94      0.440494   6 C  py              123      0.420958   8 C  px        

 Vector   64  Occ=0.000000D+00  E= 1.487234D-01  Symmetry=a1'
              MO Center=  6.6D-16,  4.0D-15,  2.9D-15, r^2= 8.9D+00
   Bfn.  Coefficient  Atom+Function         Bfn.  Coefficient  Atom+Function  
  ----- ------------  ---------------      ----- ------------  ---------------
    26      2.485578   1 Fe dzz              29     -1.794784   2 C  s         
    44     -1.794784   3 C  s                89      1.322723   6 C  s         
   104      1.322723   7 C  s               119      1.322723   8 C  s         
    21     -1.131402   1 Fe dxx              24     -1.131402   1 Fe dyy       
    35      1.037358   2 C  pz               50     -1.037358   3 C  pz        

 Vector   65  Occ=0.000000D+00  E= 1.896893D-01  Symmetry=e'
              MO Center= -4.5D-01, -5.0D-01, -1.5D-17, r^2= 6.6D+00
   Bfn.  Coefficient  Atom+Function         Bfn.  Coefficient  Atom+Function  
  ----- ------------  ---------------      ----- ------------  ---------------
    22      2.974353   1 Fe dxy              89     -2.098142   6 C  s         
    12      1.237438   1 Fe px               13      1.178915   1 Fe py        
   104      1.093079   7 C  s               119      1.005062   8 C  s         
    93      0.702505   6 C  px               94      0.696676   6 C  py        
   108      0.535483   7 C  px              124      0.496460   8 C  py        

 Vector   66  Occ=0.000000D+00  E= 1.896893D-01  Symmetry=e'
              MO Center=  4.5D-01,  5.0D-01,  2.2D-16, r^2= 6.6D+00
   Bfn.  Coefficient  Atom+Function         Bfn.  Coefficient  Atom+Function  
  ----- ------------  ---------------      ----- ------------  ---------------
   119     -1.842453   8 C  s               104      1.791636   7 C  s         
    21     -1.487176   1 Fe dxx              24      1.487176   1 Fe dyy       
    13     -1.237438   1 Fe py               12      1.178915   1 Fe px        
   124     -0.818099   8 C  py              108      0.793106   7 C  px        
    90      0.405066   6 C  px               91     -0.405237   6 C  py        

 Vector   67  Occ=0.000000D+00  E= 2.219881D-01  Symmetry=a1'
              MO Center=  7.4D-15,  5.9D-15,  1.4D-14, r^2= 9.7D+00
   Bfn.  Coefficient  Atom+Function         Bfn.  Coefficient  Atom+Function  
  ----- ------------  ---------------      ----- ------------  ---------------
    89      0.999290   6 C  s               104      0.999290   7 C  s         
   119      0.999290   8 C  s               108     -0.921000   7 C  px        
   124     -0.921000   8 C  py              134     -0.911839   9 O  s         
   149     -0.911839  10 O  s               164     -0.911839  11 O  s         
    35     -0.759004   2 C  pz               50      0.759004   3 C  pz        

 Vector   68  Occ=0.000000D+00  E= 2.287512D-01  Symmetry=e"
              MO Center=  3.5D-01, -1.0D-01, -2.7D-16, r^2= 7.5D+00
   Bfn.  Coefficient  Atom+Function         Bfn.  Coefficient  Atom+Function  
  ----- ------------  ---------------      ----- ------------  ---------------
    25      5.349647   1 Fe dyz             125      1.625212   8 C  pz        
    95     -1.605337   6 C  pz               34     -1.396787   2 C  py        
    49      1.396787   3 C  py               23      1.372509   1 Fe dxz       
    33     -0.358361   2 C  px               48      0.358361   3 C  px        
   122     -0.271950   8 C  pz               92      0.268624   6 C  pz        

 Vector   69  Occ=0.000000D+00  E= 2.287512D-01  Symmetry=e"
              MO Center= -3.5D-01,  1.0D-01, -5.9D-16, r^2= 7.5D+00
   Bfn.  Coefficient  Atom+Function         Bfn.  Coefficient  Atom+Function  
  ----- ------------  ---------------      ----- ------------  ---------------
    23      5.349647   1 Fe dxz             110      1.865158   7 C  pz        
    33     -1.396787   2 C  px               48      1.396787   3 C  px        
    25     -1.372509   1 Fe dyz              95     -0.949791   6 C  pz        
   125     -0.915367   8 C  pz               34      0.358361   2 C  py        
    49     -0.358361   3 C  py              107     -0.312101   7 C  pz        

 Vector   70  Occ=0.000000D+00  E= 2.555462D-01  Symmetry=a1'
              MO Center= -1.6D-15,  2.2D-15,  5.0D-16, r^2= 9.3D+00
   Bfn.  Coefficient  Atom+Function         Bfn.  Coefficient  Atom+Function  
  ----- ------------  ---------------      ----- ------------  ---------------
     5      5.374421   1 Fe s                26     -2.507228   1 Fe dzz       
    21     -1.892018   1 Fe dxx              24     -1.892018   1 Fe dyy       
     4     -0.429762   1 Fe s                29      0.370807   2 C  s         
    44      0.370807   3 C  s                 3      0.344779   1 Fe s         
    35      0.331630   2 C  pz               50     -0.331630   3 C  pz        

 Vector   71  Occ=0.000000D+00  E= 2.587502D-01  Symmetry=e"
              MO Center= -2.3D-01,  5.6D-02,  1.5D-13, r^2= 6.2D+00
   Bfn.  Coefficient  Atom+Function         Bfn.  Coefficient  Atom+Function  
  ----- ------------  ---------------      ----- ------------  ---------------
    25      1.701765   1 Fe dyz              31     -0.519229   2 C  py        
    46      0.519229   3 C  py               23      0.476869   1 Fe dxz       
    95     -0.395278   6 C  pz              125      0.390102   8 C  pz        
    34      0.299006   2 C  py               49     -0.299006   3 C  py        
    92     -0.288933   6 C  pz              122      0.285150   8 C  pz        

 Vector   72  Occ=0.000000D+00  E= 2.587502D-01  Symmetry=e"
              MO Center=  2.3D-01, -5.6D-02, -1.7D-14, r^2= 6.2D+00
   Bfn.  Coefficient  Atom+Function         Bfn.  Coefficient  Atom+Function  
  ----- ------------  ---------------      ----- ------------  ---------------
    23      1.701765   1 Fe dxz              30     -0.519229   2 C  px        
    45      0.519229   3 C  px               25     -0.476869   1 Fe dyz       
   110      0.453439   7 C  pz              107      0.331447   7 C  pz        
    33      0.299006   2 C  px               48     -0.299006   3 C  px        
   125     -0.231202   8 C  pz              155     -0.228893  10 O  pz        

 Vector   73  Occ=0.000000D+00  E= 2.972077D-01  Symmetry=a2"
              MO Center= -5.1D-14,  4.6D-14, -4.3D-14, r^2= 1.1D+01
   Bfn.  Coefficient  Atom+Function         Bfn.  Coefficient  Atom+Function  
  ----- ------------  ---------------      ----- ------------  ---------------
    14      2.363053   1 Fe pz               35      1.458921   2 C  pz        
    50      1.458921   3 C  pz               59     -0.826323   4 O  s         
    74      0.826323   5 O  s                95     -0.743394   6 C  pz        
   110     -0.743394   7 C  pz              125     -0.743394   8 C  pz        
    29     -0.654743   2 C  s                44      0.654743   3 C  s         

 Vector   74  Occ=0.000000D+00  E= 2.990402D-01  Symmetry=e'
              MO Center=  5.2D-01, -1.1D-01,  3.6D-14, r^2= 8.7D+00
   Bfn.  Coefficient  Atom+Function         Bfn.  Coefficient  Atom+Function  
  ----- ------------  ---------------      ----- ------------  ---------------
    22      2.482885   1 Fe dxy              13     -1.692617   1 Fe py        
    93     -1.151793   6 C  px              109      1.088581   7 C  py        
   124     -0.873691   8 C  py              134      0.852873   9 O  s         
   123      0.842460   8 C  px              164     -0.823673  11 O  s         
    34      0.745419   2 C  py               49      0.745419   3 C  py        

 Vector   75  Occ=0.000000D+00  E= 2.990402D-01  Symmetry=e'
              MO Center= -5.2D-01,  1.1D-01,  1.3D-14, r^2= 8.7D+00
   Bfn.  Coefficient  Atom+Function         Bfn.  Coefficient  Atom+Function  
  ----- ------------  ---------------      ----- ------------  ---------------
    12      1.692617   1 Fe px               22     -1.335338   1 Fe dxy       
    21      1.241443   1 Fe dxx              24     -1.241443   1 Fe dyy       
   108      1.214184   7 C  px               94      1.114043   6 C  py        
   149      0.967954  10 O  s               124     -0.880209   8 C  py        
    33     -0.745419   2 C  px               48     -0.745419   3 C  px        

 Vector   76  Occ=0.000000D+00  E= 3.324559D-01  Symmetry=a1'
              MO Center=  5.7D-14, -3.4D-14,  1.1D-13, r^2= 1.2D+01
   Bfn.  Coefficient  Atom+Function         Bfn.  Coefficient  Atom+Function  
  ----- ------------  ---------------      ----- ------------  ---------------
    29      4.738525   2 C  s                44      4.738525   3 C  s         
    26     -4.226062   1 Fe dzz               5     -1.569583   1 Fe s         
    59     -1.551297   4 O  s                74     -1.551297   5 O  s         
    21      1.172831   1 Fe dxx              24      1.172831   1 Fe dyy       
    65      0.910718   4 O  pz               80     -0.910718   5 O  pz        

 Vector   77  Occ=0.000000D+00  E= 3.339804D-01  Symmetry=a2'
              MO Center=  1.6D-16,  4.8D-15,  6.8D-28, r^2= 8.4D+00
   Bfn.  Coefficient  Atom+Function         Bfn.  Coefficient  Atom+Function  
  ----- ------------  ---------------      ----- ------------  ---------------
   109      0.816498   7 C  py              123     -0.816498   8 C  px        
    93      0.597718   6 C  px               94     -0.597718   6 C  py        
   106     -0.417356   7 C  py              120      0.417356   8 C  px        
    90     -0.305526   6 C  px               91      0.305526   6 C  py        
   108      0.218780   7 C  px              124     -0.218780   8 C  py        

 Vector   78  Occ=0.000000D+00  E= 3.447117D-01  Symmetry=e'
              MO Center= -3.2D-01, -6.4D-01,  3.9D-16, r^2= 7.2D+00
   Bfn.  Coefficient  Atom+Function         Bfn.  Coefficient  Atom+Function  
  ----- ------------  ---------------      ----- ------------  ---------------
    22      3.487368   1 Fe dxy             123      1.980591   8 C  px        
   109      1.686796   7 C  py               12     -1.228679   1 Fe px        
    13     -0.882250   1 Fe py               94     -0.631575   6 C  py        
    33     -0.418593   2 C  px               48     -0.418593   3 C  px        
   124      0.327910   8 C  py               34     -0.300570   2 C  py        

 Vector   79  Occ=0.000000D+00  E= 3.447117D-01  Symmetry=e'
              MO Center=  3.2D-01,  6.4D-01, -2.2D-13, r^2= 7.2D+00
   Bfn.  Coefficient  Atom+Function         Bfn.  Coefficient  Atom+Function  
  ----- ------------  ---------------      ----- ------------  ---------------
    21      1.743684   1 Fe dxx              24     -1.743684   1 Fe dyy       
    93     -1.553662   6 C  px               94      1.426632   6 C  py        
    13     -1.228679   1 Fe py              109      1.196038   7 C  py        
    12      0.882250   1 Fe px              108      0.764708   7 C  px        
   124     -0.696433   8 C  py              123     -0.594177   8 C  px        

 Vector   80  Occ=0.000000D+00  E= 4.090756D-01  Symmetry=a2"
              MO Center=  1.5D-15,  5.1D-15, -5.0D-14, r^2= 5.7D+00
   Bfn.  Coefficient  Atom+Function         Bfn.  Coefficient  Atom+Function  
  ----- ------------  ---------------      ----- ------------  ---------------
    14      4.584124   1 Fe pz               29     -3.444971   2 C  s         
    44      3.444971   3 C  s                35      1.780873   2 C  pz        
    50      1.780873   3 C  pz               65     -0.558979   4 O  pz        
    80     -0.558979   5 O  pz               62     -0.344682   4 O  pz        
    77     -0.344682   5 O  pz               11      0.316402   1 Fe pz        

 Vector   81  Occ=0.000000D+00  E= 4.136100D-01  Symmetry=e'
              MO Center= -1.4D-01, -3.7D-02,  1.1D-14, r^2= 7.5D+00
   Bfn.  Coefficient  Atom+Function         Bfn.  Coefficient  Atom+Function  
  ----- ------------  ---------------      ----- ------------  ---------------
   104      5.174716   7 C  s               119     -3.794135   8 C  s         
    21     -3.318069   1 Fe dxx              24      3.318069   1 Fe dyy       
    12      3.092521   1 Fe px               13     -1.790603   1 Fe py        
[...]
    40     -0.764001   2 C  dyz              55     -0.764001   3 C  dyz       
    25      0.706950   1 Fe dyz             158     -0.662707  10 O  dxz       
    34     -0.626375   2 C  py               49      0.626375   3 C  py        

 Vector  157  Occ=0.000000D+00  E= 2.403808D+00  Symmetry=e"
              MO Center= -8.8D-02,  6.6D-01,  1.5D-14, r^2= 7.9D+00
   Bfn.  Coefficient  Atom+Function         Bfn.  Coefficient  Atom+Function  
  ----- ------------  ---------------      ----- ------------  ---------------
    68      1.014855   4 O  dxz              83      1.014855   5 O  dxz       
   158     -0.992417  10 O  dxz             113     -0.783370   7 C  dxz       
   143     -0.782315   9 O  dxz             145     -0.784009   9 O  dyz       
    38      0.764001   2 C  dxz              53      0.764001   3 C  dxz       
    23     -0.706950   1 Fe dxz              33      0.626375   2 C  px        

 Vector  158  Occ=0.000000D+00  E= 2.438515D+00  Symmetry=e'
              MO Center=  1.4D-01,  7.9D-01,  9.9D-16, r^2= 7.7D+00
   Bfn.  Coefficient  Atom+Function         Bfn.  Coefficient  Atom+Function  
  ----- ------------  ---------------      ----- ------------  ---------------
   119      2.323392   8 C  s               104     -1.605593   7 C  s         
    13      1.332359   1 Fe py               21      1.252945   1 Fe dxx       
    24     -1.252945   1 Fe dyy             157     -0.810047  10 O  dxy       
    22      0.792949   1 Fe dxy             112     -0.767572   7 C  dxy       
   109      0.750845   7 C  py               94      0.731008   6 C  py        

 Vector  159  Occ=0.000000D+00  E= 2.438515D+00  Symmetry=e'
              MO Center= -1.4D-01, -7.9D-01, -1.6D-14, r^2= 7.7D+00
   Bfn.  Coefficient  Atom+Function         Bfn.  Coefficient  Atom+Function  
  ----- ------------  ---------------      ----- ------------  ---------------
    22      2.505891   1 Fe dxy              89     -2.268400   6 C  s         
   104      1.755832   7 C  s                12      1.332359   1 Fe px        
   172     -1.315351  11 O  dxy             127     -1.090469   8 C  dxy       
   157     -1.038378  10 O  dxy             123      0.869051   8 C  px        
   112     -0.793322   7 C  dxy              13      0.691835   1 Fe py        

 Vector  160  Occ=0.000000D+00  E= 2.505809D+00  Symmetry=a1'
              MO Center= -1.8D-14,  1.1D-13, -9.8D-16, r^2= 8.9D+00
   Bfn.  Coefficient  Atom+Function         Bfn.  Coefficient  Atom+Function  
  ----- ------------  ---------------      ----- ------------  ---------------
     4      9.741414   1 Fe s                 5     -4.823051   1 Fe s         
    26      2.868013   1 Fe dzz              29     -2.469155   2 C  s         
    44     -2.469155   3 C  s                 3     -2.425648   1 Fe s         
    89     -2.192052   6 C  s               104     -2.192052   7 C  s         
   119     -2.192052   8 C  s                21      2.010878   1 Fe dxx       

 Vector  161  Occ=0.000000D+00  E= 2.543419D+00  Symmetry=a1'
              MO Center= -2.4D-12, -5.3D-12,  1.3D-13, r^2= 8.1D+00
   Bfn.  Coefficient  Atom+Function         Bfn.  Coefficient  Atom+Function  
  ----- ------------  ---------------      ----- ------------  ---------------
     4      7.200225   1 Fe s                 5     -3.477944   1 Fe s         
    26      3.044526   1 Fe dzz              29     -2.532304   2 C  s         
    44     -2.532304   3 C  s                 3     -1.759391   1 Fe s         
    89     -1.621402   6 C  s               104     -1.621402   7 C  s         
   119     -1.621402   8 C  s                21      1.251454   1 Fe dxx       

 Vector  162  Occ=0.000000D+00  E= 2.547347D+00  Symmetry=e'
              MO Center= -1.1D+00, -4.6D-01,  1.4D-16, r^2= 8.0D+00
   Bfn.  Coefficient  Atom+Function         Bfn.  Coefficient  Atom+Function  
  ----- ------------  ---------------      ----- ------------  ---------------
   149      1.919040  10 O  s               164     -1.525756  11 O  s         
   104     -1.466894   7 C  s               119      1.166272   8 C  s         
   105      1.023809   7 C  px              111     -1.028190   7 C  dxx       
    12     -0.958749   1 Fe px              153      0.925913  10 O  px        
   129      0.861822   8 C  dyy             121     -0.819427   8 C  py        

 Vector  163  Occ=0.000000D+00  E= 2.547347D+00  Symmetry=e'
              MO Center=  1.1D+00,  4.6D-01, -2.5D-16, r^2= 8.0D+00
   Bfn.  Coefficient  Atom+Function         Bfn.  Coefficient  Atom+Function  
  ----- ------------  ---------------      ----- ------------  ---------------
   134      1.988853   9 O  s                89     -1.520259   6 C  s         
   142      1.443168   9 O  dxy             164     -1.335021  11 O  s         
    22      1.104288   1 Fe dxy             119      1.020476   8 C  s         
    13      0.958749   1 Fe py               97     -0.903250   6 C  dxy       
    90     -0.780602   6 C  px               91     -0.766275   6 C  py        

 Vector  164  Occ=0.000000D+00  E= 2.575128D+00  Symmetry=a2"
              MO Center=  1.1D-15,  5.1D-16,  8.8D-15, r^2= 9.3D+00
   Bfn.  Coefficient  Atom+Function         Bfn.  Coefficient  Atom+Function  
  ----- ------------  ---------------      ----- ------------  ---------------
    14      2.454774   1 Fe pz               29     -1.912221   2 C  s         
    44      1.912221   3 C  s                59      1.709613   4 O  s         
    74     -1.709613   5 O  s                65     -1.041579   4 O  pz        
    80     -1.041579   5 O  pz               41     -1.030662   2 C  dzz       
    56      1.030662   3 C  dzz              32     -0.965840   2 C  pz        

 Vector  165  Occ=0.000000D+00  E= 2.658072D+00  Symmetry=a1'
              MO Center= -3.0D-14, -2.9D-14, -1.2D-13, r^2= 8.5D+00
   Bfn.  Coefficient  Atom+Function         Bfn.  Coefficient  Atom+Function  
  ----- ------------  ---------------      ----- ------------  ---------------
     4      5.683455   1 Fe s                29     -1.655819   2 C  s         
    44     -1.655819   3 C  s                89     -1.549673   6 C  s         
   104     -1.549673   7 C  s               119     -1.549673   8 C  s         
     3     -1.367000   1 Fe s                 5     -1.273438   1 Fe s         
    59      0.881219   4 O  s                74      0.881219   5 O  s         

 Vector  166  Occ=0.000000D+00  E= 2.947142D+00  Symmetry=e'
              MO Center=  1.3D-01, -9.7D-01,  1.0D-14, r^2= 4.4D+00
   Bfn.  Coefficient  Atom+Function         Bfn.  Coefficient  Atom+Function  
  ----- ------------  ---------------      ----- ------------  ---------------
   119      2.851877   8 C  s               104     -1.580518   7 C  s         
   118      1.347995   8 C  s               129     -1.279685   8 C  dyy       
    89     -1.271359   6 C  s               126     -1.209726   8 C  dxx       
   131     -1.168422   8 C  dzz             124      1.137639   8 C  py        
    13      0.937072   1 Fe py              103     -0.747062   7 C  s         

 Vector  167  Occ=0.000000D+00  E= 2.947142D+00  Symmetry=e'
              MO Center= -1.3D-01,  9.7D-01,  2.6D-16, r^2= 4.4D+00
   Bfn.  Coefficient  Atom+Function         Bfn.  Coefficient  Atom+Function  
  ----- ------------  ---------------      ----- ------------  ---------------
    89      2.559044   6 C  s               104     -2.380551   7 C  s         
    88      1.209582   6 C  s                96     -1.133594   6 C  dxx       
   103     -1.125214   7 C  s                99     -1.100202   6 C  dyy       
   111      1.079549   7 C  dxx             101     -1.048448   6 C  dzz       
   114      0.998440   7 C  dyy             116      0.975319   7 C  dzz       

 Vector  168  Occ=0.000000D+00  E= 2.976947D+00  Symmetry=a2"
              MO Center= -9.4D-16, -5.2D-16, -2.3D-13, r^2= 5.4D+00
   Bfn.  Coefficient  Atom+Function         Bfn.  Coefficient  Atom+Function  
  ----- ------------  ---------------      ----- ------------  ---------------
    29      3.628360   2 C  s                44     -3.628360   3 C  s         
    14     -1.790776   1 Fe pz               35     -1.186666   2 C  pz        
    50     -1.186666   3 C  pz               36     -1.105199   2 C  dxx       
    39     -1.105199   2 C  dyy              51      1.105199   3 C  dxx       
    54      1.105199   3 C  dyy              28      1.071748   2 C  s         

 Vector  169  Occ=0.000000D+00  E= 3.161158D+00  Symmetry=a1'
              MO Center=  2.4D-14,  1.6D-14, -2.0D-14, r^2= 5.7D+00
   Bfn.  Coefficient  Atom+Function         Bfn.  Coefficient  Atom+Function  
  ----- ------------  ---------------      ----- ------------  ---------------
     4      5.088176   1 Fe s                89     -4.358441   6 C  s         
   104     -4.358441   7 C  s               119     -4.358441   8 C  s         
     5     -3.246256   1 Fe s                29      3.049751   2 C  s         
    44      3.049751   3 C  s                21      2.341965   1 Fe dxx       
    24      2.341965   1 Fe dyy             108     -1.559563   7 C  px        

 Vector  170  Occ=0.000000D+00  E= 3.362987D+00  Symmetry=a1'
              MO Center= -6.0D-15, -8.3D-15,  2.5D-13, r^2= 5.6D+00
   Bfn.  Coefficient  Atom+Function         Bfn.  Coefficient  Atom+Function  
  ----- ------------  ---------------      ----- ------------  ---------------
     4      9.075095   1 Fe s                 5     -6.809815   1 Fe s         
    26      6.587603   1 Fe dzz              29     -6.364623   2 C  s         
    44     -6.364623   3 C  s                89     -3.283561   6 C  s         
   104     -3.283561   7 C  s               119     -3.283561   8 C  s         
    21      3.247162   1 Fe dxx              24      3.247162   1 Fe dyy       

 Vector  171  Occ=0.000000D+00  E= 4.096035D+00  Symmetry=e'
              MO Center=  8.0D-02,  1.5D+00, -7.5D-17, r^2= 8.2D+00
   Bfn.  Coefficient  Atom+Function         Bfn.  Coefficient  Atom+Function  
  ----- ------------  ---------------      ----- ------------  ---------------
   134      4.883928   9 O  s               149     -4.065260  10 O  s         
   144     -1.555089   9 O  dyy             141     -1.539359   9 O  dxx       
   146     -1.503411   9 O  dzz             156      1.310417  10 O  dxx       
   159      1.265325  10 O  dyy             161      1.251402  10 O  dzz       
    89     -1.066258   6 C  s               108     -1.069296   7 C  px        

 Vector  172  Occ=0.000000D+00  E= 4.096035D+00  Symmetry=e'
              MO Center= -8.0D-02, -1.5D+00,  6.9D-17, r^2= 8.2D+00
   Bfn.  Coefficient  Atom+Function         Bfn.  Coefficient  Atom+Function  
  ----- ------------  ---------------      ----- ------------  ---------------
   164      5.166816  11 O  s               149     -3.292395  10 O  s         
   134     -1.874421   9 O  s               174     -1.675994  11 O  dyy       
   171     -1.597691  11 O  dxx             176     -1.590492  11 O  dzz       
   124      1.433464   8 C  py              119     -1.128018   8 C  s         
   156      1.075410  10 O  dxx             159      1.010646  10 O  dyy       

 Vector  173  Occ=0.000000D+00  E= 4.124235D+00  Symmetry=a2"
              MO Center= -2.0D-16, -1.1D-16,  3.4D-13, r^2= 1.0D+01
   Bfn.  Coefficient  Atom+Function         Bfn.  Coefficient  Atom+Function  
  ----- ------------  ---------------      ----- ------------  ---------------
    59      4.687465   4 O  s                74     -4.687465   5 O  s         
    71     -1.475268   4 O  dzz              86      1.475268   5 O  dzz       
    29     -1.454582   2 C  s                44      1.454582   3 C  s         
    66     -1.430863   4 O  dxx              69     -1.430863   4 O  dyy       
    81      1.430863   5 O  dxx              84      1.430863   5 O  dyy       

 Vector  174  Occ=0.000000D+00  E= 4.204106D+00  Symmetry=a1'
              MO Center= -1.2D-14, -2.2D-14, -1.1D-13, r^2= 9.2D+00
   Bfn.  Coefficient  Atom+Function         Bfn.  Coefficient  Atom+Function  
  ----- ------------  ---------------      ----- ------------  ---------------
     4      9.571617   1 Fe s                 3     -4.337542   1 Fe s         
     5     -3.697808   1 Fe s               134     -3.524426   9 O  s         
   149     -3.524426  10 O  s               164     -3.524426  11 O  s         
   108     -2.107937   7 C  px              124     -2.107937   8 C  py        
    93      1.543117   6 C  px               94      1.543117   6 C  py        

 Vector  175  Occ=0.000000D+00  E= 4.323565D+00  Symmetry=a1'
              MO Center=  4.4D-15,  5.5D-15, -2.3D-13, r^2= 1.0D+01
   Bfn.  Coefficient  Atom+Function         Bfn.  Coefficient  Atom+Function  
  ----- ------------  ---------------      ----- ------------  ---------------
    59      5.122374   4 O  s                74      5.122374   5 O  s         
     4     -3.829222   1 Fe s                29     -3.510240   2 C  s         
    44     -3.510240   3 C  s                 3      2.393849   1 Fe s         
    26      2.350147   1 Fe dzz              89      1.787008   6 C  s         
   104      1.787008   7 C  s               119      1.787008   8 C  s         

 Vector  176  Occ=0.000000D+00  E= 5.125364D+00  Symmetry=a1'
              MO Center= -3.7D-15,  2.4D-16, -3.5D-15, r^2= 5.6D+00
   Bfn.  Coefficient  Atom+Function         Bfn.  Coefficient  Atom+Function  
  ----- ------------  ---------------      ----- ------------  ---------------
     3      7.636711   1 Fe s                 4     -5.789176   1 Fe s         
    20     -4.455913   1 Fe dzz              15     -4.416734   1 Fe dxx       
    18     -4.416734   1 Fe dyy               5     -3.546481   1 Fe s         
    29      2.997142   2 C  s                44      2.997142   3 C  s         
    59     -3.000769   4 O  s                74     -3.000769   5 O  s         


 center of mass
 --------------
 x =  -0.00000000 y =  -0.00000000 z =   0.00000000

 moments of inertia (a.u.)
 ------------------
        2255.012792094188           0.000000000000           0.000000000000
           0.000000000000        2255.012792094188           0.000000000000
           0.000000000000           0.000000000000        1950.260605202691

     Multipole analysis of the density
     ---------------------------------

     L   x y z        total         alpha         beta         nuclear
     -   - - -        -----         -----         ----         -------
     0   0 0 0     -0.000000    -48.000000    -48.000000     96.000000

     1   1 0 0     -0.000000     -0.000000     -0.000000     -0.000000
     1   0 1 0     -0.000000     -0.000000     -0.000000     -0.000000
     1   0 0 1     -0.000000     -0.000000     -0.000000      0.000000

     2   2 0 0    -53.633270   -270.659714   -270.659714    487.686157
     2   1 1 0      0.000000      0.000000      0.000000     -0.000000
     2   1 0 1      0.000000      0.000000      0.000000     -0.000000
     2   0 2 0    -53.633270   -270.659714   -270.659714    487.686157
     2   0 1 1      0.000000      0.000000      0.000000      0.000000
     2   0 0 2    -52.661118   -346.380745   -346.380745    640.100373


 Task  times  cpu:       28.8s     wall:       28.8s


                                NWChem Input Module
                                -------------------


 Summary of allocated global arrays
-----------------------------------
  No active global arrays


MA_summarize_allocated_blocks: starting scan ...
heap block 'gridpts', handle 74, address 0x7fe8f941b000:
	type of elements:		double precision
	number of elements:		33554432
	address of client space:	0x7fe8f941b080
	index for client space:		17579256900505
	total number of bytes:		268435592
MA_summarize_allocated_blocks: scan completed: 1 heap block, 0 stack blocks
MA usage statistics:

	allocation statistics:
					      heap	     stack
					      ----	     -----
	current number of blocks	         1	         0
	maximum number of blocks	        34	        70
	current total bytes		 268435592	         0
	maximum total bytes		 275177056	  76470168
	maximum total K-bytes		    275178	     76471
	maximum total M-bytes		       276	        77


                                     CITATION
                                     --------
                Please cite the following reference when publishing
                           results obtained with NWChem:

          E. Apra, E. J. Bylaska, W. A. de Jong, N. Govind, K. Kowalski,
       T. P. Straatsma, M. Valiev, H. J. J. van Dam, Y. Alexeev, J. Anchell,
       V. Anisimov, F. W. Aquino, R. Atta-Fynn, J. Autschbach, N. P. Bauman,
     J. C. Becca, D. E. Bernholdt, K. Bhaskaran-Nair, S. Bogatko, P. Borowski,
         J. Boschen, J. Brabec, A. Bruner, E. Cauet, Y. Chen, G. N. Chuev,
      C. J. Cramer, J. Daily, M. J. O. Deegan, T. H. Dunning Jr., M. Dupuis,
   K. G. Dyall, G. I. Fann, S. A. Fischer, A. Fonari, H. Fruchtl, L. Gagliardi,
      J. Garza, N. Gawande, S. Ghosh, K. Glaesemann, A. W. Gotz, J. Hammond,
       V. Helms, E. D. Hermes, K. Hirao, S. Hirata, M. Jacquelin, L. Jensen,
   B. G. Johnson, H. Jonsson, R. A. Kendall, M. Klemm, R. Kobayashi, V. Konkov,
      S. Krishnamoorthy, M. Krishnan, Z. Lin, R. D. Lins, R. J. Littlefield,
      A. J. Logsdail, K. Lopata, W. Ma, A. V. Marenich, J. Martin del Campo,
   D. Mejia-Rodriguez, J. E. Moore, J. M. Mullin, T. Nakajima, D. R. Nascimento,
    J. A. Nichols, P. J. Nichols, J. Nieplocha, A. Otero-de-la-Roza, B. Palmer,
    A. Panyala, T. Pirojsirikul, B. Peng, R. Peverati, J. Pittner, L. Pollack,
   R. M. Richard, P. Sadayappan, G. C. Schatz, W. A. Shelton, D. W. Silverstein,
   D. M. A. Smith, T. A. Soares, D. Song, M. Swart, H. L. Taylor, G. S. Thomas,
            V. Tipparaju, D. G. Truhlar, K. Tsemekhman, T. Van Voorhis,
      A. Vazquez-Mayagoitia, P. Verma, O. Villa, A. Vishnu, K. D. Vogiatzis,
        D. Wang, J. H. Weare, M. J. Williamson, T. L. Windus, K. Wolinski,
        A. T. Wong, Q. Wu, C. Yang, Q. Yu, M. Zacharias, Z. Zhang, Y. Zhao,
                                and R. J. Harrison
                        "NWChem: Past, present, and future
                         J. Chem. Phys. 152, 184102 (2020)
                               doi:10.1063/5.0004997

                                      AUTHORS
                                      -------
     E. Apra, E. J. Bylaska, N. Govind, K. Kowalski, M. Valiev, W. A. de Jong,
      T. P. Straatsma, H. J. J. van Dam, D. Wang, T. L. Windus, N. P. Bauman,
       A. Panyala, J. Hammond, J. Autschbach, K. Bhaskaran-Nair, J. Brabec,
    K. Lopata, S. A. Fischer, S. Krishnamoorthy, M. Jacquelin, W. Ma, M. Klemm,
       O. Villa, Y. Chen, V. Anisimov, F. Aquino, S. Hirata, M. T. Hackler,
           Eric Hermes, L. Jensen, J. E. Moore, J. C. Becca, V. Konjkov,
            D. Mejia-Rodriguez, T. Risthaus, M. Malagoli, A. Marenich,
   A. Otero-de-la-Roza, J. Mullin, P. Nichols, R. Peverati, J. Pittner, Y. Zhao,
        P.-D. Fan, A. Fonari, M. J. Williamson, R. J. Harrison, J. R. Rehr,
      M. Dupuis, D. Silverstein, D. M. A. Smith, J. Nieplocha, V. Tipparaju,
      M. Krishnan, B. E. Van Kuiken, A. Vazquez-Mayagoitia, M. Swart, Q. Wu,
   T. Van Voorhis, A. A. Auer, M. Nooijen, L. D. Crosby, E. Brown, G. Cisneros,
     G. I. Fann, H. Fruchtl, J. Garza, K. Hirao, R. A. Kendall, J. A. Nichols,
       K. Tsemekhman, K. Wolinski, J. Anchell, D. E. Bernholdt, P. Borowski,
       T. Clark, D. Clerc, H. Dachsel, M. J. O. Deegan, K. Dyall, D. Elwood,
      E. Glendening, M. Gutowski, A. C. Hess, J. Jaffe, B. G. Johnson, J. Ju,
        R. Kobayashi, R. Kutteh, Z. Lin, R. Littlefield, X. Long, B. Meng,
      T. Nakajima, S. Niu, L. Pollack, M. Rosing, K. Glaesemann, G. Sandrone,
      M. Stave, H. Taylor, G. Thomas, J. H. van Lenthe, A. T. Wong, Z. Zhang.

 Total times  cpu:       83.8s     wall:       83.8s
