 argument  1 = ./cosmo_h2cco2.nw



============================== echo of input deck ==============================
echo

start cosmo_h2cco2_dat

geometry
    symmetry c1
    o      0.00000000    -1.11909860    -0.09529177
    o      0.00000000     1.11909860    -0.09529177
    c      0.00000000     0.00000000     0.66838924
    c      0.00000000     0.00000000     1.99717688
    h      0.00000000    -0.92756722     2.53578926
    h      0.00000000     0.92756722     2.53578926
end

charge -2

basis
  * library 6-31g*
end

cosmo
end

scf
  print forces cosmo_energies
end

task scf gradient
================================================================================


                                         
                                         


             Northwest Computational Chemistry Package (NWChem) 7.0.1
             --------------------------------------------------------


                    Environmental Molecular Sciences Laboratory
                       Pacific Northwest National Laboratory
                                Richland, WA 99352

                              Copyright (c) 1994-2020
                       Pacific Northwest National Laboratory
                            Battelle Memorial Institute

             NWChem is an open-source computational chemistry package
                        distributed under the terms of the
                      Educational Community License (ECL) 2.0
             A copy of the license is included with this distribution
                              in the LICENSE.TXT file

                                  ACKNOWLEDGMENT
                                  --------------

            This software and its documentation were developed at the
            EMSL at Pacific Northwest National Laboratory, a multiprogram
            national laboratory, operated for the U.S. Department of Energy
            by Battelle under Contract Number DE-AC05-76RL01830. Support
            for this work was provided by the Department of Energy Office
            of Biological and Environmental Research, Office of Basic
            Energy Sciences, and the Office of Advanced Scientific Computing.


           Job information
           ---------------

    hostname        = WE41476
    program         = nwchem
    date            = Thu Nov 11 13:55:49 2021

    compiled        = Thu_Nov_11_13:51:38_2021
    source          = /Users/meji656/Sources/nwchem
    nwchem branch   = 7.0.0
    nwchem revision = nwchem_on_git-3012-g75ff49f32d
    ga revision     = 5.8.0
    use scalapack   = F
    input           = ./cosmo_h2cco2.nw
    prefix          = cosmo_h2cco2_dat.
    data base       = ./cosmo_h2cco2_dat.db
    status          = startup
    nproc           =        4
    time left       =     -1s



           Memory information
           ------------------

    heap     =   13107196 doubles =    100.0 Mbytes
    stack    =   13107201 doubles =    100.0 Mbytes
    global   =   26214400 doubles =    200.0 Mbytes (distinct from heap & stack)
    total    =   52428797 doubles =    400.0 Mbytes
    verify   = yes
    hardfail = no 


           Directory information
           ---------------------

  0 permanent = .
  0 scratch   = .




                                NWChem Input Module
                                -------------------



 Scaling coordinates for geometry "geometry" by  1.889725989
 (inverse scale =  0.529177249)

 Turning off AUTOSYM since
 SYMMETRY directive was detected!


          ------
          auto-z
          ------
  no constraints, skipping    0.0000000000000000     
  no constraints, skipping    0.0000000000000000     


                             Geometry "geometry" -> ""
                             -------------------------

 Output coordinates in angstroms (scale by  1.889725989 to convert to a.u.)

  No.       Tag          Charge          X              Y              Z
 ---- ---------------- ---------- -------------- -------------- --------------
    1 o                    8.0000     0.00000000    -1.11909860    -0.74663533
    2 o                    8.0000     0.00000000     1.11909860    -0.74663533
    3 c                    6.0000     0.00000000     0.00000000     0.01704568
    4 c                    6.0000     0.00000000     0.00000000     1.34583332
    5 h                    1.0000     0.00000000    -0.92756722     1.88444570
    6 h                    1.0000     0.00000000     0.92756722     1.88444570

      Atomic Mass 
      ----------- 

      o                 15.994910
      c                 12.000000
      h                  1.007825


 Effective nuclear repulsion energy (a.u.)     103.3732581554

            Nuclear Dipole moment (a.u.) 
            ----------------------------
        X                 Y               Z
 ---------------- ---------------- ----------------
     0.0000000000     0.0000000000     0.0000000000



                                Z-matrix (autoz)
                                -------- 

 Units are Angstrom for bonds and degrees for angles

      Type          Name      I     J     K     L     M      Value
      ----------- --------  ----- ----- ----- ----- ----- ----------
    1 Stretch                  1     3                       1.35484
    2 Stretch                  2     3                       1.35484
    3 Stretch                  3     4                       1.32879
    4 Stretch                  4     5                       1.07261
    5 Stretch                  4     6                       1.07261
    6 Bend                     1     3     2               111.38018
    7 Bend                     1     3     4               124.30991
    8 Bend                     2     3     4               124.30991
    9 Bend                     3     4     5               120.14254
   10 Bend                     3     4     6               120.14254
   11 Bend                     5     4     6               119.71492
   12 Torsion                  1     3     4     5           0.00000
   13 Torsion                  1     3     4     6         180.00000
   14 Torsion                  2     3     4     5         180.00000
   15 Torsion                  2     3     4     6           0.00000


            XYZ format geometry
            -------------------
     6
 geometry
 o                     0.00000000    -1.11909860    -0.74663533
 o                     0.00000000     1.11909860    -0.74663533
 c                     0.00000000     0.00000000     0.01704568
 c                     0.00000000     0.00000000     1.34583332
 h                     0.00000000    -0.92756722     1.88444570
 h                     0.00000000     0.92756722     1.88444570

 ==============================================================================
                                internuclear distances
 ------------------------------------------------------------------------------
       center one      |      center two      | atomic units |  angstroms
 ------------------------------------------------------------------------------
    3 c                |   1 o                |     2.56028  |     1.35484
    3 c                |   2 o                |     2.56028  |     1.35484
    4 c                |   3 c                |     2.51104  |     1.32879
    5 h                |   4 c                |     2.02693  |     1.07261
    6 h                |   4 c                |     2.02693  |     1.07261
 ------------------------------------------------------------------------------
                         number of included internuclear distances:          5
 ==============================================================================



 ==============================================================================
                                 internuclear angles
 ------------------------------------------------------------------------------
        center 1       |       center 2       |       center 3       |  degrees
 ------------------------------------------------------------------------------
    1 o                |   3 c                |   2 o                |   111.38
    1 o                |   3 c                |   4 c                |   124.31
    2 o                |   3 c                |   4 c                |   124.31
    3 c                |   4 c                |   5 h                |   120.14
    3 c                |   4 c                |   6 h                |   120.14
    5 h                |   4 c                |   6 h                |   119.71
 ------------------------------------------------------------------------------
                            number of included internuclear angles:          6
 ==============================================================================





 Summary of "ao basis" -> "" (cartesian)
 ------------------------------------------------------------------------------
       Tag                 Description            Shells   Functions and Types
 ---------------- ------------------------------  ------  ---------------------
 *                           6-31g*                   on all atoms 


                      Basis "ao basis" -> "ao basis" (cartesian)
                      -----
  o (Oxygen)
  ----------
            Exponent  Coefficients 
       -------------- ---------------------------------------------------------
  1 S  5.48467170E+03  0.001831
  1 S  8.25234950E+02  0.013950
  1 S  1.88046960E+02  0.068445
  1 S  5.29645000E+01  0.232714
  1 S  1.68975700E+01  0.470193
  1 S  5.79963530E+00  0.358521

  2 S  1.55396160E+01 -0.110778
  2 S  3.59993360E+00 -0.148026
  2 S  1.01376180E+00  1.130767

  3 P  1.55396160E+01  0.070874
  3 P  3.59993360E+00  0.339753
  3 P  1.01376180E+00  0.727159

  4 S  2.70005800E-01  1.000000

  5 P  2.70005800E-01  1.000000

  6 D  8.00000000E-01  1.000000

  c (Carbon)
  ----------
            Exponent  Coefficients 
       -------------- ---------------------------------------------------------
  1 S  3.04752490E+03  0.001835
  1 S  4.57369510E+02  0.014037
  1 S  1.03948690E+02  0.068843
  1 S  2.92101550E+01  0.232184
  1 S  9.28666300E+00  0.467941
  1 S  3.16392700E+00  0.362312

  2 S  7.86827240E+00 -0.119332
  2 S  1.88128850E+00 -0.160854
  2 S  5.44249300E-01  1.143456

  3 P  7.86827240E+00  0.068999
  3 P  1.88128850E+00  0.316424
  3 P  5.44249300E-01  0.744308

  4 S  1.68714400E-01  1.000000

  5 P  1.68714400E-01  1.000000

  6 D  8.00000000E-01  1.000000

  h (Hydrogen)
  ------------
            Exponent  Coefficients 
       -------------- ---------------------------------------------------------
  1 S  1.87311370E+01  0.033495
  1 S  2.82539370E+00  0.234727
  1 S  6.40121700E-01  0.813757

  2 S  1.61277800E-01  1.000000



 Summary of "ao basis" -> "ao basis" (cartesian)
 ------------------------------------------------------------------------------
       Tag                 Description            Shells   Functions and Types
 ---------------- ------------------------------  ------  ---------------------
 o                           6-31g*                  6       15   3s2p1d
 c                           6-31g*                  6       15   3s2p1d
 h                           6-31g*                  2        2   2s



 solvent parameters
 solvname_short: h2o     
 solvname_long:  water                              
 dielec:       78.4000
 dielecinf:     1.7769

          ---------------
          -cosmo- solvent
          ---------------
 Cosmo: York-Karplus, doi: 10.1021/jp992097l
 dielectric constant -eps-     =  78.40
 screen = (eps-1)/(eps    )    =   0.98724
 surface charge correction     = lagrangian

 solvent accessible surface
 --------------------------

 ---------- ATOMIC COORDINATES (A.U.) ------------ VDWR(ANG.) --
     1    0.00000000   -2.11478971   -1.41093619     1.720
     2    0.00000000    2.11478971   -1.41093619     1.720
     3    0.00000000    0.00000000    0.03221166     2.000
     4    0.00000000    0.00000000    2.54325619     2.000
     5    0.00000000   -1.75284788    3.56108601     1.300
     6    0.00000000    1.75284788    3.56108601     1.300
 number of segments per atom =         32
 number of   points per atom =         32
 atom (   nspa,  nppa )
 ----------------------
    1 (     20,     0 )       0
    2 (     20,     0 )       0
    3 (     12,     0 )       0
    4 (     20,     0 )       0
    5 (     16,     0 )       0
    6 (     16,     0 )       0
 number of -cosmo- surface points =      104
 molecular surface =     92.777 angstrom**2
 molecular volume  =     54.990 angstrom**3
 G(cav/disp)       =      1.324 kcal/mol
 -lineq- algorithm             =   0
 -bem- low  level              =   2
 -bem- from -octahedral-
 gaussian surface charge width =   4.50000
 degree of switching           =   1.00000
 switching function tolerance  =   0.00010
 atomic radii = 
 --------------
    1  8.000  1.720
    2  8.000  1.720
    3  6.000  2.000
    4  6.000  2.000
    5  1.000  1.300
    6  1.000  1.300
 ...... end of -cosmo- initialization ......


                                 NWChem SCF Module
                                 -----------------



  ao basis        = "ao basis"
  functions       =    64
  atoms           =     6
  closed shells   =    16
  open shells     =     0
  charge          =  -2.00
  wavefunction    = RHF 
  input vectors   = atomic
  output vectors  = ./cosmo_h2cco2_dat.movecs
  use symmetry    = F
  symmetry adapt  = F


 Summary of "ao basis" -> "ao basis" (cartesian)
 ------------------------------------------------------------------------------
       Tag                 Description            Shells   Functions and Types
 ---------------- ------------------------------  ------  ---------------------
 o                           6-31g*                  6       15   3s2p1d
 c                           6-31g*                  6       15   3s2p1d
 h                           6-31g*                  2        2   2s



 Forming initial guess at       0.1s


      Superposition of Atomic Density Guess
      -------------------------------------

 Sum of atomic energies:        -225.82567784

 Renormalizing density from      30.00 to     32

      Non-variational initial energy
      ------------------------------

 Total energy =    -236.069879
 1-e energy   =    -547.709226
 2-e energy   =     208.266088
 HOMO         =       0.422208
 LUMO         =       0.673766


 Starting SCF solution at       0.1s



 ----------------------------------------------
         Quadratically convergent ROHF

 Convergence threshold     :          1.000E-04
 Maximum no. of iterations :           30
 Final Fock-matrix accuracy:          1.000E-07
 ----------------------------------------------

     COSMO gas phase

 Integral file          = ./cosmo_h2cco2_dat.aoints.0
 Record size in doubles =  65536        No. of integs per rec  =  43688
 Max. records in memory =     20        Max. records in file   = 120117
 No. of bits per label  =      8        No. of bits per value  =     64


 #quartets = 7.892D+04 #integrals = 1.126D+06 #direct =  0.0% #cached =100.0%


File balance: exchanges=     4  moved=     5  time=   0.0


              iter       energy          gnorm     gmax       time
             ----- ------------------- --------- --------- --------
                 1     -226.0515730619  2.21D+00  4.92D-01      0.3
                 2     -226.3173351503  3.15D-01  8.00D-02      0.4
                 3     -226.3270123923  2.64D-02  7.75D-03      0.5
                 4     -226.3270953312  2.45D-04  6.76D-05      0.5
                 5     -226.3270953374  8.13D-06  2.62D-06      0.6
     COSMO solvation phase
 Alternative 1
 -atmefc- energy =      12.442454817242
 -elcefc- energy =     -13.270878585363
 -efcefc- energy =       0.417594683235
 -lambda- energy =       0.003382799174
 -solnrg- energy =      -0.410829084886
 -allefc- energy =      -0.828423768121     -0.835189366469
 -ecos  - energy =      12.860049500476
 Alternative 2
 -atmefc- energy =      12.442454817242
 -elcefc- energy =     -13.270878585363
 -allefc- energy =      -0.828423768121
 -solnrg- energy =      -0.414211884060
 -ecos  - energy =      12.860049500476

              iter       energy          gnorm     gmax       time
             ----- ------------------- --------- --------- --------
                 1     -226.7379244223  1.48D-01  6.96D-02      0.7
 Alternative 1
 -atmefc- energy =      12.521429870380
 -elcefc- energy =     -13.365894434267
 -efcefc- energy =       0.425249974216
 -lambda- energy =       0.003017692273
 -solnrg- energy =      -0.419214589671
 -allefc- energy =      -0.844464563887     -0.850499948432
 -ecos  - energy =      12.946679844596
 Alternative 2
 -atmefc- energy =      12.521429870380
 -elcefc- energy =     -13.365894434267
 -allefc- energy =      -0.844464563887
 -solnrg- energy =      -0.422232281943
 -ecos  - energy =      12.946679844596
                 2     -226.7425462717  3.26D-02  1.78D-02      0.7
 Alternative 1
 -atmefc- energy =      12.537549838482
 -elcefc- energy =     -13.385926968464
 -efcefc- energy =       0.427138693165
 -lambda- energy =       0.002950128174
 -solnrg- energy =      -0.421238436817
 -allefc- energy =      -0.848377129982     -0.854277386330
 -ecos  - energy =      12.964688531647
 Alternative 2
 -atmefc- energy =      12.537549838482
 -elcefc- energy =     -13.385926968464
 -allefc- energy =      -0.848377129982
 -solnrg- energy =      -0.424188564991
 -ecos  - energy =      12.964688531647
                 3     -226.7427752511  7.65D-03  4.27D-03      0.9
 Alternative 1
 -atmefc- energy =      12.541008544906
 -elcefc- energy =     -13.390289028558
 -efcefc- energy =       0.427576042824
 -lambda- energy =       0.002935800998
 -solnrg- energy =      -0.421704440828
 -allefc- energy =      -0.849280483653     -0.855152085648
 -ecos  - energy =      12.968584587730
 Alternative 2
 -atmefc- energy =      12.541008544906
 -elcefc- energy =     -13.390289028558
 -allefc- energy =      -0.849280483653
 -solnrg- energy =      -0.424640241826
 -ecos  - energy =      12.968584587730
                 4     -226.7427871991  1.79D-03  9.92D-04      1.0
 Alternative 1
 -atmefc- energy =      12.541801541050
 -elcefc- energy =     -13.391292369855
 -efcefc- energy =       0.427677924314
 -lambda- energy =       0.002932509912
 -solnrg- energy =      -0.421812904491
 -allefc- energy =      -0.849490828805     -0.855355848629
 -ecos  - energy =      12.969479465364
 Alternative 2
 -atmefc- energy =      12.541801541050
 -elcefc- energy =     -13.391292369855
 -allefc- energy =      -0.849490828805
 -solnrg- energy =      -0.424745414403
 -ecos  - energy =      12.969479465364
                 5     -226.7427878457  4.19D-04  2.32D-04      1.1
 Alternative 1
 -atmefc- energy =      12.541985717540
 -elcefc- energy =     -13.391525553928
 -efcefc- energy =       0.427701664807
 -lambda- energy =       0.002931746613
 -solnrg- energy =      -0.421838171581
 -allefc- energy =      -0.849539836388     -0.855403329614
 -ecos  - energy =      12.969687382347
 Alternative 2
 -atmefc- energy =      12.541985717540
 -elcefc- energy =     -13.391525553928
 -allefc- energy =      -0.849539836388
 -solnrg- energy =      -0.424769918194
 -ecos  - energy =      12.969687382347
                 6     -226.7427878809  9.81D-05  5.55D-05      1.2
 
                  COSMO solvation results
                  -----------------------
 
                 gas phase energy =      -226.3270953374
                 sol phase energy =      -226.7427878809
 (electrostatic) solvation energy =         0.4156925435 (  260.85 kcal/mol)


       Final RHF  results 
       ------------------ 

         Total SCF energy =   -226.742787880883
      One-electron energy =   -545.805521595247
      Two-electron energy =    202.719788176604
 Nuclear repulsion energy =    103.373258155412
             COSMO energy =     12.969687382347

        Time for solution =      1.1s


             Final eigenvalues
             -----------------

              1      
    1  -20.3967
    2  -20.3967
    3  -11.2391
    4  -11.1034
    5   -1.2323
    6   -1.1212
    7   -0.9023
    8   -0.6272
    9   -0.5367
   10   -0.5232
   11   -0.4652
   12   -0.4359
   13   -0.3479
   14   -0.3218
   15   -0.3010
   16   -0.2324
   17    0.3337
   18    0.3425
   19    0.3660
   20    0.5359
   21    0.5528
   22    0.5823
   23    0.8399
   24    0.8864
   25    0.9212
   26    0.9320

                       ROHF Final Molecular Orbital Analysis
                       -------------------------------------

 Vector    5  Occ=2.000000D+00  E=-1.232250D+00
              MO Center= -5.4D-17,  2.2D-12, -5.2D-01, r^2= 1.3D+00
   Bfn.  Coefficient  Atom+Function         Bfn.  Coefficient  Atom+Function  
  ----- ------------  ---------------      ----- ------------  ---------------
     6      0.292697  1 O  s                 21      0.292697  2 O  s          
     2      0.286421  1 O  s                 17      0.286421  2 O  s          
    32      0.226541  3 C  s          

 Vector    6  Occ=2.000000D+00  E=-1.121246D+00
              MO Center= -1.5D-17, -2.1D-12, -6.1D-01, r^2= 1.6D+00
   Bfn.  Coefficient  Atom+Function         Bfn.  Coefficient  Atom+Function  
  ----- ------------  ---------------      ----- ------------  ---------------
     6      0.386529  1 O  s                 21     -0.386529  2 O  s          
     2      0.329927  1 O  s                 17     -0.329927  2 O  s          
    34     -0.190017  3 C  py                 1     -0.155231  1 O  s          
    16      0.155231  2 O  s          

 Vector    7  Occ=2.000000D+00  E=-9.023220D-01
              MO Center= -1.0D-16,  7.4D-14,  8.7D-01, r^2= 1.4D+00
   Bfn.  Coefficient  Atom+Function         Bfn.  Coefficient  Atom+Function  
  ----- ------------  ---------------      ----- ------------  ---------------
    47      0.319971  4 C  s                 51      0.303639  4 C  s          
    35      0.231416  3 C  pz                32      0.183919  3 C  s          
    46     -0.179799  4 C  s                  6     -0.151221  1 O  s          
    21     -0.151221  2 O  s          

 Vector    8  Occ=2.000000D+00  E=-6.272471D-01
              MO Center= -1.3D-16,  4.9D-13,  6.5D-01, r^2= 2.8D+00
   Bfn.  Coefficient  Atom+Function         Bfn.  Coefficient  Atom+Function  
  ----- ------------  ---------------      ----- ------------  ---------------
    50     -0.279408  4 C  pz                32      0.274053  3 C  s          
     6     -0.206125  1 O  s                 21     -0.206125  2 O  s          
    36      0.187068  3 C  s                 51     -0.162660  4 C  s          

 Vector    9  Occ=2.000000D+00  E=-5.367135D-01
              MO Center= -4.7D-17,  5.0D-12,  7.8D-01, r^2= 2.6D+00
   Bfn.  Coefficient  Atom+Function         Bfn.  Coefficient  Atom+Function  
  ----- ------------  ---------------      ----- ------------  ---------------
    49      0.333225  4 C  py                34      0.217457  3 C  py         
    61     -0.183142  5 H  s                 63      0.183142  6 H  s          
    53      0.176191  4 C  py                 5     -0.169010  1 O  pz         
    20      0.169010  2 O  pz                62     -0.154420  5 H  s          
    64      0.154420  6 H  s          

 Vector   10  Occ=2.000000D+00  E=-5.232120D-01
              MO Center=  3.5D-16, -4.4D-12, -3.5D-02, r^2= 2.5D+00
   Bfn.  Coefficient  Atom+Function         Bfn.  Coefficient  Atom+Function  
  ----- ------------  ---------------      ----- ------------  ---------------
    35      0.341653  3 C  pz                 4     -0.290095  1 O  py         
    19      0.290095  2 O  py                50     -0.249772  4 C  pz         
     8     -0.216177  1 O  py                23      0.216177  2 O  py         
     6      0.175251  1 O  s                 21      0.175251  2 O  s          
    54     -0.160487  4 C  pz         

 Vector   11  Occ=2.000000D+00  E=-4.651802D-01
              MO Center=  2.1D-16,  1.2D-12, -3.1D-01, r^2= 1.8D+00
   Bfn.  Coefficient  Atom+Function         Bfn.  Coefficient  Atom+Function  
  ----- ------------  ---------------      ----- ------------  ---------------
     3      0.310975  1 O  px                18      0.310975  2 O  px         
    33      0.285001  3 C  px                 7      0.241696  1 O  px         
    22      0.241696  2 O  px                37      0.187400  3 C  px         
    48      0.155254  4 C  px         

 Vector   12  Occ=2.000000D+00  E=-4.358528D-01
              MO Center=  8.2D-17, -4.6D-13,  1.4D-01, r^2= 3.1D+00
   Bfn.  Coefficient  Atom+Function         Bfn.  Coefficient  Atom+Function  
  ----- ------------  ---------------      ----- ------------  ---------------
    34      0.285748  3 C  py                49     -0.235284  4 C  py         
     5     -0.222644  1 O  pz                20      0.222644  2 O  pz         
     4     -0.208822  1 O  py                19     -0.208822  2 O  py         
    62      0.197489  5 H  s                 64     -0.197489  6 H  s          
     9     -0.179843  1 O  pz                24      0.179843  2 O  pz         

 Vector   13  Occ=2.000000D+00  E=-3.478679D-01
              MO Center= -1.4D-16,  1.6D-12, -5.6D-01, r^2= 2.1D+00
   Bfn.  Coefficient  Atom+Function         Bfn.  Coefficient  Atom+Function  
  ----- ------------  ---------------      ----- ------------  ---------------
     5      0.386453  1 O  pz                20      0.386453  2 O  pz         
     9      0.343946  1 O  pz                24      0.343946  2 O  pz         
    51     -0.258736  4 C  s                 50      0.184682  4 C  pz         
    35     -0.174032  3 C  pz         

 Vector   14  Occ=2.000000D+00  E=-3.218077D-01
              MO Center=  1.6D-16, -4.9D-13, -7.3D-01, r^2= 1.9D+00
   Bfn.  Coefficient  Atom+Function         Bfn.  Coefficient  Atom+Function  
  ----- ------------  ---------------      ----- ------------  ---------------
     3      0.427581  1 O  px                18     -0.427581  2 O  px         
     7      0.395542  1 O  px                22     -0.395542  2 O  px         

 Vector   15  Occ=2.000000D+00  E=-3.010204D-01
              MO Center=  1.4D-16, -3.4D-12, -6.7D-01, r^2= 2.0D+00
   Bfn.  Coefficient  Atom+Function         Bfn.  Coefficient  Atom+Function  
  ----- ------------  ---------------      ----- ------------  ---------------
     4      0.349523  1 O  py                19      0.349523  2 O  py         
     8      0.322828  1 O  py                23      0.322828  2 O  py         
     5     -0.282826  1 O  pz                20      0.282826  2 O  pz         
     9     -0.230521  1 O  pz                24      0.230521  2 O  pz         

 Vector   16  Occ=2.000000D+00  E=-2.323625D-01
              MO Center=  3.1D-17, -6.7D-13,  7.6D-01, r^2= 2.2D+00
   Bfn.  Coefficient  Atom+Function         Bfn.  Coefficient  Atom+Function  
  ----- ------------  ---------------      ----- ------------  ---------------
    52      0.503190  4 C  px                48      0.425281  4 C  px         
     3     -0.224022  1 O  px                18     -0.224022  2 O  px         
     7     -0.221597  1 O  px                22     -0.221597  2 O  px         

 Vector   17  Occ=0.000000D+00  E= 3.337121D-01
              MO Center= -2.8D-16,  3.5D-12,  1.9D+00, r^2= 3.3D+00
   Bfn.  Coefficient  Atom+Function         Bfn.  Coefficient  Atom+Function  
  ----- ------------  ---------------      ----- ------------  ---------------
    51      1.973620  4 C  s                 62     -1.570980  5 H  s          
    64     -1.570980  6 H  s                 54      0.945774  4 C  pz         
    39      0.210198  3 C  pz                50      0.196266  4 C  pz         

 Vector   18  Occ=0.000000D+00  E= 3.424527D-01
              MO Center= -2.3D-16,  1.6D-14,  2.7D-01, r^2= 2.2D+00
   Bfn.  Coefficient  Atom+Function         Bfn.  Coefficient  Atom+Function  
  ----- ------------  ---------------      ----- ------------  ---------------
    37      0.902698  3 C  px                52     -0.681456  4 C  px         
    33      0.487861  3 C  px                 7     -0.358134  1 O  px         
    22     -0.358134  2 O  px                 3     -0.209818  1 O  px         
    18     -0.209818  2 O  px                48     -0.190314  4 C  px         

 Vector   19  Occ=0.000000D+00  E= 3.660195D-01
              MO Center= -3.2D-17, -2.6D-12,  1.9D+00, r^2= 3.4D+00
   Bfn.  Coefficient  Atom+Function         Bfn.  Coefficient  Atom+Function  
  ----- ------------  ---------------      ----- ------------  ---------------
    53      1.922691  4 C  py                62      1.917091  5 H  s          
    64     -1.917091  6 H  s                 38     -0.514584  3 C  py         
    49      0.314898  4 C  py                 6     -0.220881  1 O  s          
    21      0.220881  2 O  s          

 Vector   20  Occ=0.000000D+00  E= 5.359429D-01
              MO Center= -1.7D-16,  3.3D-13,  8.3D-01, r^2= 3.4D+00
   Bfn.  Coefficient  Atom+Function         Bfn.  Coefficient  Atom+Function  
  ----- ------------  ---------------      ----- ------------  ---------------
    36      4.587889  3 C  s                 54      2.280746  4 C  pz         
    51     -2.076772  4 C  s                  6     -0.906347  1 O  s          
    21     -0.906347  2 O  s                 39      0.648105  3 C  pz         
     8     -0.540063  1 O  py                23      0.540063  2 O  py         
     9     -0.379273  1 O  pz                24     -0.379273  2 O  pz         

 Vector   21  Occ=0.000000D+00  E= 5.527940D-01
              MO Center=  8.3D-16,  2.0D-12,  3.6D-01, r^2= 4.0D+00
   Bfn.  Coefficient  Atom+Function         Bfn.  Coefficient  Atom+Function  
  ----- ------------  ---------------      ----- ------------  ---------------
    39      3.340549  3 C  pz                51     -3.303639  4 C  s          
    54      2.308162  4 C  pz                 6      1.275416  1 O  s          
    21      1.275416  2 O  s                 36      0.808236  3 C  s          
     8      0.801133  1 O  py                23     -0.801133  2 O  py         
    35      0.297324  3 C  pz                32      0.247387  3 C  s          

 Vector   22  Occ=0.000000D+00  E= 5.822953D-01
              MO Center=  1.4D-16, -2.2D-12,  3.1D-01, r^2= 3.4D+00
   Bfn.  Coefficient  Atom+Function         Bfn.  Coefficient  Atom+Function  
  ----- ------------  ---------------      ----- ------------  ---------------
    38      2.866316  3 C  py                 6      1.539689  1 O  s          
    21     -1.539689  2 O  s                 53     -1.546672  4 C  py         
    62     -0.981698  5 H  s                 64      0.981698  6 H  s          
     9      0.698696  1 O  pz                24     -0.698696  2 O  pz         
     8      0.474586  1 O  py                23      0.474586  2 O  py         

 Vector   23  Occ=0.000000D+00  E= 8.398675D-01
              MO Center= -3.5D-15,  2.7D-14,  7.6D-01, r^2= 2.2D+00
   Bfn.  Coefficient  Atom+Function         Bfn.  Coefficient  Atom+Function  
  ----- ------------  ---------------      ----- ------------  ---------------
    48      0.821884  4 C  px                37     -0.731696  3 C  px         
    33      0.638930  3 C  px                52     -0.620592  4 C  px         

 Vector   24  Occ=0.000000D+00  E= 8.864036D-01
              MO Center= -8.3D-16,  9.8D-13, -1.7D-01, r^2= 2.4D+00
   Bfn.  Coefficient  Atom+Function         Bfn.  Coefficient  Atom+Function  
  ----- ------------  ---------------      ----- ------------  ---------------
    39      1.699918  3 C  pz                51     -1.587361  4 C  s          
    32      0.909169  3 C  s                 36     -0.715362  3 C  s          
     6      0.595848  1 O  s                 21      0.595848  2 O  s          
    35     -0.567530  3 C  pz                50      0.285349  4 C  pz         
    61      0.250569  5 H  s                 63      0.250569  6 H  s          

 Vector   25  Occ=0.000000D+00  E= 9.212351D-01
              MO Center= -2.2D-16,  2.7D-12,  6.5D-01, r^2= 2.5D+00
   Bfn.  Coefficient  Atom+Function         Bfn.  Coefficient  Atom+Function  
  ----- ------------  ---------------      ----- ------------  ---------------
    39      2.080295  3 C  pz                36      1.062128  3 C  s          
    47     -0.778708  4 C  s                 54      0.647937  4 C  pz         
    32     -0.579037  3 C  s                 35     -0.392153  3 C  pz         
     6      0.389555  1 O  s                 21      0.389555  2 O  s          
    61     -0.352212  5 H  s                 63     -0.352212  6 H  s          

 Vector   26  Occ=0.000000D+00  E= 9.319632D-01
              MO Center= -3.7D-17, -3.4D-12,  1.0D-01, r^2= 1.9D+00
   Bfn.  Coefficient  Atom+Function         Bfn.  Coefficient  Atom+Function  
  ----- ------------  ---------------      ----- ------------  ---------------
    38      1.230931  3 C  py                34     -1.012812  3 C  py         
    53      0.451446  4 C  py                62      0.424679  5 H  s          
    64     -0.424679  6 H  s                  6      0.396826  1 O  s          
    21     -0.396826  2 O  s                 44     -0.238633  3 C  dyz        
     4     -0.219155  1 O  py                19     -0.219155  2 O  py         


 center of mass
 --------------
 x =   0.00000000 y =   0.00000000 z =  -0.12157608

 moments of inertia (a.u.)
 ------------------
         315.279729958951           0.000000000000           0.000000000000
           0.000000000000         166.017486378855           0.000000000000
           0.000000000000           0.000000000000         149.262243580096

  Mulliken analysis of the total density
  --------------------------------------

    Atom       Charge   Shell Charges
 -----------   ------   -------------------------------------------------------
    1 O    8     9.05   2.00  0.86  2.84  1.04  2.30  0.01
    2 O    8     9.05   2.00  0.86  2.84  1.04  2.30  0.01
    3 C    6     5.27   2.00  0.68  1.76  0.30  0.41  0.11
    4 C    6     6.77   2.00  0.61  2.08  0.59  1.44  0.05
    5 H    1     0.93   0.53  0.40
    6 H    1     0.93   0.53  0.40

       Multipole analysis of the density wrt the origin
       ------------------------------------------------

     L   x y z        total         open         nuclear
     -   - - -        -----         ----         -------
     0   0 0 0     -2.000000      0.000000     30.000000

     1   1 0 0     -0.000000      0.000000      0.000000
     1   0 1 0      0.000000      0.000000      0.000000
     1   0 0 1      1.352448      0.000000      0.000000

     2   2 0 0    -20.833469      0.000000      0.000000
     2   1 1 0      0.000000      0.000000      0.000000
     2   1 0 1     -0.000000      0.000000      0.000000
     2   0 2 0    -28.948152      0.000000     77.702320
     2   0 1 1      0.000000      0.000000      0.000000
     2   0 0 2    -27.516809      0.000000     96.029660


 Parallel integral file used      28 records with       0 large values

                              NWChem Gradients Module
                              -----------------------



  wavefunction    =   RHF     

nuclear repulsion gradient  
     0.000000    10.899005     6.712712
     0.000000   -10.899005     6.712712
     0.000000     0.000000    -1.853417
     0.000000     0.000000    -8.452697
     0.000000     1.616633    -1.559655
     0.000000    -1.616633    -1.559655

weighted density gradient  
     0.000000     0.278145     0.215657
    -0.000000    -0.278145     0.215657
    -0.000000     0.000000    -0.143368
     0.000000     0.000000    -0.143716
    -0.000000     0.144237    -0.072115
     0.000000    -0.144237    -0.072115

kinetic energy gradient  
    -0.000000   -23.986633   -15.607775
     0.000000    23.986633   -15.607775
     0.000000    -0.000000     5.579223
    -0.000000    -0.000000    18.657442
    -0.000000    -4.184799     3.489442
     0.000000     4.184799     3.489442

2-electron gradient  
     0.000000    12.854374     8.705886
    -0.000000   -12.854374     8.705886
    -0.000000     0.000000    -3.478352
     0.000000    -0.000000   -10.149996
     0.000000     2.485801    -1.891712
    -0.000000    -2.485801    -1.891712

nuclear-cosmo charge gradient  
    -0.000000     0.500826     0.296763
    -0.000000    -0.500826     0.296763
     0.000000    -0.000000    -0.105704
    -0.000000     0.000000    -0.407160
     0.000000     0.024883    -0.040330
     0.000000    -0.024883    -0.040330

electron-cosmo charge gradient  
     0.000000    -0.591864    -0.371674
     0.000000     0.591864    -0.371674
    -0.000000    -0.000000     0.146384
     0.000000     0.000000     0.456055
    -0.000000    -0.084702     0.070454
     0.000000     0.084702     0.070454

cosmo charge-cosmo charge gradient  
    -0.000000     0.016774     0.007802
    -0.000000    -0.016774     0.007802
     0.000000    -0.000000    -0.001334
    -0.000000    -0.000000    -0.012689
     0.000000     0.000578    -0.000790
     0.000000    -0.000578    -0.000790

total RHF gradient
     0.000000    -0.029373    -0.040629
    -0.000000     0.029373    -0.040629
     0.000000     0.000000     0.143432
    -0.000000    -0.000000    -0.052761
    -0.000000     0.002631    -0.004706
    -0.000000    -0.002631    -0.004706



                         RHF ENERGY GRADIENTS

    atom               coordinates                        gradient
                 x          y          z           x          y          z
   1 o       0.000000  -2.114790  -1.410936    0.000000  -0.029373  -0.040629
   2 o       0.000000   2.114790  -1.410936   -0.000000   0.029373  -0.040629
   3 c       0.000000   0.000000   0.032212    0.000000   0.000000   0.143432
   4 c       0.000000   0.000000   2.543256   -0.000000  -0.000000  -0.052761
   5 h       0.000000  -1.752848   3.561086   -0.000000   0.002631  -0.004706
   6 h       0.000000   1.752848   3.561086   -0.000000  -0.002631  -0.004706

                 ----------------------------------------
                 |  Time  |  1-e(secs)   |  2-e(secs)   |
                 ----------------------------------------
                 |  CPU   |       0.01   |       0.38   |
                 ----------------------------------------
                 |  WALL  |       0.01   |       0.38   |
                 ----------------------------------------

 Task  times  cpu:        1.7s     wall:        1.7s


                                NWChem Input Module
                                -------------------


 Summary of allocated global arrays
-----------------------------------
  No active global arrays



                         GA Statistics for process    0
                         ------------------------------

       create   destroy   get      put      acc     scatter   gather  read&inc
calls:  715      715     1.15e+04 2111     3936        0        0      235     
number of processes/call -7.93e+14 1.32e+14 1.49e+13 0.00e+00 0.00e+00
bytes total:             1.65e+07 5.66e+06 4.17e+06 0.00e+00 0.00e+00 1.88e+03
bytes remote:            8.23e+06 1.13e+06 2.07e+06 0.00e+00 0.00e+00 0.00e+00
Max memory consumed for GA by this process: 166648 bytes

MA_summarize_allocated_blocks: starting scan ...
MA_summarize_allocated_blocks: scan completed: 0 heap blocks, 0 stack blocks
MA usage statistics:

	allocation statistics:
					      heap	     stack
					      ----	     -----
	current number of blocks	         0	         0
	maximum number of blocks	        21	        31
	current total bytes		         0	         0
	maximum total bytes		  10512840	  32895976
	maximum total K-bytes		     10513	     32896
	maximum total M-bytes		        11	        33


                                     CITATION
                                     --------
                Please cite the following reference when publishing
                           results obtained with NWChem:

          E. Apra, E. J. Bylaska, W. A. de Jong, N. Govind, K. Kowalski,
       T. P. Straatsma, M. Valiev, H. J. J. van Dam, Y. Alexeev, J. Anchell,
       V. Anisimov, F. W. Aquino, R. Atta-Fynn, J. Autschbach, N. P. Bauman,
     J. C. Becca, D. E. Bernholdt, K. Bhaskaran-Nair, S. Bogatko, P. Borowski,
         J. Boschen, J. Brabec, A. Bruner, E. Cauet, Y. Chen, G. N. Chuev,
      C. J. Cramer, J. Daily, M. J. O. Deegan, T. H. Dunning Jr., M. Dupuis,
   K. G. Dyall, G. I. Fann, S. A. Fischer, A. Fonari, H. Fruchtl, L. Gagliardi,
      J. Garza, N. Gawande, S. Ghosh, K. Glaesemann, A. W. Gotz, J. Hammond,
       V. Helms, E. D. Hermes, K. Hirao, S. Hirata, M. Jacquelin, L. Jensen,
   B. G. Johnson, H. Jonsson, R. A. Kendall, M. Klemm, R. Kobayashi, V. Konkov,
      S. Krishnamoorthy, M. Krishnan, Z. Lin, R. D. Lins, R. J. Littlefield,
      A. J. Logsdail, K. Lopata, W. Ma, A. V. Marenich, J. Martin del Campo,
   D. Mejia-Rodriguez, J. E. Moore, J. M. Mullin, T. Nakajima, D. R. Nascimento,
    J. A. Nichols, P. J. Nichols, J. Nieplocha, A. Otero-de-la-Roza, B. Palmer,
    A. Panyala, T. Pirojsirikul, B. Peng, R. Peverati, J. Pittner, L. Pollack,
   R. M. Richard, P. Sadayappan, G. C. Schatz, W. A. Shelton, D. W. Silverstein,
   D. M. A. Smith, T. A. Soares, D. Song, M. Swart, H. L. Taylor, G. S. Thomas,
            V. Tipparaju, D. G. Truhlar, K. Tsemekhman, T. Van Voorhis,
      A. Vazquez-Mayagoitia, P. Verma, O. Villa, A. Vishnu, K. D. Vogiatzis,
        D. Wang, J. H. Weare, M. J. Williamson, T. L. Windus, K. Wolinski,
        A. T. Wong, Q. Wu, C. Yang, Q. Yu, M. Zacharias, Z. Zhang, Y. Zhao,
                                and R. J. Harrison
                        "NWChem: Past, present, and future
                         J. Chem. Phys. 152, 184102 (2020)
                               doi:10.1063/5.0004997

                                      AUTHORS
                                      -------
     E. Apra, E. J. Bylaska, N. Govind, K. Kowalski, M. Valiev, W. A. de Jong,
      T. P. Straatsma, H. J. J. van Dam, D. Wang, T. L. Windus, N. P. Bauman,
       A. Panyala, J. Hammond, J. Autschbach, K. Bhaskaran-Nair, J. Brabec,
    K. Lopata, S. A. Fischer, S. Krishnamoorthy, M. Jacquelin, W. Ma, M. Klemm,
       O. Villa, Y. Chen, V. Anisimov, F. Aquino, S. Hirata, M. T. Hackler,
           Eric Hermes, L. Jensen, J. E. Moore, J. C. Becca, V. Konjkov,
            D. Mejia-Rodriguez, T. Risthaus, M. Malagoli, A. Marenich,
   A. Otero-de-la-Roza, J. Mullin, P. Nichols, R. Peverati, J. Pittner, Y. Zhao,
        P.-D. Fan, A. Fonari, M. J. Williamson, R. J. Harrison, J. R. Rehr,
      M. Dupuis, D. Silverstein, D. M. A. Smith, J. Nieplocha, V. Tipparaju,
      M. Krishnan, B. E. Van Kuiken, A. Vazquez-Mayagoitia, M. Swart, Q. Wu,
   T. Van Voorhis, A. A. Auer, M. Nooijen, L. D. Crosby, E. Brown, G. Cisneros,
     G. I. Fann, H. Fruchtl, J. Garza, K. Hirao, R. A. Kendall, J. A. Nichols,
       K. Tsemekhman, K. Wolinski, J. Anchell, D. E. Bernholdt, P. Borowski,
       T. Clark, D. Clerc, H. Dachsel, M. J. O. Deegan, K. Dyall, D. Elwood,
      E. Glendening, M. Gutowski, A. C. Hess, J. Jaffe, B. G. Johnson, J. Ju,
        R. Kobayashi, R. Kutteh, Z. Lin, R. Littlefield, X. Long, B. Meng,
      T. Nakajima, S. Niu, L. Pollack, M. Rosing, K. Glaesemann, G. Sandrone,
      M. Stave, H. Taylor, G. Thomas, J. H. van Lenthe, A. T. Wong, Z. Zhang.

 Total times  cpu:        1.7s     wall:        1.7s
