All connections between all procs tested: SUCCESS
 argument  1 = esp_uhf.nw



============================== echo of input deck ==============================
Start  esp_uhf

echo

geometry units angstrom
 C                       -0.13679785    -0.00481189    -0.80451624
 H                        0.62578531    -0.32160812    -1.51482880
 H                       -1.10127411    -0.29207360    -1.22130351
 H                       -0.24376144     1.99990092    -1.63329973
 C                       -0.08716714     1.52944913    -0.66684011
 H                        0.87650355     1.85170899    -0.28321287
 H                       -0.85831843     1.88131524     0.01227783
 S                        0.12188493    -0.79841229     0.79712325
 H                        0.02330765    -2.04199613     0.33466897
end

ecce_print ecce.out

basis "ao basis" cartesian print
 H library 6-31g*
 C library 6-31g*
 S library 6-31g*
end

scf
  uhf
  nopen 0
end

driver
end

task scf energy

esp
 restrain hyperbolic
 constrain equal 2 3 4
 constrain equal 6 7
end

task esp
================================================================================


                                         
                                         


              Northwest Computational Chemistry Package (NWChem) 6.3
              ------------------------------------------------------


                    Environmental Molecular Sciences Laboratory
                       Pacific Northwest National Laboratory
                                Richland, WA 99352

                              Copyright (c) 1994-2013
                       Pacific Northwest National Laboratory
                            Battelle Memorial Institute

             NWChem is an open-source computational chemistry package
                        distributed under the terms of the
                      Educational Community License (ECL) 2.0
             A copy of the license is included with this distribution
                              in the LICENSE.TXT file

                                  ACKNOWLEDGMENT
                                  --------------

            This software and its documentation were developed at the
            EMSL at Pacific Northwest National Laboratory, a multiprogram
            national laboratory, operated for the U.S. Department of Energy
            by Battelle under Contract Number DE-AC05-76RL01830. Support
            for this work was provided by the Department of Energy Office
            of Biological and Environmental Research, Office of Basic
            Energy Sciences, and the Office of Advanced Scientific Computing.


           Job information
           ---------------

    hostname        = arcen
    program         = ../../../bin/LINUX64/nwchem
    date            = Wed Sep 25 10:53:50 2013

    compiled        = Tue_Sep_24_14:15:10_2013
    source          = /home/d3y133/nwchem-dev/nwchem-dev-2013-09-10
    nwchem branch   = Development
    nwchem revision = 24582
    ga revision     = 10418
    input           = esp_uhf.nw
    prefix          = esp_uhf.
    data base       = ./esp_uhf.db
    status          = startup
    nproc           =        4
    time left       =     -1s



           Memory information
           ------------------

    heap     =   13107201 doubles =    100.0 Mbytes
    stack    =   13107201 doubles =    100.0 Mbytes
    global   =   26214400 doubles =    200.0 Mbytes (distinct from heap & stack)
    total    =   52428802 doubles =    400.0 Mbytes
    verify   = yes
    hardfail = no 


           Directory information
           ---------------------

  0 permanent = .
  0 scratch   = .




                                NWChem Input Module
                                -------------------



 Scaling coordinates for geometry "geometry" by  1.889725989
 (inverse scale =  0.529177249)

 CS  symmetry detected

          ------
          auto-z
          ------


                             Geometry "geometry" -> ""
                             -------------------------

 Output coordinates in angstroms (scale by  1.889725989 to convert to a.u.)

  No.       Tag          Charge          X              Y              Z
 ---- ---------------- ---------- -------------- -------------- --------------
    1 C                    6.0000    -0.64216868    -0.48506303     0.00000000
    2 H                    1.0000    -1.28246145    -0.58006499     0.87603704
    3 H                    1.0000    -1.28246145    -0.58006499    -0.87603704
    4 H                    1.0000    -0.12969595    -2.59564788     0.00000000
    5 C                    6.0000     0.38149817    -1.63722664     0.00000000
    6 H                    1.0000     1.01630211    -1.58970698     0.88002813
    7 H                    1.0000     1.01630211    -1.58970698    -0.88002813
    8 S                   16.0000     0.19662108     1.11443663     0.00000000
    9 H                    1.0000    -0.91989958     1.83794374     0.00000000

      Atomic Mass 
      ----------- 

      C                 12.000000
      H                  1.007825
      S                 31.972070


 Effective nuclear repulsion energy (a.u.)     107.6002906789

            Nuclear Dipole moment (a.u.) 
            ----------------------------
        X                 Y               Z
 ---------------- ---------------- ----------------
     0.0000000000     0.0000000000     0.0000000000

      Symmetry information
      --------------------

 Group name             Cs        
 Group number              2
 Group order               2
 No. of unique centers     7

      Symmetry unique atoms

     1    2    4    5    6    8    9



                                Z-matrix (autoz)
                                -------- 

 Units are Angstrom for bonds and degrees for angles

      Type          Name      I     J     K     L     M      Value
      ----------- --------  ----- ----- ----- ----- ----- ----------
    1 Stretch                  1     2                       1.08924
    2 Stretch                  1     3                       1.08924
    3 Stretch                  1     5                       1.54122
    4 Stretch                  1     8                       1.80609
    5 Stretch                  4     5                       1.08623
    6 Stretch                  5     6                       1.08613
    7 Stretch                  5     7                       1.08613
    8 Stretch                  8     9                       1.33044
    9 Bend                     1     5     4               110.30559
   10 Bend                     1     5     6               110.82334
   11 Bend                     1     5     7               110.82334
   12 Bend                     1     8     9                95.27044
   13 Bend                     2     1     3               107.07874
   14 Bend                     2     1     5               108.97969
   15 Bend                     2     1     8               110.50236
   16 Bend                     3     1     5               108.97969
   17 Bend                     3     1     8               110.50236
   18 Bend                     4     5     6               108.27993
   19 Bend                     4     5     7               108.27993
   20 Bend                     5     1     8               110.70690
   21 Bend                     6     5     7               108.23881
   22 Torsion                  2     1     5     4          58.26652
   23 Torsion                  2     1     5     6         -61.63738
   24 Torsion                  2     1     5     7         178.17042
   25 Torsion                  2     1     8     9         -59.16584
   26 Torsion                  3     1     5     4         -58.26652
   27 Torsion                  3     1     5     6        -178.17042
   28 Torsion                  3     1     5     7          61.63738
   29 Torsion                  3     1     8     9          59.16584
   30 Torsion                  4     5     1     8         180.00000
   31 Torsion                  5     1     8     9         180.00000
   32 Torsion                  6     5     1     8          60.09610
   33 Torsion                  7     5     1     8         -60.09610


            XYZ format geometry
            -------------------
     9
 geometry
 C                    -0.64216868    -0.48506303     0.00000000
 H                    -1.28246145    -0.58006499     0.87603704
 H                    -1.28246145    -0.58006499    -0.87603704
 H                    -0.12969595    -2.59564788     0.00000000
 C                     0.38149817    -1.63722664     0.00000000
 H                     1.01630211    -1.58970698     0.88002813
 H                     1.01630211    -1.58970698    -0.88002813
 S                     0.19662108     1.11443663     0.00000000
 H                    -0.91989958     1.83794374     0.00000000

 ==============================================================================
                                internuclear distances
 ------------------------------------------------------------------------------
       center one      |      center two      | atomic units |  angstroms
 ------------------------------------------------------------------------------
    2 H                |   1 C                |     2.05836  |     1.08924
    3 H                |   1 C                |     2.05836  |     1.08924
    5 C                |   1 C                |     2.91249  |     1.54123
    5 C                |   4 H                |     2.05267  |     1.08623
    6 H                |   5 C                |     2.05249  |     1.08613
    7 H                |   5 C                |     2.05249  |     1.08613
    8 S                |   1 C                |     3.41302  |     1.80609
    9 H                |   8 S                |     2.51417  |     1.33044
 ------------------------------------------------------------------------------
                         number of included internuclear distances:          8
 ==============================================================================



 ==============================================================================
                                 internuclear angles
 ------------------------------------------------------------------------------
        center 1       |       center 2       |       center 3       |  degrees
 ------------------------------------------------------------------------------
    2 H                |   1 C                |   3 H                |   107.08
    2 H                |   1 C                |   5 C                |   108.98
    2 H                |   1 C                |   8 S                |   110.50
    3 H                |   1 C                |   5 C                |   108.98
    3 H                |   1 C                |   8 S                |   110.50
    5 C                |   1 C                |   8 S                |   110.71
    1 C                |   5 C                |   4 H                |   110.31
    1 C                |   5 C                |   6 H                |   110.82
    1 C                |   5 C                |   7 H                |   110.82
    4 H                |   5 C                |   6 H                |   108.28
    4 H                |   5 C                |   7 H                |   108.28
    6 H                |   5 C                |   7 H                |   108.24
    1 C                |   8 S                |   9 H                |    95.27
 ------------------------------------------------------------------------------
                            number of included internuclear angles:         13
 ==============================================================================



                      Basis "ao basis" -> "" (cartesian)
                      -----
  H (Hydrogen)
  ------------
            Exponent  Coefficients 
       -------------- ---------------------------------------------------------
  1 S  1.87311370E+01  0.033495
  1 S  2.82539370E+00  0.234727
  1 S  6.40121700E-01  0.813757

  2 S  1.61277800E-01  1.000000

  C (Carbon)
  ----------
            Exponent  Coefficients 
       -------------- ---------------------------------------------------------
  1 S  3.04752490E+03  0.001835
  1 S  4.57369510E+02  0.014037
  1 S  1.03948690E+02  0.068843
  1 S  2.92101550E+01  0.232184
  1 S  9.28666300E+00  0.467941
  1 S  3.16392700E+00  0.362312

  2 S  7.86827240E+00 -0.119332
  2 S  1.88128850E+00 -0.160854
  2 S  5.44249300E-01  1.143456

  3 P  7.86827240E+00  0.068999
  3 P  1.88128850E+00  0.316424
  3 P  5.44249300E-01  0.744308

  4 S  1.68714400E-01  1.000000

  5 P  1.68714400E-01  1.000000

  6 D  8.00000000E-01  1.000000

  S (Sulphur)
  -----------
            Exponent  Coefficients 
       -------------- ---------------------------------------------------------
  1 S  2.19171000E+04  0.001869
  1 S  3.30149000E+03  0.014230
  1 S  7.54146000E+02  0.069696
  1 S  2.12711000E+02  0.238487
  1 S  6.79896000E+01  0.483307
  1 S  2.30515000E+01  0.338074

  2 S  4.23735000E+02 -0.002377
  2 S  1.00710000E+02 -0.031693
  2 S  3.21599000E+01 -0.113317
  2 S  1.18079000E+01  0.056090
  2 S  4.63110000E+00  0.592255
  2 S  1.87025000E+00  0.455006

  3 P  4.23735000E+02  0.004061
  3 P  1.00710000E+02  0.030681
  3 P  3.21599000E+01  0.130452
  3 P  1.18079000E+01  0.327205
  3 P  4.63110000E+00  0.452851
  3 P  1.87025000E+00  0.256042

  4 S  2.61584000E+00 -0.250374
  4 S  9.22167000E-01  0.066957
  4 S  3.41287000E-01  1.054510

  5 P  2.61584000E+00 -0.014511
  5 P  9.22167000E-01  0.310263
  5 P  3.41287000E-01  0.754483

  6 S  1.17167000E-01  1.000000

  7 P  1.17167000E-01  1.000000

  8 D  6.50000000E-01  1.000000



 Summary of "ao basis" -> "" (cartesian)
 ------------------------------------------------------------------------------
       Tag                 Description            Shells   Functions and Types
 ---------------- ------------------------------  ------  ---------------------
 H                           6-31g*                  2        2   2s
 C                           6-31g*                  6       15   3s2p1d
 S                           6-31g*                  8       19   4s3p1d


                                 NWChem SCF Module
                                 -----------------



  ao basis        = "ao basis"
  functions       =    61
  atoms           =     9
  alpha electrons =    17
  beta  electrons =    17
  charge          =   0.00
  wavefunction    = UHF 
  input vectors   = atomic
  output vectors  = ./esp_uhf.movecs
  use symmetry    = T
  symmetry adapt  = T


 Summary of "ao basis" -> "ao basis" (cartesian)
 ------------------------------------------------------------------------------
       Tag                 Description            Shells   Functions and Types
 ---------------- ------------------------------  ------  ---------------------
 H                           6-31g*                  2        2   2s
 C                           6-31g*                  6       15   3s2p1d
 S                           6-31g*                  8       19   4s3p1d


      Symmetry analysis of basis
      --------------------------

        a'         44
        a"         17


 Forming initial guess at       1.1s


      Superposition of Atomic Density Guess
      -------------------------------------

 Sum of atomic energies:        -475.76558448

      Non-variational initial energy
      ------------------------------

 Total energy =    -477.420798
 1-e energy   =    -866.710232
 2-e energy   =     281.689143
 HOMO         =      -0.279370
 LUMO         =       0.069197


   Symmetry analysis of molecular orbitals - initial alpha
   -------------------------------------------------------

  Numbering of irreducible representations: 

     1 a'          2 a"      

  Orbital symmetries:

     1 a'          2 a'          3 a'          4 a'          5 a'      
     6 a'          7 a"          8 a'          9 a'         10 a'      
    11 a'         12 a"         13 a'         14 a"         15 a'      
    16 a'         17 a"         18 a'         19 a'         20 a'      
    21 a'         22 a"         23 a'         24 a"         25 a'      
    26 a'         27 a'      


   Symmetry analysis of molecular orbitals - initial beta
   ------------------------------------------------------

  Numbering of irreducible representations: 

     1 a'          2 a"      

  Orbital symmetries:

     1 a'          2 a'          3 a'          4 a'          5 a'      
     6 a'          7 a"          8 a'          9 a'         10 a'      
    11 a'         12 a"         13 a'         14 a"         15 a'      
    16 a'         17 a"         18 a'         19 a'         20 a'      
    21 a'         22 a"         23 a'         24 a"         25 a'      
    26 a'         27 a'      


 Starting SCF solution at       1.3s



 ----------------------------------------------
         Quadratically convergent UHF

 Convergence threshold     :          1.000E-04
 Maximum no. of iterations :           30
 Integral*density screening:          1.000E-07
 ----------------------------------------------


 Integral file          = ./esp_uhf.aoints.0
 Record size in doubles =  65536        No. of integs per rec  =  43688
 Max. records in memory =     11        Max. records in file   =   7257
 No. of bits per label  =      8        No. of bits per value  =     64


 #quartets = 8.785D+04 #integrals = 9.116D+05 #direct =  0.0% #cached =100.0%


File balance: exchanges=     0  moved=     0  time=   0.0


              iter       energy          gnorm     gmax       time
             ----- ------------------- --------- --------- --------
                 1     -476.6977389203  4.37D-01  7.03D-02      0.5
                 2     -476.7347514505  2.67D-02  6.06D-03      0.6
                 3     -476.7349086723  6.39D-04  1.04D-04      0.7
                 4     -476.7349087827  2.89D-06  4.22D-07      0.8


       Final UHF  results 
       ------------------ 

         Total SCF energy =   -476.734908782711
      One electron energy =   -869.242676299945
      Two electron energy =    284.907476838313
 Nuclear repulsion energy =    107.600290678921

                       Sz =      0.0000
                 Sz(Sz+1) =      0.0000
                      S^2 =      0.0000

        Time for solution =      0.6s



       Symmetry analysis of molecular orbitals - alpha
       -----------------------------------------------

  Numbering of irreducible representations: 

     1 a'          2 a"      

  Orbital symmetries:

     1 a'          2 a'          3 a'          4 a'          5 a'      
     6 a'          7 a"          8 a'          9 a'         10 a'      
    11 a"         12 a'         13 a'         14 a"         15 a'      
    16 a'         17 a"         18 a'         19 a'         20 a'      
    21 a"         22 a'         23 a'         24 a"         25 a'      
    26 a'         27 a'      


       Symmetry analysis of molecular orbitals - beta
       ----------------------------------------------

  Numbering of irreducible representations: 

     1 a'          2 a"      

  Orbital symmetries:

     1 a'          2 a'          3 a'          4 a'          5 a'      
     6 a'          7 a"          8 a'          9 a'         10 a'      
    11 a"         12 a'         13 a'         14 a"         15 a'      
    16 a'         17 a"         18 a'         19 a'         20 a'      
    21 a"         22 a'         23 a'         24 a"         25 a'      
    26 a'         27 a'      

          Final alpha eigenvalues
          -----------------------

              1      
    1  -91.9359
    2  -11.2616
    3  -11.2272
    4   -8.9484
    5   -6.6315
    6   -6.6299
    7   -6.6276
    8   -1.0721
    9   -0.9478
   10   -0.8193
   11   -0.6293
   12   -0.6189
   13   -0.5404
   14   -0.5157
   15   -0.5012
   16   -0.4537
   17   -0.3536
   18    0.1740
   19    0.2360
   20    0.2615
   21    0.2906
   22    0.2936
   23    0.3253
   24    0.3291
   25    0.3701
   26    0.5314
   27    0.5472

          Final beta eigenvalues
          ----------------------

              1      
    1  -91.9359
    2  -11.2616
    3  -11.2272
    4   -8.9484
    5   -6.6315
    6   -6.6299
    7   -6.6276
    8   -1.0721
    9   -0.9478
   10   -0.8193
   11   -0.6293
   12   -0.6189
   13   -0.5404
   14   -0.5157
   15   -0.5012
   16   -0.4537
   17   -0.3536
   18    0.1740
   19    0.2360
   20    0.2615
   21    0.2906
   22    0.2936
   23    0.3253
   24    0.3291
   25    0.3701
   26    0.5314
   27    0.5472

                    UHF Final Alpha Molecular Orbital Analysis
                    ------------------------------------------

 Vector    8  Occ=1.000000D+00  E=-1.072121D+00  Symmetry=a'
              MO Center= -2.2D-01, -3.8D-01,  4.8D-17, r^2= 1.8D+00
   Bfn.  Coefficient  Atom+Function         Bfn.  Coefficient  Atom+Function  
  ----- ------------  ---------------      ----- ------------  ---------------
    46      0.317637  8 S  s                  2      0.265881  1 C  s          
     6      0.247721  1 C  s                 23      0.192902  5 C  s          
    27      0.168104  5 C  s                 42     -0.167651  8 S  s          

 Vector    9  Occ=1.000000D+00  E=-9.478336D-01  Symmetry=a'
              MO Center=  1.0D-01, -2.5D-01,  1.3D-16, r^2= 3.2D+00
   Bfn.  Coefficient  Atom+Function         Bfn.  Coefficient  Atom+Function  
  ----- ------------  ---------------      ----- ------------  ---------------
    46      0.449734  8 S  s                 27     -0.260127  5 C  s          
    23     -0.254885  5 C  s                 42     -0.230277  8 S  s          
    50      0.186893  8 S  s          

 Vector   10  Occ=1.000000D+00  E=-8.192682D-01  Symmetry=a'
              MO Center= -3.1D-01, -4.6D-01,  3.4D-17, r^2= 3.0D+00
   Bfn.  Coefficient  Atom+Function         Bfn.  Coefficient  Atom+Function  
  ----- ------------  ---------------      ----- ------------  ---------------
     6      0.302267  1 C  s                 46     -0.302097  8 S  s          
     2      0.241459  1 C  s                 27     -0.198309  5 C  s          
    50     -0.167666  8 S  s                 23     -0.160539  5 C  s          

 Vector   11  Occ=1.000000D+00  E=-6.293018D-01  Symmetry=a"
              MO Center= -2.9D-01, -8.8D-01, -1.0D-15, r^2= 2.1D+00
   Bfn.  Coefficient  Atom+Function         Bfn.  Coefficient  Atom+Function  
  ----- ------------  ---------------      ----- ------------  ---------------
     5      0.343489  1 C  pz                26      0.269616  5 C  pz         
     9      0.177179  1 C  pz                16      0.167563  2 H  s          
    18     -0.167563  3 H  s          

 Vector   12  Occ=1.000000D+00  E=-6.188503D-01  Symmetry=a'
              MO Center= -1.7D-01, -5.0D-01,  1.2D-17, r^2= 3.3D+00
   Bfn.  Coefficient  Atom+Function         Bfn.  Coefficient  Atom+Function  
  ----- ------------  ---------------      ----- ------------  ---------------
    48      0.286499  8 S  py                25     -0.256681  5 C  py         
     3     -0.239880  1 C  px                20      0.183562  4 H  s          
    60      0.163059  9 H  s                 47     -0.156764  8 S  px         
    61      0.152252  9 H  s          

 Vector   13  Occ=1.000000D+00  E=-5.403502D-01  Symmetry=a'
              MO Center=  1.7D-01, -9.6D-01, -8.4D-16, r^2= 2.8D+00
   Bfn.  Coefficient  Atom+Function         Bfn.  Coefficient  Atom+Function  
  ----- ------------  ---------------      ----- ------------  ---------------
    24      0.372461  5 C  px                47     -0.221627  8 S  px         
     3     -0.203185  1 C  px                28      0.188989  5 C  px         
    46     -0.159520  8 S  s          

 Vector   14  Occ=1.000000D+00  E=-5.156722D-01  Symmetry=a"
              MO Center=  1.1D-01, -1.2D+00, -9.1D-17, r^2= 2.4D+00
   Bfn.  Coefficient  Atom+Function         Bfn.  Coefficient  Atom+Function  
  ----- ------------  ---------------      ----- ------------  ---------------
    26      0.348589  5 C  pz                 5     -0.262027  1 C  pz         
    30      0.211294  5 C  pz                37      0.199059  6 H  s          
    39     -0.199059  7 H  s                 38      0.170913  6 H  s          
    40     -0.170913  7 H  s                  9     -0.165585  1 C  pz         

 Vector   15  Occ=1.000000D+00  E=-5.012111D-01  Symmetry=a'
              MO Center= -1.7D-01, -3.7D-01, -1.5D-16, r^2= 3.2D+00
   Bfn.  Coefficient  Atom+Function         Bfn.  Coefficient  Atom+Function  
  ----- ------------  ---------------      ----- ------------  ---------------
    25     -0.323806  5 C  py                48     -0.323392  8 S  py         
     4      0.299583  1 C  py                61     -0.207786  9 H  s          
    60     -0.181693  9 H  s                  8      0.180376  1 C  py         
    29     -0.178672  5 C  py                20      0.157603  4 H  s          

 Vector   16  Occ=1.000000D+00  E=-4.536575D-01  Symmetry=a'
              MO Center=  9.8D-02,  6.1D-01,  7.0D-16, r^2= 2.6D+00
   Bfn.  Coefficient  Atom+Function         Bfn.  Coefficient  Atom+Function  
  ----- ------------  ---------------      ----- ------------  ---------------
    47      0.476161  8 S  px                50      0.296624  8 S  s          
    48      0.233539  8 S  py                 3     -0.226553  1 C  px         
    46      0.215541  8 S  s                 43     -0.182929  8 S  px         
    51      0.183046  8 S  px                 4     -0.165846  1 C  py         

 Vector   17  Occ=1.000000D+00  E=-3.535637D-01  Symmetry=a"
              MO Center=  1.0D-01,  9.9D-01, -3.1D-16, r^2= 1.9D+00
   Bfn.  Coefficient  Atom+Function         Bfn.  Coefficient  Atom+Function  
  ----- ------------  ---------------      ----- ------------  ---------------
    49      0.672087  8 S  pz                53      0.448905  8 S  pz         
    45     -0.251844  8 S  pz         

 Vector   18  Occ=0.000000D+00  E= 1.740072D-01  Symmetry=a'
              MO Center=  1.5D-03,  6.8D-01, -9.1D-16, r^2= 4.2D+00
   Bfn.  Coefficient  Atom+Function         Bfn.  Coefficient  Atom+Function  
  ----- ------------  ---------------      ----- ------------  ---------------
     6      1.253932  1 C  s                 52      1.034266  8 S  py         
    61     -0.986409  9 H  s                 27      0.546534  5 C  s          
    17     -0.384759  2 H  s                 19     -0.384759  3 H  s          
    21     -0.341495  4 H  s                  8      0.316343  1 C  py         
    48      0.307722  8 S  py                51     -0.277385  8 S  px         

 Vector   19  Occ=0.000000D+00  E= 2.359751D-01  Symmetry=a'
              MO Center= -2.4D-01,  9.5D-01,  2.9D-16, r^2= 4.3D+00
   Bfn.  Coefficient  Atom+Function         Bfn.  Coefficient  Atom+Function  
  ----- ------------  ---------------      ----- ------------  ---------------
    50      1.472587  8 S  s                 61     -1.476684  9 H  s          
    51     -1.252722  8 S  px                 6     -1.214628  1 C  s          
     8     -0.679236  1 C  py                21     -0.429228  4 H  s          
    52     -0.349459  8 S  py                47     -0.294694  8 S  px         
    38      0.279176  6 H  s                 40      0.279176  7 H  s          

 Vector   20  Occ=0.000000D+00  E= 2.614626D-01  Symmetry=a'
              MO Center= -1.5D-01, -9.2D-01,  1.4D-15, r^2= 5.7D+00
   Bfn.  Coefficient  Atom+Function         Bfn.  Coefficient  Atom+Function  
  ----- ------------  ---------------      ----- ------------  ---------------
    27      1.933986  5 C  s                 21     -1.028434  4 H  s          
     7     -0.963446  1 C  px                17     -0.855163  2 H  s          
    19     -0.855163  3 H  s                 38     -0.734519  6 H  s          
    40     -0.734519  7 H  s                 52     -0.719578  8 S  py         
     6      0.489456  1 C  s                 61      0.366455  9 H  s          

 Vector   21  Occ=0.000000D+00  E= 2.906090D-01  Symmetry=a"
              MO Center= -8.5D-01, -6.3D-01,  1.3D-15, r^2= 4.2D+00
   Bfn.  Coefficient  Atom+Function         Bfn.  Coefficient  Atom+Function  
  ----- ------------  ---------------      ----- ------------  ---------------
    17     -1.467215  2 H  s                 19      1.467215  3 H  s          
     9      1.349686  1 C  pz                38     -0.568245  6 H  s          
    40      0.568245  7 H  s                 53     -0.315874  8 S  pz         
     5      0.287114  1 C  pz                30      0.283073  5 C  pz         

 Vector   22  Occ=0.000000D+00  E= 2.935514D-01  Symmetry=a'
              MO Center= -1.2D-01, -1.0D+00,  4.4D-16, r^2= 5.3D+00
   Bfn.  Coefficient  Atom+Function         Bfn.  Coefficient  Atom+Function  
  ----- ------------  ---------------      ----- ------------  ---------------
    27     -2.114491  5 C  s                  6      1.936747  1 C  s          
    17     -1.074496  2 H  s                 19     -1.074496  3 H  s          
    38      1.048823  6 H  s                 40      1.048823  7 H  s          
     8     -0.463953  1 C  py                 7     -0.358910  1 C  px         
    21      0.268461  4 H  s                 29     -0.266196  5 C  py         

 Vector   23  Occ=0.000000D+00  E= 3.253316D-01  Symmetry=a'
              MO Center= -1.4D-02, -1.9D+00, -2.7D-16, r^2= 4.6D+00
   Bfn.  Coefficient  Atom+Function         Bfn.  Coefficient  Atom+Function  
  ----- ------------  ---------------      ----- ------------  ---------------
    21      1.936764  4 H  s                 28      1.257062  5 C  px         
    29      0.910505  5 C  py                38     -0.766749  6 H  s          
    40     -0.766749  7 H  s                  8     -0.685765  1 C  py         
    27     -0.536682  5 C  s                 61     -0.497749  9 H  s          
    51     -0.464278  8 S  px                 6      0.460965  1 C  s          

 Vector   24  Occ=0.000000D+00  E= 3.290884D-01  Symmetry=a"
              MO Center=  6.3D-01, -1.4D+00,  6.2D-16, r^2= 4.0D+00
   Bfn.  Coefficient  Atom+Function         Bfn.  Coefficient  Atom+Function  
  ----- ------------  ---------------      ----- ------------  ---------------
    30      1.605249  5 C  pz                38     -1.581669  6 H  s          
    40      1.581669  7 H  s                  9     -0.959733  1 C  pz         
    17      0.722746  2 H  s                 19     -0.722746  3 H  s          
    26      0.282979  5 C  pz                53      0.156496  8 S  pz         

 Vector   25  Occ=0.000000D+00  E= 3.700659D-01  Symmetry=a'
              MO Center= -5.1D-04, -8.8D-01,  1.5D-17, r^2= 3.7D+00
   Bfn.  Coefficient  Atom+Function         Bfn.  Coefficient  Atom+Function  
  ----- ------------  ---------------      ----- ------------  ---------------
     6      1.392489  1 C  s                 29     -1.388827  5 C  py         
     7      1.322722  1 C  px                 8     -1.204052  1 C  py         
    28      1.138604  5 C  px                27     -1.091996  5 C  s          
    21     -0.441398  4 H  s                 38     -0.316483  6 H  s          
    40     -0.316483  7 H  s                 17      0.310833  2 H  s          

 Vector   26  Occ=0.000000D+00  E= 5.314338D-01  Symmetry=a'
              MO Center= -1.9D-01,  1.3D+00, -5.7D-16, r^2= 2.9D+00
   Bfn.  Coefficient  Atom+Function         Bfn.  Coefficient  Atom+Function  
  ----- ------------  ---------------      ----- ------------  ---------------
    50      2.903287  8 S  s                 46     -1.311177  8 S  s          
    51     -1.211309  8 S  px                61     -0.870661  9 H  s          
     8     -0.769853  1 C  py                17     -0.465260  2 H  s          
    19     -0.465260  3 H  s                 48     -0.462977  8 S  py         
    28      0.367333  5 C  px                 7     -0.277951  1 C  px         

 Vector   27  Occ=0.000000D+00  E= 5.472061D-01  Symmetry=a'
              MO Center=  5.8D-01,  8.5D-01, -1.7D-16, r^2= 3.7D+00
   Bfn.  Coefficient  Atom+Function         Bfn.  Coefficient  Atom+Function  
  ----- ------------  ---------------      ----- ------------  ---------------
    51     -1.031714  8 S  px                47      1.019844  8 S  px         
    50     -0.755163  8 S  s                 46      0.536078  8 S  s          
    28     -0.336807  5 C  px                27     -0.311199  5 C  s          
    21      0.298376  4 H  s                 38      0.294347  6 H  s          
    40      0.294347  7 H  s                 52      0.265111  8 S  py         


                     UHF Final Beta Molecular Orbital Analysis
                     -----------------------------------------

 Vector    8  Occ=1.000000D+00  E=-1.072121D+00  Symmetry=a'
              MO Center= -2.2D-01, -3.8D-01,  4.2D-17, r^2= 1.8D+00
   Bfn.  Coefficient  Atom+Function         Bfn.  Coefficient  Atom+Function  
  ----- ------------  ---------------      ----- ------------  ---------------
    46      0.317637  8 S  s                  2      0.265881  1 C  s          
     6      0.247721  1 C  s                 23      0.192902  5 C  s          
    27      0.168104  5 C  s                 42     -0.167651  8 S  s          

 Vector    9  Occ=1.000000D+00  E=-9.478336D-01  Symmetry=a'
              MO Center=  1.0D-01, -2.5D-01,  1.4D-16, r^2= 3.2D+00
   Bfn.  Coefficient  Atom+Function         Bfn.  Coefficient  Atom+Function  
  ----- ------------  ---------------      ----- ------------  ---------------
    46      0.449734  8 S  s                 27     -0.260127  5 C  s          
    23     -0.254885  5 C  s                 42     -0.230277  8 S  s          
    50      0.186893  8 S  s          

 Vector   10  Occ=1.000000D+00  E=-8.192682D-01  Symmetry=a'
              MO Center= -3.1D-01, -4.6D-01,  3.3D-17, r^2= 3.0D+00
   Bfn.  Coefficient  Atom+Function         Bfn.  Coefficient  Atom+Function  
  ----- ------------  ---------------      ----- ------------  ---------------
     6      0.302267  1 C  s                 46     -0.302097  8 S  s          
     2      0.241459  1 C  s                 27     -0.198309  5 C  s          
    50     -0.167666  8 S  s                 23     -0.160539  5 C  s          

 Vector   11  Occ=1.000000D+00  E=-6.293018D-01  Symmetry=a"
              MO Center= -2.9D-01, -8.8D-01, -1.1D-15, r^2= 2.1D+00
   Bfn.  Coefficient  Atom+Function         Bfn.  Coefficient  Atom+Function  
  ----- ------------  ---------------      ----- ------------  ---------------
     5      0.343489  1 C  pz                26      0.269616  5 C  pz         
     9      0.177179  1 C  pz                16      0.167563  2 H  s          
    18     -0.167563  3 H  s          

 Vector   12  Occ=1.000000D+00  E=-6.188503D-01  Symmetry=a'
              MO Center= -1.7D-01, -5.0D-01,  1.4D-17, r^2= 3.3D+00
   Bfn.  Coefficient  Atom+Function         Bfn.  Coefficient  Atom+Function  
  ----- ------------  ---------------      ----- ------------  ---------------
    48      0.286499  8 S  py                25     -0.256681  5 C  py         
     3     -0.239880  1 C  px                20      0.183562  4 H  s          
    60      0.163059  9 H  s                 47     -0.156764  8 S  px         
    61      0.152252  9 H  s          

 Vector   13  Occ=1.000000D+00  E=-5.403502D-01  Symmetry=a'
              MO Center=  1.7D-01, -9.6D-01, -2.3D-15, r^2= 2.8D+00
   Bfn.  Coefficient  Atom+Function         Bfn.  Coefficient  Atom+Function  
  ----- ------------  ---------------      ----- ------------  ---------------
    24      0.372461  5 C  px                47     -0.221627  8 S  px         
     3     -0.203185  1 C  px                28      0.188989  5 C  px         
    46     -0.159520  8 S  s          

 Vector   14  Occ=1.000000D+00  E=-5.156722D-01  Symmetry=a"
              MO Center=  1.1D-01, -1.2D+00,  7.1D-16, r^2= 2.4D+00
   Bfn.  Coefficient  Atom+Function         Bfn.  Coefficient  Atom+Function  
  ----- ------------  ---------------      ----- ------------  ---------------
    26      0.348589  5 C  pz                 5     -0.262027  1 C  pz         
    30      0.211294  5 C  pz                37      0.199059  6 H  s          
    39     -0.199059  7 H  s                 38      0.170913  6 H  s          
    40     -0.170913  7 H  s                  9     -0.165585  1 C  pz         

 Vector   15  Occ=1.000000D+00  E=-5.012111D-01  Symmetry=a'
              MO Center= -1.7D-01, -3.7D-01, -1.5D-16, r^2= 3.2D+00
   Bfn.  Coefficient  Atom+Function         Bfn.  Coefficient  Atom+Function  
  ----- ------------  ---------------      ----- ------------  ---------------
    25     -0.323806  5 C  py                48     -0.323392  8 S  py         
     4      0.299583  1 C  py                61     -0.207786  9 H  s          
    60     -0.181693  9 H  s                  8      0.180376  1 C  py         
    29     -0.178672  5 C  py                20      0.157603  4 H  s          

 Vector   16  Occ=1.000000D+00  E=-4.536575D-01  Symmetry=a'
              MO Center=  9.8D-02,  6.1D-01,  1.3D-16, r^2= 2.6D+00
   Bfn.  Coefficient  Atom+Function         Bfn.  Coefficient  Atom+Function  
  ----- ------------  ---------------      ----- ------------  ---------------
    47      0.476161  8 S  px                50      0.296624  8 S  s          
    48      0.233539  8 S  py                 3     -0.226553  1 C  px         
    46      0.215541  8 S  s                 43     -0.182929  8 S  px         
    51      0.183046  8 S  px                 4     -0.165846  1 C  py         

 Vector   17  Occ=1.000000D+00  E=-3.535637D-01  Symmetry=a"
              MO Center=  1.0D-01,  9.9D-01,  7.0D-16, r^2= 1.9D+00
   Bfn.  Coefficient  Atom+Function         Bfn.  Coefficient  Atom+Function  
  ----- ------------  ---------------      ----- ------------  ---------------
    49      0.672087  8 S  pz                53      0.448905  8 S  pz         
    45     -0.251844  8 S  pz         

 Vector   18  Occ=0.000000D+00  E= 1.740072D-01  Symmetry=a'
              MO Center=  1.5D-03,  6.8D-01,  1.6D-16, r^2= 4.2D+00
   Bfn.  Coefficient  Atom+Function         Bfn.  Coefficient  Atom+Function  
  ----- ------------  ---------------      ----- ------------  ---------------
     6      1.253932  1 C  s                 52      1.034266  8 S  py         
    61     -0.986409  9 H  s                 27      0.546534  5 C  s          
    17     -0.384759  2 H  s                 19     -0.384759  3 H  s          
    21     -0.341495  4 H  s                  8      0.316343  1 C  py         
    48      0.307722  8 S  py                51     -0.277385  8 S  px         

 Vector   19  Occ=0.000000D+00  E= 2.359751D-01  Symmetry=a'
              MO Center= -2.4D-01,  9.5D-01,  2.0D-16, r^2= 4.3D+00
   Bfn.  Coefficient  Atom+Function         Bfn.  Coefficient  Atom+Function  
  ----- ------------  ---------------      ----- ------------  ---------------
    50      1.472587  8 S  s                 61     -1.476684  9 H  s          
    51     -1.252722  8 S  px                 6     -1.214628  1 C  s          
     8     -0.679236  1 C  py                21     -0.429228  4 H  s          
    52     -0.349459  8 S  py                47     -0.294694  8 S  px         
    38      0.279176  6 H  s                 40      0.279176  7 H  s          

 Vector   20  Occ=0.000000D+00  E= 2.614626D-01  Symmetry=a'
              MO Center= -1.5D-01, -9.2D-01,  1.4D-15, r^2= 5.7D+00
   Bfn.  Coefficient  Atom+Function         Bfn.  Coefficient  Atom+Function  
  ----- ------------  ---------------      ----- ------------  ---------------
    27      1.933986  5 C  s                 21     -1.028434  4 H  s          
     7     -0.963446  1 C  px                17     -0.855163  2 H  s          
    19     -0.855163  3 H  s                 38     -0.734519  6 H  s          
    40     -0.734519  7 H  s                 52     -0.719578  8 S  py         
     6      0.489456  1 C  s                 61      0.366455  9 H  s          

 Vector   21  Occ=0.000000D+00  E= 2.906090D-01  Symmetry=a"
              MO Center= -8.5D-01, -6.3D-01,  8.5D-17, r^2= 4.2D+00
   Bfn.  Coefficient  Atom+Function         Bfn.  Coefficient  Atom+Function  
  ----- ------------  ---------------      ----- ------------  ---------------
    17     -1.467215  2 H  s                 19      1.467215  3 H  s          
     9      1.349686  1 C  pz                38     -0.568245  6 H  s          
    40      0.568245  7 H  s                 53     -0.315874  8 S  pz         
     5      0.287114  1 C  pz                30      0.283073  5 C  pz         

 Vector   22  Occ=0.000000D+00  E= 2.935514D-01  Symmetry=a'
              MO Center= -1.2D-01, -1.0D+00,  3.7D-15, r^2= 5.3D+00
   Bfn.  Coefficient  Atom+Function         Bfn.  Coefficient  Atom+Function  
  ----- ------------  ---------------      ----- ------------  ---------------
    27     -2.114491  5 C  s                  6      1.936747  1 C  s          
    17     -1.074496  2 H  s                 19     -1.074496  3 H  s          
    38      1.048823  6 H  s                 40      1.048823  7 H  s          
     8     -0.463953  1 C  py                 7     -0.358910  1 C  px         
    21      0.268461  4 H  s                 29     -0.266196  5 C  py         

 Vector   23  Occ=0.000000D+00  E= 3.253316D-01  Symmetry=a'
              MO Center= -1.4D-02, -1.9D+00, -1.2D-16, r^2= 4.6D+00
   Bfn.  Coefficient  Atom+Function         Bfn.  Coefficient  Atom+Function  
  ----- ------------  ---------------      ----- ------------  ---------------
    21      1.936764  4 H  s                 28      1.257062  5 C  px         
    29      0.910505  5 C  py                38     -0.766749  6 H  s          
    40     -0.766749  7 H  s                  8     -0.685765  1 C  py         
    27     -0.536682  5 C  s                 61     -0.497749  9 H  s          
    51     -0.464278  8 S  px                 6      0.460965  1 C  s          

 Vector   24  Occ=0.000000D+00  E= 3.290884D-01  Symmetry=a"
              MO Center=  6.3D-01, -1.4D+00, -4.5D-15, r^2= 4.0D+00
   Bfn.  Coefficient  Atom+Function         Bfn.  Coefficient  Atom+Function  
  ----- ------------  ---------------      ----- ------------  ---------------
    30      1.605249  5 C  pz                38     -1.581669  6 H  s          
    40      1.581669  7 H  s                  9     -0.959733  1 C  pz         
    17      0.722746  2 H  s                 19     -0.722746  3 H  s          
    26      0.282979  5 C  pz                53      0.156496  8 S  pz         

 Vector   25  Occ=0.000000D+00  E= 3.700659D-01  Symmetry=a'
              MO Center= -5.1D-04, -8.8D-01,  7.3D-18, r^2= 3.7D+00
   Bfn.  Coefficient  Atom+Function         Bfn.  Coefficient  Atom+Function  
  ----- ------------  ---------------      ----- ------------  ---------------
     6      1.392489  1 C  s                 29     -1.388827  5 C  py         
     7      1.322722  1 C  px                 8     -1.204052  1 C  py         
    28      1.138604  5 C  px                27     -1.091996  5 C  s          
    21     -0.441398  4 H  s                 38     -0.316483  6 H  s          
    40     -0.316483  7 H  s                 17      0.310833  2 H  s          

 Vector   26  Occ=0.000000D+00  E= 5.314338D-01  Symmetry=a'
              MO Center= -1.9D-01,  1.3D+00, -6.2D-15, r^2= 2.9D+00
   Bfn.  Coefficient  Atom+Function         Bfn.  Coefficient  Atom+Function  
  ----- ------------  ---------------      ----- ------------  ---------------
    50      2.903287  8 S  s                 46     -1.311177  8 S  s          
    51     -1.211309  8 S  px                61     -0.870661  9 H  s          
     8     -0.769853  1 C  py                17     -0.465260  2 H  s          
    19     -0.465260  3 H  s                 48     -0.462977  8 S  py         
    28      0.367333  5 C  px                 7     -0.277951  1 C  px         

 Vector   27  Occ=0.000000D+00  E= 5.472061D-01  Symmetry=a'
              MO Center=  5.8D-01,  8.5D-01, -2.0D-16, r^2= 3.7D+00
   Bfn.  Coefficient  Atom+Function         Bfn.  Coefficient  Atom+Function  
  ----- ------------  ---------------      ----- ------------  ---------------
    51     -1.031714  8 S  px                47      1.019844  8 S  px         
    50     -0.755163  8 S  s                 46      0.536078  8 S  s          
    28     -0.336807  5 C  px                27     -0.311199  5 C  s          
    21      0.298376  4 H  s                 38      0.294347  6 H  s          
    40      0.294347  7 H  s                 52      0.265111  8 S  py         


 center of mass
 --------------
 x =   0.04765659 y =   0.15314993 z =   0.00000000

 moments of inertia (a.u.)
 ------------------
         333.412904731359           0.000000377313           0.000000000000
           0.000000377313          61.659458383987           0.000000000000
           0.000000000000           0.000000000000         372.875260092329

  Mulliken analysis of the total density
  --------------------------------------

    Atom       Charge   Shell Charges
 -----------   ------   -------------------------------------------------------
    1 C    6     6.46   2.00  0.63  2.00  0.67  1.07  0.08
    2 H    1     0.81   0.53  0.28
    3 H    1     0.81   0.53  0.28
    4 H    1     0.83   0.52  0.30
    5 C    6     6.50   2.00  0.63  2.06  0.66  1.08  0.08
    6 H    1     0.82   0.52  0.30
    7 H    1     0.82   0.52  0.30
    8 S   16    16.05   2.00  2.00  5.98  1.26  2.99  0.57  1.15  0.11
    9 H    1     0.91   0.51  0.41

  Mulliken analysis of the alpha density
  --------------------------------------

    Atom       Charge   Shell Charges
 -----------   ------   -------------------------------------------------------
    1 C    6     3.23   1.00  0.31  1.00  0.34  0.54  0.04
    2 H    1     0.40   0.26  0.14
    3 H    1     0.40   0.26  0.14
    4 H    1     0.41   0.26  0.15
    5 C    6     3.25   1.00  0.31  1.03  0.33  0.54  0.04
    6 H    1     0.41   0.26  0.15
    7 H    1     0.41   0.26  0.15
    8 S   16     8.03   1.00  1.00  2.99  0.63  1.50  0.28  0.58  0.06
    9 H    1     0.46   0.25  0.20

   Mulliken analysis of the beta density
   -------------------------------------

    Atom       Charge   Shell Charges
 -----------   ------   -------------------------------------------------------
    1 C    6     3.23   1.00  0.31  1.00  0.34  0.54  0.04
    2 H    1     0.40   0.26  0.14
    3 H    1     0.40   0.26  0.14
    4 H    1     0.41   0.26  0.15
    5 C    6     3.25   1.00  0.31  1.03  0.33  0.54  0.04
    6 H    1     0.41   0.26  0.15
    7 H    1     0.41   0.26  0.15
    8 S   16     8.03   1.00  1.00  2.99  0.63  1.50  0.28  0.58  0.06
    9 H    1     0.46   0.25  0.20

   Mulliken analysis of the spin density
   -------------------------------------

    Atom       Charge   Shell Charges
 -----------   ------   -------------------------------------------------------
    1 C    6     0.00   0.00  0.00  0.00  0.00  0.00  0.00
    2 H    1     0.00   0.00  0.00
    3 H    1     0.00   0.00  0.00
    4 H    1     0.00   0.00  0.00
    5 C    6     0.00   0.00  0.00  0.00  0.00  0.00  0.00
    6 H    1     0.00   0.00  0.00
    7 H    1     0.00   0.00  0.00
    8 S   16     0.00   0.00  0.00  0.00  0.00  0.00  0.00  0.00  0.00
    9 H    1     0.00   0.00  0.00

       Multipole analysis of the density wrt the origin
       ------------------------------------------------

     L   x y z        total         alpha         beta         nuclear
     -   - - -        -----         -----         ----         -------
     0   0 0 0      0.000000    -17.000000    -17.000000     34.000000

     1   1 0 0     -0.565400     -0.282700     -0.282700      0.000000
     1   0 1 0     -0.414333     -0.207166     -0.207166      0.000000
     1   0 0 1      0.000000      0.000000      0.000000      0.000000

     2   2 0 0    -20.117201    -28.242955    -28.242955     36.368709
     2   1 1 0     -1.333792      1.958183      1.958183     -5.250158
     2   1 0 1      0.000000      0.000000      0.000000      0.000000
     2   0 2 0    -19.833979   -104.923369   -104.923369    190.012760
     2   0 1 1      0.000000      0.000000      0.000000      0.000000
     2   0 0 2    -21.776802    -16.394591    -16.394591     11.012380


 Parallel integral file used      23 records with       0 large values


 Task  times  cpu:        0.8s     wall:        1.3s


                                NWChem Input Module
                                -------------------




                     NWChem Electrostatic Potential Fit Module
                     -----------------------------------------


 Atom parameters

 Number of atoms is                                    9
 Number of basis functions is                         61


 Grid parameters

 Maximum number of grid points is                   2325
 Number of grid points is                           2324
 Grid range                                     0.300000 nm
 Grid spacing                                   0.050000 nm
 Probe radius                                   0.070000 nm
 Atom radius factor                             1.000000


 Constraint parameters

 Constraint charge    0.000000 on atoms   -2    3
 Constraint charge    0.000000 on atoms   -2    4
 Constraint charge    0.000000 on atoms   -6    7


 Restraint parameters

 Hyperbolic restraint to zero charge
    with scaling                 0.001000
         tightness               0.100000
         maximum iterations     25
         tolerance               0.000100


 Atomic radii

    1    0.100000
    6    0.147000
   16    0.174000
 Stage 2 constraint charge     0.000000 on atoms   -2H     3H 
 Stage 2 constraint charge     0.000000 on atoms   -2H     4H 
 Stage 2 constraint charge     0.000000 on atoms   -6H     7H 

 Possible fit problem: singular constraint matrix


 Possible fit problem: singular constraint matrix


 Possible fit problem: singular constraint matrix



    Atom        Coordinates                           Charge

                                      ESP         ESP         RESP        RESP        RESP2 
                                                 constr                  constr      constr 
 
    1 C   -0.064  -0.049   0.000    0.241864    0.232262    0.226344    0.227292    0.226213
    2 H   -0.128  -0.058   0.088   -0.024535   -0.021982   -0.020185   -0.020315   -0.030246
    3 H   -0.128  -0.058  -0.088   -0.024286   -0.021982   -0.019943   -0.020315   -0.030246
    4 H   -0.013  -0.260   0.000   -0.018744   -0.021982   -0.020578   -0.020315   -0.030246
    5 C    0.038  -0.164   0.000   -0.000997    0.010466    0.008111    0.007169    0.142186
    6 H    0.102  -0.159   0.088    0.022679    0.020972    0.020979    0.021826   -0.030246
    7 H    0.102  -0.159  -0.088    0.023965    0.020972    0.022312    0.021826   -0.030246
    8 S    0.020   0.111   0.000   -0.412536   -0.411560   -0.408995   -0.409105   -0.409105
    9 H   -0.092   0.184   0.000    0.192590    0.192835    0.191956    0.191936    0.191936
                                ------------------------------------------------------------
                                    0.000000    0.000000    0.000000    0.000000    0.000000

 Dipole moment                      0.703842    0.703418    0.702734    0.702772    0.763503

 Quadrupole moment Qxx             -0.217569   -0.204353   -0.210508   -0.211776   -0.923609
                   Qyy              1.549803    1.533178    1.550710    1.552095    2.598258
                   Qzz             -1.332234   -1.328825   -1.340202   -1.340320   -1.674650

 RMS deviation kJ/mol               0.349329    0.349356    0.349365    0.349371    0.360332

 ABS deviation %                  103.782252  104.725726  103.913880  104.041259  137.649258

 Task  times  cpu:        0.4s     wall:        1.0s
 Summary of allocated global arrays
-----------------------------------
  No active global arrays



                         GA Statistics for process    0
                         ------------------------------

       create   destroy   get      put      acc     scatter   gather  read&inc
calls:  649      649     7354     2506     4564       82        0     1511     
number of processes/call 1.39e+00 1.45e+00 1.14e+00 2.44e+00 0.00e+00
bytes total:             1.40e+07 4.90e+06 4.31e+06 4.10e+04 0.00e+00 1.21e+04
bytes remote:            8.65e+06 1.60e+06 2.85e+06 -1.14e+05 0.00e+00 0.00e+00
Max memory consumed for GA by this process: 208264 bytes
MA_summarize_allocated_blocks: starting scan ...
MA_summarize_allocated_blocks: scan completed: 0 heap blocks, 0 stack blocks
MA usage statistics:

	allocation statistics:
					      heap	     stack
					      ----	     -----
	current number of blocks	         0	         0
	maximum number of blocks	        18	        20
	current total bytes		         0	         0
	maximum total bytes		   5792072	  22511952
	maximum total K-bytes		      5793	     22512
	maximum total M-bytes		         6	        23


                                NWChem Input Module
                                -------------------





                                     CITATION
                                     --------
                Please cite the following reference when publishing
                           results obtained with NWChem:

                 M. Valiev, E.J. Bylaska, N. Govind, K. Kowalski,
              T.P. Straatsma, H.J.J. van Dam, D. Wang, J. Nieplocha,
                        E. Apra, T.L. Windus, W.A. de Jong
                 "NWChem: a comprehensive and scalable open-source
                  solution for large scale molecular simulations"
                      Comput. Phys. Commun. 181, 1477 (2010)
                           doi:10.1016/j.cpc.2010.04.018

                              AUTHORS & CONTRIBUTORS
                              ----------------------
          E. Apra, E. J. Bylaska, W. A. de Jong, N. Govind, K. Kowalski,
       T. P. Straatsma, M. Valiev, H. J. J. van Dam, D. Wang, T. L. Windus,
        J. Hammond, J. Autschbach, K. Bhaskaran-Nair, J. Brabec, K. Lopata,
     F. Aquino, S. Hirata, M. T. Hackler, T. Risthaus, M. Malagoli, J. Mullin,
        P. Nichols, R. Peverati, J. Pittner, Y. Zhao, P.-D. Fan, A. Fonari,
     R. J. Harrison, M. Dupuis, D. Silverstein, D. M. A. Smith, J. Nieplocha,
       V. Tipparaju, M. Krishnan, B. E. Van Kuiken,  A. Vazquez-Mayagoitia,
        L. Jensen, M. Swart, Q. Wu, T. Van Voorhis, A. A. Auer, M. Nooijen,
      L. D. Crosby, E. Brown, G. Cisneros, G. I. Fann, H. Fruchtl, J. Garza,
   K. Hirao, R. Kendall, J. A. Nichols, K. Tsemekhman, K. Wolinski, J. Anchell,
       D. Bernholdt, P. Borowski, T. Clark, D. Clerc, H. Dachsel, M. Deegan,
        K. Dyall, D. Elwood, E. Glendening, M. Gutowski, A. Hess, J. Jaffe,
   B. Johnson, J. Ju, R. Kobayashi, R. Kutteh, Z. Lin, R. Littlefield, X. Long,
        B. Meng,T. Nakajima, S. Niu, L. Pollack, M. Rosing, K. Glaesemann,
      G. Sandrone, M. Stave, H. Taylor, G. Thomas, J. H. van Lenthe, A. Wong,
                                     Z.Zhang.

 Total times  cpu:        1.2s     wall:        3.4s
