 argument  1 = ch3f_notrans_cosmo.nw
All connections between all procs tested: SUCCESS
 


============================== echo of input deck ==============================
echo

start ch3f_notrans_cosmo_dat
title ch3f_notrans_cosmo

geometry noautoz units angstrom nocenter
symmetry c1
c  0.0    0.0    0.0
f  0.0    0.0    1.383
h  1.028  0.0   -0.350
h -0.514  0.890 -0.350
h -0.514 -0.890 -0.350
end

BASIS "ao basis" PRINT
* library 6-311G
END

charge 0

dft
 direct
 xc b3lyp
 print cosmo_energies
end

cosmo
 dielec 78
end

property
 shielding
end

task dft property
================================================================================


                                         
                                         
 
 
              Northwest Computational Chemistry Package (NWChem) 6.5
              ------------------------------------------------------
 
 
                    Environmental Molecular Sciences Laboratory
                       Pacific Northwest National Laboratory
                                Richland, WA 99352
 
                              Copyright (c) 1994-2013
                       Pacific Northwest National Laboratory
                            Battelle Memorial Institute
 
             NWChem is an open-source computational chemistry package
                        distributed under the terms of the
                      Educational Community License (ECL) 2.0
             A copy of the license is included with this distribution
                              in the LICENSE.TXT file
 
                                  ACKNOWLEDGMENT
                                  --------------

            This software and its documentation were developed at the
            EMSL at Pacific Northwest National Laboratory, a multiprogram
            national laboratory, operated for the U.S. Department of Energy
            by Battelle under Contract Number DE-AC05-76RL01830. Support
            for this work was provided by the Department of Energy Office
            of Biological and Environmental Research, Office of Basic
            Energy Sciences, and the Office of Advanced Scientific Computing.


           Job information
           ---------------

    hostname        = arcen
    program         = ../../../bin/LINUX64/nwchem
    date            = Thu Oct 16 12:31:41 2014

    compiled        = Thu_Oct_16_12:14:56_2014
    source          = /home/d3y133/nwchem-dev/nwchem-newest
    nwchem branch   = Development
    nwchem revision = 26300
    ga revision     = 10506
    input           = ch3f_notrans_cosmo.nw
    prefix          = ch3f_notrans_cosmo_dat.
    data base       = ./ch3f_notrans_cosmo_dat.db
    status          = startup
    nproc           =        1
    time left       =     -1s



           Memory information
           ------------------

    heap     =   13107196 doubles =    100.0 Mbytes
    stack    =   13107201 doubles =    100.0 Mbytes
    global   =   26214400 doubles =    200.0 Mbytes (distinct from heap & stack)
    total    =   52428797 doubles =    400.0 Mbytes
    verify   = yes
    hardfail = no 


           Directory information
           ---------------------
 
  0 permanent = .
  0 scratch   = .
 
 
 
 
                                NWChem Input Module
                                -------------------
 
 
                                ch3f_notrans_cosmo
                                ------------------

 Scaling coordinates for geometry "geometry" by  1.889725989
 (inverse scale =  0.529177249)

 Turning off AUTOSYM since
 SYMMETRY directive was detected!
 
 
 
                             Geometry "geometry" -> ""
                             -------------------------
 
 Output coordinates in angstroms (scale by  1.889725989 to convert to a.u.)
 
  No.       Tag          Charge          X              Y              Z
 ---- ---------------- ---------- -------------- -------------- --------------
    1 c                    6.0000     0.00000000     0.00000000     0.00000000
    2 f                    9.0000     0.00000000     0.00000000     1.38300000
    3 h                    1.0000     1.02800000     0.00000000    -0.35000000
    4 h                    1.0000    -0.51400000     0.89000000    -0.35000000
    5 h                    1.0000    -0.51400000    -0.89000000    -0.35000000
 
      Atomic Mass 
      ----------- 
 
      c                 12.000000
      f                 18.998400
      h                  1.007825
 

 Effective nuclear repulsion energy (a.u.)      37.4174025949

            Nuclear Dipole moment (a.u.) 
            ----------------------------
        X                 Y               Z
 ---------------- ---------------- ----------------
     0.0000000000     0.0000000000    21.5372070918
 
 
            XYZ format geometry
            -------------------
     5
 geometry
 c                     0.00000000     0.00000000     0.00000000
 f                     0.00000000     0.00000000     1.38300000
 h                     1.02800000     0.00000000    -0.35000000
 h                    -0.51400000     0.89000000    -0.35000000
 h                    -0.51400000    -0.89000000    -0.35000000
 
 ==============================================================================
                                internuclear distances
 ------------------------------------------------------------------------------
       center one      |      center two      | atomic units |  angstroms
 ------------------------------------------------------------------------------
    2 f                |   1 c                |     2.61349  |     1.38300
    3 h                |   1 c                |     2.05214  |     1.08595
    4 h                |   1 c                |     2.05172  |     1.08572
    5 h                |   1 c                |     2.05172  |     1.08572
 ------------------------------------------------------------------------------
                         number of included internuclear distances:          4
 ==============================================================================



 ==============================================================================
                                 internuclear angles
 ------------------------------------------------------------------------------
        center 1       |       center 2       |       center 3       |  degrees
 ------------------------------------------------------------------------------
    2 f                |   1 c                |   3 h                |   108.80
    2 f                |   1 c                |   4 h                |   108.81
    2 f                |   1 c                |   5 h                |   108.81
    3 h                |   1 c                |   4 h                |   110.14
    3 h                |   1 c                |   5 h                |   110.14
    4 h                |   1 c                |   5 h                |   110.12
 ------------------------------------------------------------------------------
                            number of included internuclear angles:          6
 ==============================================================================





 Summary of "ao basis" -> "" (cartesian)
 ------------------------------------------------------------------------------
       Tag                 Description            Shells   Functions and Types
 ---------------- ------------------------------  ------  ---------------------
 *                           6-311G                   on all atoms 


                              NWChem Property Module
                              ----------------------
 
 
                                ch3f_notrans_cosmo
 
  itol2e modified to match energy
  convergence criterion.
 
                                 NWChem DFT Module
                                 -----------------
 
 
                                ch3f_notrans_cosmo
 
 
                      Basis "ao basis" -> "ao basis" (cartesian)
                      -----
  c (Carbon)
  ----------
            Exponent  Coefficients 
       -------------- ---------------------------------------------------------
  1 S  4.56324000E+03  0.001967
  1 S  6.82024000E+02  0.015231
  1 S  1.54973000E+02  0.076127
  1 S  4.44553000E+01  0.260801
  1 S  1.30290000E+01  0.616462
  1 S  1.82773000E+00  0.221006
 
  2 S  2.09642000E+01  0.114660
  2 S  4.80331000E+00  0.919999
  2 S  1.45933000E+00 -0.003031
 
  3 P  2.09642000E+01  0.040249
  3 P  4.80331000E+00  0.237594
  3 P  1.45933000E+00  0.815854
 
  4 S  4.83456000E-01  1.000000
 
  5 P  4.83456000E-01  1.000000
 
  6 S  1.45585000E-01  1.000000
 
  7 P  1.45585000E-01  1.000000
 
  f (Fluorine)
  ------------
            Exponent  Coefficients 
       -------------- ---------------------------------------------------------
  1 S  1.14271000E+04  0.001801
  1 S  1.72235000E+03  0.013742
  1 S  3.95746000E+02  0.068133
  1 S  1.15139000E+02  0.233325
  1 S  3.36026000E+01  0.589086
  1 S  4.91901000E+00  0.299505
 
  2 S  5.54441000E+01  0.114536
  2 S  1.26323000E+01  0.920512
  2 S  3.71756000E+00 -0.003378
 
  3 P  5.54441000E+01  0.035461
  3 P  1.26323000E+01  0.237451
  3 P  3.71756000E+00  0.820458
 
  4 S  1.16545000E+00  1.000000
 
  5 P  1.16545000E+00  1.000000
 
  6 S  3.21892000E-01  1.000000
 
  7 P  3.21892000E-01  1.000000
 
  h (Hydrogen)
  ------------
            Exponent  Coefficients 
       -------------- ---------------------------------------------------------
  1 S  3.38650000E+01  0.025494
  1 S  5.09479000E+00  0.190373
  1 S  1.15879000E+00  0.852161
 
  2 S  3.25840000E-01  1.000000
 
  3 S  1.02741000E-01  1.000000
 


 Summary of "ao basis" -> "ao basis" (cartesian)
 ------------------------------------------------------------------------------
       Tag                 Description            Shells   Functions and Types
 ---------------- ------------------------------  ------  ---------------------
 c                           6-311G                  7       13   4s3p
 f                           6-311G                  7       13   4s3p
 h                           6-311G                  3        3   3s




 Summary of "ao basis" -> "ao basis" (cartesian)
 ------------------------------------------------------------------------------
       Tag                 Description            Shells   Functions and Types
 ---------------- ------------------------------  ------  ---------------------
 c                           6-311G                  7       13   4s3p
 f                           6-311G                  7       13   4s3p
 h                           6-311G                  3        3   3s


 
 solvent parameters
 solvname_short: h2o     
 solvname_long:  water                              
 dielec:       78.0000
 dielecinf:     1.7769

          ---------------
          -cosmo- solvent
          ---------------
 Cosmo: York-Karplus, doi: 10.1021/jp992097l
 dielectric constant -eps-     =  78.00
 screen = (eps-1)/(eps    )    =   0.98718
 surface charge correction     = lagrangian
 -lineq- algorithm             =   0
 -bem- low  level              =   2
 -bem- from -octahedral-
 gaussian surface charge width =   0.98000
 degree of switching           =   1.00000
 switching function tolerance  =   0.00010
 atomic radii = 
 --------------
    1  6.000  2.000
    2  9.000  1.720
    3  1.000  1.300
    4  1.000  1.300
    5  1.000  1.300

 solvent accessible surface
 --------------------------

 ---------- ATOMIC COORDINATES (A.U.) ------------ VDWR(ANG.) --
     1    0.00000000    0.00000000    0.00000000     2.000
     2    0.00000000    0.00000000    2.61349104     1.720
     3    1.94263832    0.00000000   -0.66140410     1.300
     4   -0.97131916    1.68185613   -0.66140410     1.300
     5   -0.97131916   -1.68185613   -0.66140410     1.300
 number of segments per atom =         32
 number of   points per atom =        640
 atom (   nspa,  nppa )
 ----------------------
    1 (     22,     0 )       0
    2 (     24,     0 )       0
    3 (     14,     0 )       0
    4 (     14,     0 )       0
    5 (     14,     0 )       0
 number of -cosmo- surface points =       88
 molecular surface =      3.292 angstrom**2
 molecular volume  =      1.878 angstrom**3
 G(cav/disp)       =      0.876 kcal/mol
 ...... end of -cosmo- initialization ......


  Caching 1-el integrals 
 
            General Information
            -------------------
          SCF calculation type: DFT
          Wavefunction type:  closed shell.
          No. of atoms     :     5
          No. of electrons :    18
           Alpha electrons :     9
            Beta electrons :     9
          Charge           :     0
          Spin multiplicity:     1
          Use of symmetry is: off; symmetry adaption is: off
          Maximum number of iterations:  30
          This is a Direct SCF calculation.
          AO basis - number of functions:    35
                     number of shells:    23
          Convergence on energy requested: 1.00D-07
          Convergence on density requested: 1.00D-05
          Convergence on gradient requested: 5.00D-04
 
              XC Information
              --------------
                         B3LYP Method XC Potential
                     Hartree-Fock (Exact) Exchange  0.200          
                        Slater Exchange Functional  0.800 local    
                    Becke 1988 Exchange Functional  0.720 non-local
              Lee-Yang-Parr Correlation Functional  0.810          
                  VWN I RPA Correlation Functional  0.190 local    
 
             Grid Information
             ----------------
          Grid used for XC integration:  fine      
          Radial quadrature: Mura-Knowles        
          Angular quadrature: Lebedev. 
          Tag              B.-S. Rad. Rad. Pts. Rad. Cut. Ang. Pts.
          ---              ---------- --------- --------- ---------
          c                   0.70       70           7.0       590
          f                   0.50       70           7.0       590
          h                   0.35       60           8.0       590
          Grid pruning is: on 
          Number of quadrature shells:   320
          Spatial weights used:  Erf1
 
          Convergence Information
          -----------------------
          Convergence aids based upon iterative change in 
          total energy or number of iterations. 
          Levelshifting, if invoked, occurs when the 
          HOMO/LUMO gap drops below (HL_TOL): 1.00D-02
          DIIS, if invoked, will attempt to extrapolate 
          using up to (NFOCK): 10 stored Fock matrices.

                    Damping( 0%)  Levelshifting(0.5)       DIIS
                  --------------- ------------------- ---------------
          dE  on:    start            ASAP                start   
          dE off:    2 iters         30 iters            30 iters 

 
      Screening Tolerance Information
      -------------------------------
          Density screening/tol_rho: 1.00D-11
          AO Gaussian exp screening on grid/accAOfunc:  16
          CD Gaussian exp screening on grid/accCDfunc:  20
          XC Gaussian exp screening on grid/accXCfunc:  20
          Schwarz screening/accCoul: 1.00D-08

 
      Superposition of Atomic Density Guess
      -------------------------------------
 
 Sum of atomic energies:        -138.57325452
 
      Non-variational initial energy
      ------------------------------

 Total energy =    -139.229769
 1-e energy   =    -264.952728
 2-e energy   =      88.305556
 HOMO         =      -0.441631
 LUMO         =       0.112239
 
   Time after variat. SCF:      0.1
   Time prior to 1st pass:      0.1

 Grid_pts file          = ./ch3f_notrans_cosmo_dat.gridpts.0
 Record size in doubles =  12289        No. of grid_pts per rec  =   3070
 Max. records in memory =     69        Max. recs in file   = *********

 Grid integrated density:      17.999997593301
 Requested integration accuracy:   0.10E-06

           Memory utilization after 1st SCF pass: 
           Heap Space remaining (MW):       12.26            12256860
          Stack Space remaining (MW):       13.11            13106836

   convergence    iter        energy       DeltaE   RMS-Dens  Diis-err    time
 ---------------- ----- ----------------- --------- --------- ---------  ------
     COSMO gas phase
 d= 0,ls=0.0,diis     1   -139.7045924401 -1.77D+02  1.78D-02  5.05D-01     0.8
 Grid integrated density:      17.999997664178
 Requested integration accuracy:   0.10E-06
 d= 0,ls=0.0,diis     2   -139.6932236924  1.14D-02  1.02D-02  6.68D-01     1.4
 d= 0,ls=0.0,diis     3   -139.7494357186 -5.62D-02  1.59D-03  3.42D-02     2.1
 d= 0,ls=0.0,diis     4   -139.7513769988 -1.94D-03  6.05D-04  1.59D-03     2.7
 d= 0,ls=0.0,diis     5   -139.7515473793 -1.70D-04  1.23D-04  7.02D-05     3.4
  Resetting Diis
 d= 0,ls=0.0,diis     6   -139.7515542172 -6.84D-06  5.14D-06  8.51D-08     4.0
 d= 0,ls=0.0,diis     7   -139.7515542264 -9.24D-09  3.97D-07  1.74D-10     4.7
 Alternative 1
 -atmefc- energy =       0.077356304209
 -elcefc- energy =      -0.087488067240
 -efcefc- energy =       0.005065881515
 -lambda- energy =      -0.000000000000
 -solnrg- energy =      -0.005065881515
 -allefc- energy =      -0.010131763031     -0.010131763031
 -ecos  - energy =       0.082422185724
 Alternative 2
 -atmefc- energy =       0.077356304209
 -elcefc- energy =      -0.087488067240
 -allefc- energy =      -0.010131763031
 -solnrg- energy =      -0.005065881515
 -ecos  - energy =       0.082422185724

           Memory utilization after 1st SCF pass: 
           Heap Space remaining (MW):       12.26            12256500
          Stack Space remaining (MW):       13.11            13106836

   convergence    iter        energy       DeltaE   RMS-Dens  Diis-err    time
 ---------------- ----- ----------------- --------- --------- ---------  ------
     COSMO solvation phase
 d= 0,ls=0.0,diis     1   -139.7566201079 -5.07D-03  2.70D-03  2.10D-03     5.5
 Alternative 1
 -atmefc- energy =       0.092432359331
 -elcefc- energy =      -0.105812101063
 -efcefc- energy =       0.006689870866
 -lambda- energy =       0.000000000000
 -solnrg- energy =      -0.006689870866
 -allefc- energy =      -0.013379741732     -0.013379741732
 -ecos  - energy =       0.099122230197
 Alternative 2
 -atmefc- energy =       0.092432359331
 -elcefc- energy =      -0.105812101063
 -allefc- energy =      -0.013379741732
 -solnrg- energy =      -0.006689870866
 -ecos  - energy =       0.099122230197
 d= 0,ls=0.0,diis     2   -139.7571912686 -5.71D-04  5.07D-04  1.65D-03     6.2
 Alternative 1
 -atmefc- energy =       0.090697426194
 -elcefc- energy =      -0.103622198323
 -efcefc- energy =       0.006462386064
 -lambda- energy =      -0.000000000000
 -solnrg- energy =      -0.006462386064
 -allefc- energy =      -0.012924772129     -0.012924772129
 -ecos  - energy =       0.097159812258
 Alternative 2
 -atmefc- energy =       0.090697426194
 -elcefc- energy =      -0.103622198323
 -allefc- energy =      -0.012924772129
 -solnrg- energy =      -0.006462386064
 -ecos  - energy =       0.097159812258
 d= 0,ls=0.0,diis     3   -139.7572992787 -1.08D-04  1.58D-04  2.43D-04     7.0
 Alternative 1
 -atmefc- energy =       0.091072505869
 -elcefc- energy =      -0.104141673983
 -efcefc- energy =       0.006534584057
 -lambda- energy =      -0.000000000000
 -solnrg- energy =      -0.006534584057
 -allefc- energy =      -0.013069168115     -0.013069168115
 -ecos  - energy =       0.097607089926
 Alternative 2
 -atmefc- energy =       0.091072505869
 -elcefc- energy =      -0.104141673983
 -allefc- energy =      -0.013069168115
 -solnrg- energy =      -0.006534584057
 -ecos  - energy =       0.097607089926
 d= 0,ls=0.0,diis     4   -139.7573139612 -1.47D-05  4.63D-05  5.03D-06     7.8
 Alternative 1
 -atmefc- energy =       0.091321285342
 -elcefc- energy =      -0.104413469734
 -efcefc- energy =       0.006546092196
 -lambda- energy =      -0.000000000000
 -solnrg- energy =      -0.006546092196
 -allefc- energy =      -0.013092184392     -0.013092184392
 -ecos  - energy =       0.097867377538
 Alternative 2
 -atmefc- energy =       0.091321285342
 -elcefc- energy =      -0.104413469734
 -allefc- energy =      -0.013092184392
 -solnrg- energy =      -0.006546092196
 -ecos  - energy =       0.097867377538
 d= 0,ls=0.0,diis     5   -139.7573143804 -4.19D-07  1.60D-05  1.70D-06     8.5
 Alternative 1
 -atmefc- energy =       0.091294675064
 -elcefc- energy =      -0.104392671714
 -efcefc- energy =       0.006548998325
 -lambda- energy =       0.000000000000
 -solnrg- energy =      -0.006548998325
 -allefc- energy =      -0.013097996650     -0.013097996650
 -ecos  - energy =       0.097843673389
 Alternative 2
 -atmefc- energy =       0.091294675064
 -elcefc- energy =      -0.104392671714
 -allefc- energy =      -0.013097996650
 -solnrg- energy =      -0.006548998325
 -ecos  - energy =       0.097843673389
 d= 0,ls=0.0,diis     6   -139.7573145806 -2.00D-07  7.00D-07  1.29D-09     9.2
 Alternative 1
 -atmefc- energy =       0.091296310258
 -elcefc- energy =      -0.104394405590
 -efcefc- energy =       0.006549047666
 -lambda- energy =       0.000000000000
 -solnrg- energy =      -0.006549047666
 -allefc- energy =      -0.013098095332     -0.013098095332
 -ecos  - energy =       0.097845357924
 Alternative 2
 -atmefc- energy =       0.091296310258
 -elcefc- energy =      -0.104394405590
 -allefc- energy =      -0.013098095332
 -solnrg- energy =      -0.006549047666
 -ecos  - energy =       0.097845357924
 d= 0,ls=0.0,diis     7   -139.7573145808 -1.72D-10  5.09D-08  5.14D-12     9.9


         Total DFT energy =     -139.757314580780
      One electron energy =     -266.796244769367
           Coulomb energy =      106.567131592139
    Exchange-Corr. energy =      -17.043449356381
 Nuclear repulsion energy =       37.417402594906

 Numeric. integr. density =       18.000000076582

     Total iterative time =      9.8s


                  COSMO solvation results
                  -----------------------
  
                 gas phase energy =      -139.7515542264
                 sol phase energy =      -139.7573145808
 (electrostatic) solvation energy =         0.0057603544 (    3.61 kcal/mol)
 
                       DFT Final Molecular Orbital Analysis
                       ------------------------------------
 
 Vector    1  Occ=2.000000D+00  E=-2.464869D+01
              MO Center= -3.4D-08, -2.0D-15,  1.4D+00, r^2= 1.2D-02
   Bfn.  Coefficient  Atom+Function         Bfn.  Coefficient  Atom+Function  
  ----- ------------  ---------------      ----- ------------  ---------------
    14      0.547666  2 F  s                 15      0.471991  2 F  s          
 
 Vector    2  Occ=2.000000D+00  E=-1.023408D+01
              MO Center= -3.1D-07,  2.9D-14,  1.8D-04, r^2= 2.8D-02
   Bfn.  Coefficient  Atom+Function         Bfn.  Coefficient  Atom+Function  
  ----- ------------  ---------------      ----- ------------  ---------------
     1      0.562836  1 C  s                  2      0.464022  1 C  s          
 
 Vector    3  Occ=2.000000D+00  E=-1.197628D+00
              MO Center= -2.7D-05, -1.3D-10,  1.2D+00, r^2= 4.2D-01
   Bfn.  Coefficient  Atom+Function         Bfn.  Coefficient  Atom+Function  
  ----- ------------  ---------------      ----- ------------  ---------------
    19      0.575416  2 F  s                 23      0.461294  2 F  s          
    15     -0.194606  2 F  s          
 
 Vector    4  Occ=2.000000D+00  E=-7.012958D-01
              MO Center= -4.4D-04,  3.7D-10,  1.2D-01, r^2= 1.3D+00
   Bfn.  Coefficient  Atom+Function         Bfn.  Coefficient  Atom+Function  
  ----- ------------  ---------------      ----- ------------  ---------------
     6      0.466568  1 C  s                 10      0.310428  1 C  s          
    23     -0.221248  2 F  s                 19     -0.191491  2 F  s          
     2     -0.166921  1 C  s          
 
 Vector    5  Occ=2.000000D+00  E=-4.861011D-01
              MO Center= -1.8D-02, -2.5D-08,  8.7D-01, r^2= 1.3D+00
   Bfn.  Coefficient  Atom+Function         Bfn.  Coefficient  Atom+Function  
  ----- ------------  ---------------      ----- ------------  ---------------
    22      0.355013  2 F  pz                26      0.328028  2 F  pz         
    18      0.248836  2 F  pz                 9     -0.243777  1 C  pz         
     5     -0.155747  1 C  pz         
 
 Vector    6  Occ=2.000000D+00  E=-4.850784D-01
              MO Center= -1.1D-01, -4.8D-07,  5.0D-01, r^2= 1.4D+00
   Bfn.  Coefficient  Atom+Function         Bfn.  Coefficient  Atom+Function  
  ----- ------------  ---------------      ----- ------------  ---------------
    21      0.274698  2 F  py                 8      0.265936  1 C  py         
    25      0.246827  2 F  py                17      0.193451  2 F  py         
    12      0.172206  1 C  py                 4      0.168329  1 C  py         
 
 Vector    7  Occ=2.000000D+00  E=-4.850666D-01
              MO Center=  1.2D-01,  5.1D-07,  5.0D-01, r^2= 1.4D+00
   Bfn.  Coefficient  Atom+Function         Bfn.  Coefficient  Atom+Function  
  ----- ------------  ---------------      ----- ------------  ---------------
    20      0.274411  2 F  px                 7      0.265638  1 C  px         
    24      0.246505  2 F  px                16      0.193239  2 F  px         
    11      0.172231  1 C  px                 3      0.168121  1 C  px         
 
 Vector    8  Occ=2.000000D+00  E=-3.450597D-01
              MO Center= -1.3D-01,  2.5D-07,  6.9D-01, r^2= 1.5D+00
   Bfn.  Coefficient  Atom+Function         Bfn.  Coefficient  Atom+Function  
  ----- ------------  ---------------      ----- ------------  ---------------
    25      0.379232  2 F  py                21      0.355028  2 F  py         
    17      0.256786  2 F  py                 8     -0.205616  1 C  py         
    31     -0.194126  4 H  s                 34      0.194125  5 H  s          
 
 Vector    9  Occ=2.000000D+00  E=-3.450411D-01
              MO Center=  1.3D-01, -2.5D-07,  6.9D-01, r^2= 1.5D+00
   Bfn.  Coefficient  Atom+Function         Bfn.  Coefficient  Atom+Function  
  ----- ------------  ---------------      ----- ------------  ---------------
    24      0.379286  2 F  px                20      0.355016  2 F  px         
    16      0.256787  2 F  px                28     -0.223981  3 H  s          
     7     -0.205652  1 C  px         
 
 Vector   10  Occ=0.000000D+00  E= 6.121656D-02
              MO Center= -3.3D-03, -2.1D-10, -3.8D-01, r^2= 4.7D+00
   Bfn.  Coefficient  Atom+Function         Bfn.  Coefficient  Atom+Function  
  ----- ------------  ---------------      ----- ------------  ---------------
    10      1.816642  1 C  s                 29     -0.909386  3 H  s          
    32     -0.913750  4 H  s                 35     -0.913750  5 H  s          
    13     -0.506505  1 C  pz                 6      0.183063  1 C  s          
 
 Vector   11  Occ=0.000000D+00  E= 1.009164D-01
              MO Center= -3.2D-03, -1.5D-10,  3.8D-02, r^2= 2.3D+00
   Bfn.  Coefficient  Atom+Function         Bfn.  Coefficient  Atom+Function  
  ----- ------------  ---------------      ----- ------------  ---------------
    13      1.057065  1 C  pz                23     -0.826390  2 F  s          
    10      0.821309  1 C  s                 26      0.498972  2 F  pz         
     9      0.274969  1 C  pz                22      0.211712  2 F  pz         
     6      0.194765  1 C  s                 32     -0.174271  4 H  s          
    35     -0.174271  5 H  s                 19     -0.169981  2 F  s          
 
 Vector   12  Occ=0.000000D+00  E= 1.199310D-01
              MO Center= -7.3D-01,  3.4D-08, -4.8D-01, r^2= 4.3D+00
   Bfn.  Coefficient  Atom+Function         Bfn.  Coefficient  Atom+Function  
  ----- ------------  ---------------      ----- ------------  ---------------
    32      1.718550  4 H  s                 35     -1.718550  5 H  s          
    12     -1.080110  1 C  py                 8     -0.254269  1 C  py         
     4     -0.176475  1 C  py         
 
 Vector   13  Occ=0.000000D+00  E= 1.200421D-01
              MO Center=  7.4D-01, -3.4D-08, -4.8D-01, r^2= 4.3D+00
   Bfn.  Coefficient  Atom+Function         Bfn.  Coefficient  Atom+Function  
  ----- ------------  ---------------      ----- ------------  ---------------
    29      1.985857  3 H  s                 11     -1.078489  1 C  px         
    32     -0.989668  4 H  s                 35     -0.989668  5 H  s          
     7     -0.254472  1 C  px                 3     -0.176484  1 C  px         
 
 Vector   14  Occ=0.000000D+00  E= 3.128520D-01
              MO Center=  2.2D-01, -4.2D-08,  4.1D-03, r^2= 2.9D+00
   Bfn.  Coefficient  Atom+Function         Bfn.  Coefficient  Atom+Function  
  ----- ------------  ---------------      ----- ------------  ---------------
    12      1.586219  1 C  py                31     -1.134232  4 H  s          
    34      1.134232  5 H  s                 25     -0.269525  2 F  py         
    32      0.178441  4 H  s                 35     -0.178441  5 H  s          
 
 Vector   15  Occ=0.000000D+00  E= 3.129577D-01
              MO Center= -2.2D-01,  4.2D-08,  4.2D-03, r^2= 2.9D+00
   Bfn.  Coefficient  Atom+Function         Bfn.  Coefficient  Atom+Function  
  ----- ------------  ---------------      ----- ------------  ---------------
    11      1.587162  1 C  px                28     -1.309868  3 H  s          
    31      0.655010  4 H  s                 34      0.655010  5 H  s          
    24     -0.269608  2 F  px                29      0.205164  3 H  s          
 
 Vector   16  Occ=0.000000D+00  E= 4.319006D-01
              MO Center=  6.0D-05, -1.0D-10, -1.2D-02, r^2= 2.0D+00
   Bfn.  Coefficient  Atom+Function         Bfn.  Coefficient  Atom+Function  
  ----- ------------  ---------------      ----- ------------  ---------------
    13      1.222639  1 C  pz                 9     -0.792719  1 C  pz         
     6     -0.517922  1 C  s                 28      0.406648  3 H  s          
    31      0.405974  4 H  s                 34      0.405974  5 H  s          
    10     -0.367604  1 C  s                 23     -0.311941  2 F  s          
     5     -0.270297  1 C  pz                22     -0.235387  2 F  pz         
 
 Vector   17  Occ=0.000000D+00  E= 4.831906D-01
              MO Center= -4.0D-04,  6.9D-11, -1.3D-01, r^2= 2.5D+00
   Bfn.  Coefficient  Atom+Function         Bfn.  Coefficient  Atom+Function  
  ----- ------------  ---------------      ----- ------------  ---------------
    10      1.805869  1 C  s                 28     -1.166140  3 H  s          
    31     -1.167069  4 H  s                 34     -1.167069  5 H  s          
     9     -0.467852  1 C  pz                23     -0.438800  2 F  s          
    29      0.257324  3 H  s                 32      0.257039  4 H  s          
    35      0.257039  5 H  s                  6      0.206403  1 C  s          
 
 Vector   18  Occ=0.000000D+00  E= 5.648696D-01
              MO Center= -2.6D-01, -1.5D-07, -2.2D-01, r^2= 3.0D+00
   Bfn.  Coefficient  Atom+Function         Bfn.  Coefficient  Atom+Function  
  ----- ------------  ---------------      ----- ------------  ---------------
    12      1.918635  1 C  py                32     -1.676479  4 H  s          
    35      1.676480  5 H  s                  8     -1.045108  1 C  py         
    31      0.459397  4 H  s                 34     -0.459397  5 H  s          
     4     -0.273449  1 C  py         
 
 Vector   19  Occ=0.000000D+00  E= 5.648970D-01
              MO Center=  2.6D-01,  1.5D-07, -2.2D-01, r^2= 3.0D+00
   Bfn.  Coefficient  Atom+Function         Bfn.  Coefficient  Atom+Function  
  ----- ------------  ---------------      ----- ------------  ---------------
    29     -1.935579  3 H  s                 11      1.919089  1 C  px         
     7     -1.044995  1 C  px                32      0.968234  4 H  s          
    35      0.968233  5 H  s                 28      0.530207  3 H  s          
     3     -0.273428  1 C  px                31     -0.265042  4 H  s          
    34     -0.265042  5 H  s          
 

 center of mass
 --------------
 x =   0.00000000 y =   0.00000000 z =   1.40064031

 moments of inertia (a.u.)
 ------------------
          70.045742832072           0.000000000000           0.000000000000
           0.000000000000          70.049255463773           0.000000000000
           0.000000000000           0.000000000000          11.406609230869
 
     Multipole analysis of the density
     ---------------------------------
 
     L   x y z        total         alpha         beta         nuclear
     -   - - -        -----         -----         ----         -------
     0   0 0 0     -0.000000     -9.000000     -9.000000     18.000000
 
     1   1 0 0      0.000669      0.000334      0.000334      0.000000
     1   0 1 0      0.000000      0.000000      0.000000      0.000000
     1   0 0 1     -0.990887    -11.264047    -11.264047     21.537207
 
     2   2 0 0     -8.697129     -7.178947     -7.178947      5.660765
     2   1 1 0      0.000000      0.000000      0.000000      0.000000
     2   1 0 1     -0.000944     -0.000472     -0.000472      0.000000
     2   0 2 0     -8.698443     -7.177862     -7.177862      5.657280
     2   0 1 1      0.000000      0.000000      0.000000      0.000000
     2   0 0 2    -11.632428    -37.208906    -37.208906     62.785385
 

          -----------------------------------------
          Chemical Shielding Tensors (GIAO, in ppm)
          -----------------------------------------

                                NWChem CPHF Module
                                ------------------
 
 
 
 solvent parameters
 solvname_short: h2o     
 solvname_long:  water                              
 dielec:       78.0000
 dielecinf:     1.7769

          ---------------
          -cosmo- solvent
          ---------------
 Cosmo: York-Karplus, doi: 10.1021/jp992097l
 dielectric constant -eps-     =  78.00
 screen = (eps-1)/(eps    )    =   0.98718
 surface charge correction     = lagrangian
 -lineq- algorithm             =   0
 -bem- low  level              =   2
 -bem- from -octahedral-
 gaussian surface charge width =   0.98000
 degree of switching           =   1.00000
 switching function tolerance  =   0.00010
 atomic radii = 
 --------------
    1  6.000  2.000
    2  9.000  1.720
    3  1.000  1.300
    4  1.000  1.300
    5  1.000  1.300

 solvent accessible surface
 --------------------------

 ---------- ATOMIC COORDINATES (A.U.) ------------ VDWR(ANG.) --
     1    0.00000000    0.00000000    0.00000000     2.000
     2    0.00000000    0.00000000    2.61349104     1.720
     3    1.94263832    0.00000000   -0.66140410     1.300
     4   -0.97131916    1.68185613   -0.66140410     1.300
     5   -0.97131916   -1.68185613   -0.66140410     1.300
 number of segments per atom =         32
 number of   points per atom =        640
 atom (   nspa,  nppa )
 ----------------------
    1 (     22,     0 )       0
    2 (     24,     0 )       0
    3 (     14,     0 )       0
    4 (     14,     0 )       0
    5 (     14,     0 )       0
 number of -cosmo- surface points =       88
 molecular surface =      3.292 angstrom**2
 molecular volume  =      1.878 angstrom**3
 G(cav/disp)       =      0.876 kcal/mol
 ...... end of -cosmo- initialization ......


  scftype          =     RHF 
  nclosed          =        9
  nopen            =        0
  variables        =      234
  # of vectors     =        3
  tolerance        = 0.10D-03
  level shift      = 0.00D+00
  max iterations   =       50
  max subspace     =       30

 SCF residual:   2.029510710548904E-007


Iterative solution of linear equations
  No. of variables      234
  No. of equations        3
  Maximum subspace       30
        Iterations       50
       Convergence  1.0D-04
        Start time     16.5


   iter   nsub   residual    time
   ----  ------  --------  ---------
     1      3    2.18D-01      18.1
     2      6    5.89D-03      19.7
     3      9    4.27D-04      21.3
     4     12    2.06D-05      22.9

 Wrote CPHF data to ./ch3f_notrans_cosmo_dat.shieldcphf

 Calc. par tensor-> nonrel
      Atom:    1  C 
        Diamagnetic
    243.2540     -0.0000     -0.0018
     -0.0000    243.2765      0.0000
     -0.0018      0.0000    258.4031

        Paramagnetic
   -160.8461     -0.0000     -0.0696
     -0.0000   -160.8781     -0.0000
     -0.0696     -0.0000    -68.8220

        Total Shielding Tensor
     82.4080     -0.0000     -0.0714
     -0.0000     82.3984     -0.0000
     -0.0714     -0.0000    189.5811

           isotropic =     118.1292
          anisotropy =     107.1780

          Principal Components and Axis System
                 1           2           3
              189.5812     82.4079     82.3984

      1        -0.0007      1.0000      0.0000
      2        -0.0000     -0.0000      1.0000
      3         1.0000      0.0007      0.0000



      Atom:    2  F 
        Diamagnetic
    466.2486      0.0000      0.0079
      0.0000    466.2469      0.0000
      0.0079      0.0000    493.9760

        Paramagnetic
     29.6553     -0.0000     -0.0932
     -0.0000     29.6521     -0.0000
     -0.0932     -0.0000    -75.8267

        Total Shielding Tensor
    495.9038     -0.0000     -0.0853
     -0.0000    495.8990     -0.0000
     -0.0853     -0.0000    418.1494

           isotropic =     469.9840
          anisotropy =      38.8798

          Principal Components and Axis System
                 1           2           3
              495.9039    495.8990    418.1493

      1         1.0000      0.0000      0.0011
      2        -0.0000      1.0000      0.0000
      3        -0.0011     -0.0000      1.0000



      Atom:    3  H 
        Diamagnetic
     35.4589     -0.0000     -6.1017
     -0.0000     22.8842     -0.0000
     -6.1017     -0.0000     28.6886

        Paramagnetic
     -7.2693      0.0000      3.3321
      0.0000      2.3625     -0.0000
      3.3321     -0.0000      2.8260

        Total Shielding Tensor
     28.1896      0.0000     -2.7697
      0.0000     25.2467     -0.0000
     -2.7697     -0.0000     31.5146

           isotropic =      28.3170
          anisotropy =       7.1482

          Principal Components and Axis System
                 1           2           3
               33.0825     26.6218     25.2467

      1        -0.4926      0.8702     -0.0000
      2        -0.0000      0.0000      1.0000
      3         0.8702      0.4926     -0.0000



      Atom:    4  H 
        Diamagnetic
     26.0410     -5.4456      3.0509
     -5.4456     32.3305     -5.2839
      3.0509     -5.2839     28.7067

        Paramagnetic
     -0.0501      4.1751     -1.6675
      4.1751     -4.8690      2.8891
     -1.6675      2.8891      2.8207

        Total Shielding Tensor
     25.9909     -1.2704      1.3835
     -1.2704     27.4616     -2.3948
      1.3835     -2.3948     31.5274

           isotropic =      28.3266
          anisotropy =       7.1448

          Principal Components and Axis System
                 1           2           3
               33.0899     26.6317     25.2584

      1         0.2459     -0.4342      0.8666
      2        -0.4260      0.7547      0.4990
      3         0.8707      0.4919     -0.0006



      Atom:    5  H 
        Diamagnetic
     26.0410      5.4456      3.0509
      5.4456     32.3305      5.2839
      3.0509      5.2839     28.7067

        Paramagnetic
     -0.0501     -4.1751     -1.6675
     -4.1751     -4.8690     -2.8891
     -1.6675     -2.8891      2.8207

        Total Shielding Tensor
     25.9909      1.2704      1.3835
      1.2704     27.4616      2.3948
      1.3835      2.3948     31.5274

           isotropic =      28.3266
          anisotropy =       7.1448

          Principal Components and Axis System
                 1           2           3
               33.0899     26.6317     25.2584

      1         0.2459      0.4342      0.8666
      2         0.4260      0.7547     -0.4990
      3         0.8707     -0.4919     -0.0006




 Task  times  cpu:       20.6s     wall:       23.0s
 
 
                                NWChem Input Module
                                -------------------
 
 
 Summary of allocated global arrays
-----------------------------------
  No active global arrays



                         GA Statistics for process    0
                         ------------------------------

       create   destroy   get      put      acc     scatter   gather  read&inc
calls:  640      640     9.25e+05 4714     4.13e+05  247        0     1257     
number of processes/call 1.00e+00 1.00e+00 1.00e+00 1.00e+00 0.00e+00
bytes total:             9.18e+07 5.17e+06 6.27e+07 2.36e+06 0.00e+00 1.01e+04
bytes remote:            0.00e+00 0.00e+00 0.00e+00 0.00e+00 0.00e+00 0.00e+00
Max memory consumed for GA by this process: 529200 bytes
 
MA_summarize_allocated_blocks: starting scan ...
MA_summarize_allocated_blocks: scan completed: 0 heap blocks, 0 stack blocks
MA usage statistics:

	allocation statistics:
					      heap	     stack
					      ----	     -----
	current number of blocks	         0	         0
	maximum number of blocks	        29	        50
	current total bytes		         0	         0
	maximum total bytes		   6805472	  22511656
	maximum total K-bytes		      6806	     22512
	maximum total M-bytes		         7	        23
 
 
                                     CITATION
                                     --------
                Please cite the following reference when publishing
                           results obtained with NWChem:
 
                 M. Valiev, E.J. Bylaska, N. Govind, K. Kowalski,
              T.P. Straatsma, H.J.J. van Dam, D. Wang, J. Nieplocha,
                        E. Apra, T.L. Windus, W.A. de Jong
                 "NWChem: a comprehensive and scalable open-source
                  solution for large scale molecular simulations"
                      Comput. Phys. Commun. 181, 1477 (2010)
                           doi:10.1016/j.cpc.2010.04.018
 
                                      AUTHORS
                                      -------
          E. Apra, E. J. Bylaska, W. A. de Jong, N. Govind, K. Kowalski,
       T. P. Straatsma, M. Valiev, H. J. J. van Dam, D. Wang, T. L. Windus,
        J. Hammond, J. Autschbach, K. Bhaskaran-Nair, J. Brabec, K. Lopata,
        S. Krishnamoorthy, W. Ma, M. Klemm, O. Villa, Y. Chen, V. Anisimov,
    F. Aquino, S. Hirata, M. T. Hackler, T. Risthaus, M. Malagoli, A. Marenich,
   A. Otero-de-la-Roza, J. Mullin, P. Nichols, R. Peverati, J. Pittner, Y. Zhao,
         P.-D. Fan, A. Fonari, R. J. Harrison, M. Dupuis, D. Silverstein,
    D. M. A. Smith, J. Nieplocha, V. Tipparaju, M. Krishnan, B. E. Van Kuiken,
        A. Vazquez-Mayagoitia, L. Jensen, M. Swart, Q. Wu, T. Van Voorhis,
     A. A. Auer, M. Nooijen, L. D. Crosby, E. Brown, G. Cisneros, G. I. Fann,
   H. Fruchtl, J. Garza, K. Hirao, R. A. Kendall, J. A. Nichols, K. Tsemekhman,
    K. Wolinski, J. Anchell, D. E. Bernholdt, P. Borowski, T. Clark, D. Clerc,
   H. Dachsel, M. J. O. Deegan, K. Dyall, D. Elwood, E. Glendening, M. Gutowski,
   A. C. Hess, J. Jaffe, B. G. Johnson, J. Ju, R. Kobayashi, R. Kutteh, Z. Lin,
   R. Littlefield, X. Long, B. Meng, T. Nakajima, S. Niu, L. Pollack, M. Rosing,
   K. Glaesemann, G. Sandrone, M. Stave, H. Taylor, G. Thomas, J. H. van Lenthe,
                               A. T. Wong, Z. Zhang.

 Total times  cpu:       20.6s     wall:       23.0s
