All connections between all procs tested: SUCCESS
 argument  1 = ch3f_notrans_cosmo.nw



============================== echo of input deck ==============================
echo

start ch3f_notrans_cosmo
title ch3f_notrans_cosmo

geometry noautoz units angstrom nocenter
symmetry c1
c  0.0    0.0    0.0
f  0.0    0.0    1.383
h  1.028  0.0   -0.350
h -0.514  0.890 -0.350
h -0.514 -0.890 -0.350
end

BASIS "ao basis" PRINT
* library 6-311G
END

charge 0

dft
 direct
 xc b3lyp
end

cosmo
 dielec 78
end

property
 shielding
end

task dft property
================================================================================


                                         
                                         


              Northwest Computational Chemistry Package (NWChem) 6.3
              ------------------------------------------------------


                    Environmental Molecular Sciences Laboratory
                       Pacific Northwest National Laboratory
                                Richland, WA 99352

                              Copyright (c) 1994-2013
                       Pacific Northwest National Laboratory
                            Battelle Memorial Institute

             NWChem is an open-source computational chemistry package
                        distributed under the terms of the
                      Educational Community License (ECL) 2.0
             A copy of the license is included with this distribution
                              in the LICENSE.TXT file

                                  ACKNOWLEDGMENT
                                  --------------

            This software and its documentation were developed at the
            EMSL at Pacific Northwest National Laboratory, a multiprogram
            national laboratory, operated for the U.S. Department of Energy
            by Battelle under Contract Number DE-AC05-76RL01830. Support
            for this work was provided by the Department of Energy Office
            of Biological and Environmental Research, Office of Basic
            Energy Sciences, and the Office of Advanced Scientific Computing.


           Job information
           ---------------

    hostname        = arcen
    program         = /home/d3y133/nwchem-dev/nwchem-dev-2013-09-10/QA/../bin/LINUX64/nwchem
    date            = Tue Oct 15 17:49:53 2013

    compiled        = Tue_Oct_15_14:55:44_2013
    source          = /home/d3y133/nwchem-dev/nwchem-dev-2013-09-10
    nwchem branch   = Development
    nwchem revision = 24582
    ga revision     = 10418
    input           = ch3f_notrans_cosmo.nw
    prefix          = ch3f_notrans_cosmo.
    data base       = /home/d3y133/nwchem-dev/nwchem-dev-2013-09-10/QA/scratchdir/ch3f_notrans_cosmo.db
    status          = startup
    nproc           =        4
    time left       =     -1s



           Memory information
           ------------------

    heap     =   13107201 doubles =    100.0 Mbytes
    stack    =   13107201 doubles =    100.0 Mbytes
    global   =   26214400 doubles =    200.0 Mbytes (distinct from heap & stack)
    total    =   52428802 doubles =    400.0 Mbytes
    verify   = yes
    hardfail = no 


           Directory information
           ---------------------

  0 permanent = /home/d3y133/nwchem-dev/nwchem-dev-2013-09-10/QA/scratchdir
  0 scratch   = /home/d3y133/nwchem-dev/nwchem-dev-2013-09-10/QA/scratchdir




                                NWChem Input Module
                                -------------------


                                ch3f_notrans_cosmo
                                ------------------

 Scaling coordinates for geometry "geometry" by  1.889725989
 (inverse scale =  0.529177249)

 Turning off AUTOSYM since
 SYMMETRY directive was detected!



                             Geometry "geometry" -> ""
                             -------------------------

 Output coordinates in angstroms (scale by  1.889725989 to convert to a.u.)

  No.       Tag          Charge          X              Y              Z
 ---- ---------------- ---------- -------------- -------------- --------------
    1 c                    6.0000     0.00000000     0.00000000     0.00000000
    2 f                    9.0000     0.00000000     0.00000000     1.38300000
    3 h                    1.0000     1.02800000     0.00000000    -0.35000000
    4 h                    1.0000    -0.51400000     0.89000000    -0.35000000
    5 h                    1.0000    -0.51400000    -0.89000000    -0.35000000

      Atomic Mass 
      ----------- 

      c                 12.000000
      f                 18.998400
      h                  1.007825


 Effective nuclear repulsion energy (a.u.)      37.4174025949

            Nuclear Dipole moment (a.u.) 
            ----------------------------
        X                 Y               Z
 ---------------- ---------------- ----------------
     0.0000000000     0.0000000000    21.5372070918


            XYZ format geometry
            -------------------
     5
 geometry
 c                     0.00000000     0.00000000     0.00000000
 f                     0.00000000     0.00000000     1.38300000
 h                     1.02800000     0.00000000    -0.35000000
 h                    -0.51400000     0.89000000    -0.35000000
 h                    -0.51400000    -0.89000000    -0.35000000

 ==============================================================================
                                internuclear distances
 ------------------------------------------------------------------------------
       center one      |      center two      | atomic units |  angstroms
 ------------------------------------------------------------------------------
    2 f                |   1 c                |     2.61349  |     1.38300
    3 h                |   1 c                |     2.05214  |     1.08595
    4 h                |   1 c                |     2.05172  |     1.08572
    5 h                |   1 c                |     2.05172  |     1.08572
 ------------------------------------------------------------------------------
                         number of included internuclear distances:          4
 ==============================================================================



 ==============================================================================
                                 internuclear angles
 ------------------------------------------------------------------------------
        center 1       |       center 2       |       center 3       |  degrees
 ------------------------------------------------------------------------------
    2 f                |   1 c                |   3 h                |   108.80
    2 f                |   1 c                |   4 h                |   108.81
    2 f                |   1 c                |   5 h                |   108.81
    3 h                |   1 c                |   4 h                |   110.14
    3 h                |   1 c                |   5 h                |   110.14
    4 h                |   1 c                |   5 h                |   110.12
 ------------------------------------------------------------------------------
                            number of included internuclear angles:          6
 ==============================================================================



  library name resolved from: environment
  library file name is: </home/d3y133/nwchem-dev/nwchem-dev-2013-09-10/QA/../src/basis/libraries/>
  


 Summary of "ao basis" -> "" (cartesian)
 ------------------------------------------------------------------------------
       Tag                 Description            Shells   Functions and Types
 ---------------- ------------------------------  ------  ---------------------
 *                           6-311G                   on all atoms 


                              NWChem Property Module
                              ----------------------


                                ch3f_notrans_cosmo

  itol2e modified to match energy
  convergence criterion.

                                 NWChem DFT Module
                                 -----------------


                                ch3f_notrans_cosmo


                      Basis "ao basis" -> "ao basis" (cartesian)
                      -----
  c (Carbon)
  ----------
            Exponent  Coefficients 
       -------------- ---------------------------------------------------------
  1 S  4.56324000E+03  0.001967
  1 S  6.82024000E+02  0.015231
  1 S  1.54973000E+02  0.076127
  1 S  4.44553000E+01  0.260801
  1 S  1.30290000E+01  0.616462
  1 S  1.82773000E+00  0.221006

  2 S  2.09642000E+01  0.114660
  2 S  4.80331000E+00  0.919999
  2 S  1.45933000E+00 -0.003031

  3 P  2.09642000E+01  0.040249
  3 P  4.80331000E+00  0.237594
  3 P  1.45933000E+00  0.815854

  4 S  4.83456000E-01  1.000000

  5 P  4.83456000E-01  1.000000

  6 S  1.45585000E-01  1.000000

  7 P  1.45585000E-01  1.000000

  f (Fluorine)
  ------------
            Exponent  Coefficients 
       -------------- ---------------------------------------------------------
  1 S  1.14271000E+04  0.001801
  1 S  1.72235000E+03  0.013742
  1 S  3.95746000E+02  0.068133
  1 S  1.15139000E+02  0.233325
  1 S  3.36026000E+01  0.589086
  1 S  4.91901000E+00  0.299505

  2 S  5.54441000E+01  0.114536
  2 S  1.26323000E+01  0.920512
  2 S  3.71756000E+00 -0.003378

  3 P  5.54441000E+01  0.035461
  3 P  1.26323000E+01  0.237451
  3 P  3.71756000E+00  0.820458

  4 S  1.16545000E+00  1.000000

  5 P  1.16545000E+00  1.000000

  6 S  3.21892000E-01  1.000000

  7 P  3.21892000E-01  1.000000

  h (Hydrogen)
  ------------
            Exponent  Coefficients 
       -------------- ---------------------------------------------------------
  1 S  3.38650000E+01  0.025494
  1 S  5.09479000E+00  0.190373
  1 S  1.15879000E+00  0.852161

  2 S  3.25840000E-01  1.000000

  3 S  1.02741000E-01  1.000000



 Summary of "ao basis" -> "ao basis" (cartesian)
 ------------------------------------------------------------------------------
       Tag                 Description            Shells   Functions and Types
 ---------------- ------------------------------  ------  ---------------------
 c                           6-311G                  7       13   4s3p
 f                           6-311G                  7       13   4s3p
 h                           6-311G                  3        3   3s




 Summary of "ao basis" -> "ao basis" (cartesian)
 ------------------------------------------------------------------------------
       Tag                 Description            Shells   Functions and Types
 ---------------- ------------------------------  ------  ---------------------
 c                           6-311G                  7       13   4s3p
 f                           6-311G                  7       13   4s3p
 h                           6-311G                  3        3   3s



          ---------------
          -cosmo- solvent
          ---------------
 dielectric constant -eps-     =  78.00
 charge screening approach     =   2
 screen = (eps-1)/(eps    )    =   0.98718
 -lineq- algorithm             =   1
 -bem- low  level              =   2
 -bem- high level              =   4
 -bem- from -octahedral-
 solvent radius (ang.)         =   0.000
 gaussian surface charge width =   1.00000
 degree of switching           =   1.00000
 switching function tolerance  =   0.00010
 atomic radii = 
 --------------
    1  6.000  2.000
    2  9.000  1.720
    3  1.000  1.300
    4  1.000  1.300
    5  1.000  1.300

 solvent accessible surface
 --------------------------

 ---------- ATOMIC COORDINATES (A.U.) ------------ VDWR(ANG.) --
     1    0.00000000    0.00000000    0.00000000     2.000
     2    0.00000000    0.00000000    2.61349104     1.720
     3    1.94263832    0.00000000   -0.66140410     1.300
     4   -0.97131916    1.68185613   -0.66140410     1.300
     5   -0.97131916   -1.68185613   -0.66140410     1.300
 number of segments per atom =         32
 number of   points per atom =         32
 atom (   nspa,  nppa )
 ----------------------
    1 (     22,     0 )       0
    2 (     24,     0 )       0
    3 (     14,     0 )       0
    4 (     14,     0 )       0
    5 (     14,     0 )       0
 number of -cosmo- surface points =       88
 molecular surface =     65.836 angstrom**2
 molecular volume  =     37.565 angstrom**3
 G(cav/disp)       =      1.189 kcal/mol
 ...... end of -cosmo- initialization ......


  Caching 1-el integrals 
  itol2e modified to match energy
  convergence criterion.

            General Information
            -------------------
          SCF calculation type: DFT
          Wavefunction type:  closed shell.
          No. of atoms     :     5
          No. of electrons :    18
           Alpha electrons :     9
            Beta electrons :     9
          Charge           :     0
          Spin multiplicity:     1
          Use of symmetry is: off; symmetry adaption is: off
          Maximum number of iterations:  30
          This is a Direct SCF calculation.
          AO basis - number of functions:    35
                     number of shells:    23
          Convergence on energy requested: 1.00D-07
          Convergence on density requested: 1.00D-05
          Convergence on gradient requested: 5.00D-04

              XC Information
              --------------
                         B3LYP Method XC Potential
                     Hartree-Fock (Exact) Exchange  0.200          
                        Slater Exchange Functional  0.800 local    
                    Becke 1988 Exchange Functional  0.720 non-local
              Lee-Yang-Parr Correlation Functional  0.810          
                  VWN I RPA Correlation Functional  0.190 local    

             Grid Information
             ----------------
          Grid used for XC integration:  fine      
          Radial quadrature: Mura-Knowles        
          Angular quadrature: Lebedev. 
          Tag              B.-S. Rad. Rad. Pts. Rad. Cut. Ang. Pts.
          ---              ---------- --------- --------- ---------
          c                   0.70       70           7.0       590
          f                   0.50       70           7.0       590
          h                   0.35       60           8.0       590
          Grid pruning is: on 
          Number of quadrature shells:   320
          Spatial weights used:  Erf1

          Convergence Information
          -----------------------
          Convergence aids based upon iterative change in 
          total energy or number of iterations. 
          Levelshifting, if invoked, occurs when the 
          HOMO/LUMO gap drops below (HL_TOL): 1.00D-02
          DIIS, if invoked, will attempt to extrapolate 
          using up to (NFOCK): 10 stored Fock matrices.

                    Damping( 0%)  Levelshifting(0.5)       DIIS
                  --------------- ------------------- ---------------
          dE  on:    start            ASAP                start   
          dE off:    2 iters         30 iters            30 iters 


      Screening Tolerance Information
      -------------------------------
          Density screening/tol_rho: 1.00D-11
          AO Gaussian exp screening on grid/accAOfunc:  16
          CD Gaussian exp screening on grid/accCDfunc:  20
          XC Gaussian exp screening on grid/accXCfunc:  20
          Schwarz screening/accCoul: 1.00D-08


      Superposition of Atomic Density Guess
      -------------------------------------

 Sum of atomic energies:        -138.57325452

      Non-variational initial energy
      ------------------------------

 Total energy =    -139.229769
 1-e energy   =    -264.952728
 2-e energy   =      88.305556
 HOMO         =      -0.441631
 LUMO         =       0.112239

   Time after variat. SCF:      0.1
   Time prior to 1st pass:      0.1

 Grid_pts file          = /home/d3y133/nwchem-dev/nwchem-dev-2013-09-10/QA/scratchdir/ch3f_notrans_cosmo.gridpts.0
 Record size in doubles =  12289        No. of grid_pts per rec  =   3070
 Max. records in memory =     18        Max. recs in file   =     38331


           Memory utilization after 1st SCF pass: 
           Heap Space remaining (MW):       12.88            12883691
          Stack Space remaining (MW):       13.11            13106861

   convergence    iter        energy       DeltaE   RMS-Dens  Diis-err    time
 ---------------- ----- ----------------- --------- --------- ---------  ------
     COSMO gas phase
 d= 0,ls=0.0,diis     1   -139.7045933844 -1.77D+02  1.78D-02  5.05D-01     0.4
 d= 0,ls=0.0,diis     2   -139.6932246819  1.14D-02  1.02D-02  6.68D-01     0.7
 d= 0,ls=0.0,diis     3   -139.7494357092 -5.62D-02  1.59D-03  3.42D-02     1.0
 d= 0,ls=0.0,diis     4   -139.7513770022 -1.94D-03  6.05D-04  1.59D-03     1.3
 d= 0,ls=0.0,diis     5   -139.7515473791 -1.70D-04  1.23D-04  7.02D-05     1.6
  Resetting Diis
 d= 0,ls=0.0,diis     6   -139.7515542172 -6.84D-06  5.14D-06  8.51D-08     2.0
 d= 0,ls=0.0,diis     7   -139.7515542264 -9.24D-09  3.97D-07  1.74D-10     2.3

           Memory utilization after 1st SCF pass: 
           Heap Space remaining (MW):       12.88            12883337
          Stack Space remaining (MW):       13.11            13106861

   convergence    iter        energy       DeltaE   RMS-Dens  Diis-err    time
 ---------------- ----- ----------------- --------- --------- ---------  ------
     COSMO solvation phase
 d= 0,ls=0.0,diis     1   -139.7565442229 -4.99D-03  2.66D-03  2.04D-03     3.2
 d= 0,ls=0.0,diis     2   -139.7570974240 -5.53D-04  5.02D-04  1.61D-03     3.9
 d= 0,ls=0.0,diis     3   -139.7572028064 -1.05D-04  1.55D-04  2.36D-04     4.5
 d= 0,ls=0.0,diis     4   -139.7572170290 -1.42D-05  4.56D-05  4.88D-06     5.2
 d= 0,ls=0.0,diis     5   -139.7572174355 -4.06D-07  1.57D-05  1.65D-06     5.8
 d= 0,ls=0.0,diis     6   -139.7572176296 -1.94D-07  6.88D-07  1.25D-09     6.3
 d= 0,ls=0.0,diis     7   -139.7572176298 -1.67D-10  5.01D-08  5.02D-12     6.8


         Total DFT energy =     -139.757217629769
      One electron energy =     -266.792974175175
           Coulomb energy =      106.565396979289
    Exchange-Corr. energy =      -17.043342678413
 Nuclear repulsion energy =       37.417402594906

 Numeric. integr. density =       18.000000076343

     Total iterative time =      6.7s


                  COSMO solvation results
                  -----------------------
  
                 gas phase energy =      -139.7515542264
                 sol phase energy =      -139.7572176298
 (electrostatic) solvation energy =         0.0056634034 (    3.55 kcal/mol)

                       DFT Final Molecular Orbital Analysis
                       ------------------------------------

 Vector    1  Occ=2.000000D+00  E=-2.464857D+01
              MO Center= -3.4D-08, -1.7D-14,  1.4D+00, r^2= 1.2D-02
   Bfn.  Coefficient  Atom+Function         Bfn.  Coefficient  Atom+Function  
  ----- ------------  ---------------      ----- ------------  ---------------
    14      0.547666  2 F  s                 15      0.471992  2 F  s          

 Vector    2  Occ=2.000000D+00  E=-1.023425D+01
              MO Center= -3.0D-07, -4.3D-13,  1.8D-04, r^2= 2.8D-02
   Bfn.  Coefficient  Atom+Function         Bfn.  Coefficient  Atom+Function  
  ----- ------------  ---------------      ----- ------------  ---------------
     1      0.562836  1 C  s                  2      0.464022  1 C  s          

 Vector    3  Occ=2.000000D+00  E=-1.197508D+00
              MO Center= -2.6D-05, -1.8D-11,  1.2D+00, r^2= 4.2D-01
   Bfn.  Coefficient  Atom+Function         Bfn.  Coefficient  Atom+Function  
  ----- ------------  ---------------      ----- ------------  ---------------
    19      0.575392  2 F  s                 23      0.461223  2 F  s          
    15     -0.194594  2 F  s          

 Vector    4  Occ=2.000000D+00  E=-7.014139D-01
              MO Center= -4.3D-04,  1.2D-09,  1.2D-01, r^2= 1.3D+00
   Bfn.  Coefficient  Atom+Function         Bfn.  Coefficient  Atom+Function  
  ----- ------------  ---------------      ----- ------------  ---------------
     6      0.466578  1 C  s                 10      0.310502  1 C  s          
    23     -0.221207  2 F  s                 19     -0.191522  2 F  s          
     2     -0.166924  1 C  s          

 Vector    5  Occ=2.000000D+00  E=-4.860293D-01
              MO Center= -2.0D-02,  1.6D-08,  8.7D-01, r^2= 1.3D+00
   Bfn.  Coefficient  Atom+Function         Bfn.  Coefficient  Atom+Function  
  ----- ------------  ---------------      ----- ------------  ---------------
    22      0.354975  2 F  pz                26      0.327781  2 F  pz         
    18      0.248796  2 F  pz                 9     -0.243844  1 C  pz         
     5     -0.155734  1 C  pz         

 Vector    6  Occ=2.000000D+00  E=-4.851144D-01
              MO Center= -1.1D-01,  1.5D-06,  5.0D-01, r^2= 1.4D+00
   Bfn.  Coefficient  Atom+Function         Bfn.  Coefficient  Atom+Function  
  ----- ------------  ---------------      ----- ------------  ---------------
    21      0.274246  2 F  py                 8      0.266205  1 C  py         
    25      0.246260  2 F  py                17      0.193111  2 F  py         
    12      0.172319  1 C  py                 4      0.168506  1 C  py         

 Vector    7  Occ=2.000000D+00  E=-4.851029D-01
              MO Center=  1.3D-01, -1.6D-06,  5.0D-01, r^2= 1.4D+00
   Bfn.  Coefficient  Atom+Function         Bfn.  Coefficient  Atom+Function  
  ----- ------------  ---------------      ----- ------------  ---------------
    20      0.273886  2 F  px                 7      0.265835  1 C  px         
    24      0.245874  2 F  px                16      0.192849  2 F  px         
    11      0.172297  1 C  px                 3      0.168253  1 C  px         

 Vector    8  Occ=2.000000D+00  E=-3.450440D-01
              MO Center= -1.3D-01,  1.8D-06,  6.9D-01, r^2= 1.5D+00
   Bfn.  Coefficient  Atom+Function         Bfn.  Coefficient  Atom+Function  
  ----- ------------  ---------------      ----- ------------  ---------------
    25      0.379505  2 F  py                21      0.355410  2 F  py         
    17      0.257049  2 F  py                 8     -0.205170  1 C  py         
    31     -0.194089  4 H  s                 34      0.194087  5 H  s          

 Vector    9  Occ=2.000000D+00  E=-3.450260D-01
              MO Center=  1.3D-01, -1.8D-06,  6.9D-01, r^2= 1.5D+00
   Bfn.  Coefficient  Atom+Function         Bfn.  Coefficient  Atom+Function  
  ----- ------------  ---------------      ----- ------------  ---------------
    24      0.379559  2 F  px                20      0.355398  2 F  px         
    16      0.257050  2 F  px                28     -0.223940  3 H  s          
     7     -0.205205  1 C  px         

 Vector   10  Occ=0.000000D+00  E= 6.099155D-02
              MO Center= -3.2D-03, -1.4D-09, -3.8D-01, r^2= 4.7D+00
   Bfn.  Coefficient  Atom+Function         Bfn.  Coefficient  Atom+Function  
  ----- ------------  ---------------      ----- ------------  ---------------
    10      1.818572  1 C  s                 29     -0.909715  3 H  s          
    32     -0.914008  4 H  s                 35     -0.914008  5 H  s          
    13     -0.504492  1 C  pz                 6      0.183246  1 C  s          

 Vector   11  Occ=0.000000D+00  E= 1.008092D-01
              MO Center= -3.2D-03, -1.6D-10,  3.9D-02, r^2= 2.3D+00
   Bfn.  Coefficient  Atom+Function         Bfn.  Coefficient  Atom+Function  
  ----- ------------  ---------------      ----- ------------  ---------------
    13      1.058276  1 C  pz                23     -0.826642  2 F  s          
    10      0.817330  1 C  s                 26      0.498792  2 F  pz         
     9      0.274910  1 C  pz                22      0.211826  2 F  pz         
     6      0.194453  1 C  s                 32     -0.172650  4 H  s          
    35     -0.172650  5 H  s                 19     -0.169869  2 F  s          

 Vector   12  Occ=0.000000D+00  E= 1.196835D-01
              MO Center= -7.3D-01, -3.8D-07, -4.8D-01, r^2= 4.3D+00
   Bfn.  Coefficient  Atom+Function         Bfn.  Coefficient  Atom+Function  
  ----- ------------  ---------------      ----- ------------  ---------------
    32      1.718559  4 H  s                 35     -1.718560  5 H  s          
    12     -1.080155  1 C  py                 8     -0.254281  1 C  py         
     4     -0.176489  1 C  py         

 Vector   13  Occ=0.000000D+00  E= 1.197914D-01
              MO Center=  7.4D-01,  3.8D-07, -4.8D-01, r^2= 4.3D+00
   Bfn.  Coefficient  Atom+Function         Bfn.  Coefficient  Atom+Function  
  ----- ------------  ---------------      ----- ------------  ---------------
    29      1.985838  3 H  s                 11     -1.078560  1 C  px         
    32     -0.989712  4 H  s                 35     -0.989711  5 H  s          
     7     -0.254481  1 C  px                 3     -0.176497  1 C  px         

 Vector   14  Occ=0.000000D+00  E= 3.126930D-01
              MO Center=  2.2D-01, -5.5D-07,  4.1D-03, r^2= 2.9D+00
   Bfn.  Coefficient  Atom+Function         Bfn.  Coefficient  Atom+Function  
  ----- ------------  ---------------      ----- ------------  ---------------
    12      1.586077  1 C  py                31     -1.134296  4 H  s          
    34      1.134294  5 H  s                 25     -0.269675  2 F  py         
    32      0.178632  4 H  s                 35     -0.178632  5 H  s          

 Vector   15  Occ=0.000000D+00  E= 3.127958D-01
              MO Center= -2.2D-01,  5.5D-07,  4.1D-03, r^2= 2.9D+00
   Bfn.  Coefficient  Atom+Function         Bfn.  Coefficient  Atom+Function  
  ----- ------------  ---------------      ----- ------------  ---------------
    11      1.587016  1 C  px                28     -1.309939  3 H  s          
    31      0.655046  4 H  s                 34      0.655049  5 H  s          
    24     -0.269758  2 F  px                29      0.205400  3 H  s          

 Vector   16  Occ=0.000000D+00  E= 4.317661D-01
              MO Center=  6.2D-05,  1.1D-10, -1.3D-02, r^2= 2.0D+00
   Bfn.  Coefficient  Atom+Function         Bfn.  Coefficient  Atom+Function  
  ----- ------------  ---------------      ----- ------------  ---------------
    13      1.222288  1 C  pz                 9     -0.792109  1 C  pz         
     6     -0.517834  1 C  s                 28      0.408464  3 H  s          
    31      0.407793  4 H  s                 34      0.407793  5 H  s          
    10     -0.371911  1 C  s                 23     -0.311038  2 F  s          
     5     -0.270159  1 C  pz                22     -0.235371  2 F  pz         

 Vector   17  Occ=0.000000D+00  E= 4.830180D-01
              MO Center= -4.0D-04,  1.1D-10, -1.3D-01, r^2= 2.5D+00
   Bfn.  Coefficient  Atom+Function         Bfn.  Coefficient  Atom+Function  
  ----- ------------  ---------------      ----- ------------  ---------------
    10      1.804643  1 C  s                 28     -1.165492  3 H  s          
    31     -1.166411  4 H  s                 34     -1.166411  5 H  s          
     9     -0.469004  1 C  pz                23     -0.439565  2 F  s          
    29      0.257578  3 H  s                 32      0.257254  4 H  s          
    35      0.257254  5 H  s                  6      0.205856  1 C  s          

 Vector   18  Occ=0.000000D+00  E= 5.646804D-01
              MO Center= -2.6D-01,  1.7D-06, -2.2D-01, r^2= 3.0D+00
   Bfn.  Coefficient  Atom+Function         Bfn.  Coefficient  Atom+Function  
  ----- ------------  ---------------      ----- ------------  ---------------
    12      1.918836  1 C  py                32     -1.676439  4 H  s          
    35      1.676433  5 H  s                  8     -1.045121  1 C  py         
    31      0.459256  4 H  s                 34     -0.459254  5 H  s          
     4     -0.273453  1 C  py         

 Vector   19  Occ=0.000000D+00  E= 5.647057D-01
              MO Center=  2.6D-01, -1.7D-06, -2.2D-01, r^2= 3.0D+00
   Bfn.  Coefficient  Atom+Function         Bfn.  Coefficient  Atom+Function  
  ----- ------------  ---------------      ----- ------------  ---------------
    29     -1.935522  3 H  s                 11      1.919281  1 C  px         
     7     -1.045010  1 C  px                32      0.968200  4 H  s          
    35      0.968211  5 H  s                 28      0.530030  3 H  s          
     3     -0.273433  1 C  px                31     -0.264978  4 H  s          
    34     -0.264981  5 H  s          


 center of mass
 --------------
 x =   0.00000000 y =   0.00000000 z =   1.40064031

 moments of inertia (a.u.)
 ------------------
          70.045742832072           0.000000000000           0.000000000000
           0.000000000000          70.049255463773           0.000000000000
           0.000000000000           0.000000000000          11.406609230869

     Multipole analysis of the density
     ---------------------------------

     L   x y z        total         alpha         beta         nuclear
     -   - - -        -----         -----         ----         -------
     0   0 0 0      0.000000     -9.000000     -9.000000     18.000000

     1   1 0 0      0.000656      0.000328      0.000328      0.000000
     1   0 1 0      0.000000      0.000000      0.000000      0.000000
     1   0 0 1     -0.988672    -11.262940    -11.262940     21.537207

     2   2 0 0     -8.698572     -7.179669     -7.179669      5.660765
     2   1 1 0      0.000000      0.000000      0.000000      0.000000
     2   1 0 1     -0.000932     -0.000466     -0.000466      0.000000
     2   0 2 0     -8.699862     -7.178571     -7.178571      5.657280
     2   0 1 1      0.000000      0.000000      0.000000      0.000000
     2   0 0 2    -11.628537    -37.206961    -37.206961     62.785385


          -----------------------------------------
          Chemical Shielding Tensors (GIAO, in ppm)
          -----------------------------------------

                                NWChem CPHF Module
                                ------------------



          ---------------
          -cosmo- solvent
          ---------------
 dielectric constant -eps-     =  78.00
 charge screening approach     =   2
 screen = (eps-1)/(eps    )    =   0.98718
 -lineq- algorithm             =   1
 -bem- low  level              =   2
 -bem- high level              =   4
 -bem- from -octahedral-
 solvent radius (ang.)         =   0.000
 gaussian surface charge width =   1.00000
 degree of switching           =   1.00000
 switching function tolerance  =   0.00010
 atomic radii = 
 --------------
    1  6.000  2.000
    2  9.000  1.720
    3  1.000  1.300
    4  1.000  1.300
    5  1.000  1.300

 solvent accessible surface
 --------------------------

 ---------- ATOMIC COORDINATES (A.U.) ------------ VDWR(ANG.) --
     1    0.00000000    0.00000000    0.00000000     2.000
     2    0.00000000    0.00000000    2.61349104     1.720
     3    1.94263832    0.00000000   -0.66140410     1.300
     4   -0.97131916    1.68185613   -0.66140410     1.300
     5   -0.97131916   -1.68185613   -0.66140410     1.300
 number of segments per atom =         32
 number of   points per atom =         32
 atom (   nspa,  nppa )
 ----------------------
    1 (     22,     0 )       0
    2 (     24,     0 )       0
    3 (     14,     0 )       0
    4 (     14,     0 )       0
    5 (     14,     0 )       0
 number of -cosmo- surface points =       88
 molecular surface =     65.836 angstrom**2
 molecular volume  =     37.565 angstrom**3
 G(cav/disp)       =      1.189 kcal/mol
 ...... end of -cosmo- initialization ......


  scftype          =     RHF 
  nclosed          =        9
  nopen            =        0
  variables        =      234
  # of vectors     =        3
  tolerance        = 0.10D-03
  level shift      = 0.00D+00
  max iterations   =       50
  max subspace     =       30

 SCF residual:   2.032007330741717E-007


Iterative solution of linear equations
  No. of variables      234
  No. of equations        3
  Maximum subspace       30
        Iterations       50
       Convergence  1.0D-04
        Start time     11.2


   iter   nsub   residual    time
   ----  ------  --------  ---------
     1      3    2.19D-01      12.0
     2      6    5.87D-03      12.9
     3      9    4.26D-04      13.8
     4     12    2.05D-05      14.6

 Wrote CPHF data to /home/d3y133/nwchem-dev/nwchem-dev-2013-09-10/QA/scratchdir/ch3f_notrans_cosmo.shieldcphf

 Calc. par tensor-> nonrel
      Atom:    1  C 
        Diamagnetic
    243.2553      0.0000     -0.0018
      0.0000    243.2775      0.0000
     -0.0018      0.0000    258.3792

        Paramagnetic
   -160.7777      0.0000     -0.0691
      0.0000   -160.8091      0.0000
     -0.0691      0.0000    -68.8281

        Total Shielding Tensor
     82.4776      0.0000     -0.0709
      0.0000     82.4684      0.0000
     -0.0709      0.0000    189.5511

           isotropic =     118.1657
          anisotropy =     107.0782

          Principal Components and Axis System
                 1           2           3
              189.5511     82.4776     82.4684

      1        -0.0007      1.0000      0.0000
      2         0.0000      0.0000      1.0000
      3         1.0000      0.0007      0.0000



      Atom:    2  F 
        Diamagnetic
    466.2146      0.0000      0.0078
      0.0000    466.2130      0.0000
      0.0078      0.0000    493.9816

        Paramagnetic
     29.4844      0.0000     -0.0922
      0.0000     29.4806      0.0000
     -0.0922      0.0000    -75.9852

        Total Shielding Tensor
    495.6991      0.0000     -0.0844
      0.0000    495.6936      0.0000
     -0.0844      0.0000    417.9964

           isotropic =     469.7964
          anisotropy =      38.8542

          Principal Components and Axis System
                 1           2           3
              495.6992    495.6936    417.9963

      1         1.0000     -0.0002      0.0011
      2         0.0002      1.0000      0.0000
      3        -0.0011      0.0000      1.0000



      Atom:    3  H 
        Diamagnetic
     35.4626      0.0000     -6.1000
      0.0000     22.8901      0.0000
     -6.1000      0.0000     28.6907

        Paramagnetic
     -7.2644      0.0000      3.3306
      0.0000      2.3626      0.0000
      3.3306      0.0000      2.8258

        Total Shielding Tensor
     28.1983      0.0000     -2.7694
      0.0000     25.2526      0.0000
     -2.7694      0.0000     31.5164

           isotropic =      28.3224
          anisotropy =       7.1449

          Principal Components and Axis System
                 1           2           3
               33.0857     26.6290     25.2526

      1        -0.4930      0.8700      0.0000
      2         0.0000      0.0000      1.0000
      3         0.8700      0.4930      0.0000



      Atom:    4  H 
        Diamagnetic
     26.0461     -5.4447      3.0501
     -5.4447     32.3346     -5.2824
      3.0501     -5.2824     28.7085

        Paramagnetic
     -0.0487      4.1730     -1.6667
      4.1730     -4.8652      2.8878
     -1.6667      2.8878      2.8205

        Total Shielding Tensor
     25.9974     -1.2717      1.3833
     -1.2717     27.4694     -2.3947
      1.3833     -2.3947     31.5290

           isotropic =      28.3320
          anisotropy =       7.1415

          Principal Components and Axis System
                 1           2           3
               33.0930     26.6388     25.2641

      1         0.2461     -0.4341      0.8666
      2        -0.4263      0.7545      0.4991
      3         0.8705      0.4923     -0.0006



      Atom:    5  H 
        Diamagnetic
     26.0461      5.4447      3.0501
      5.4447     32.3346      5.2824
      3.0501      5.2824     28.7085

        Paramagnetic
     -0.0487     -4.1730     -1.6667
     -4.1730     -4.8652     -2.8878
     -1.6667     -2.8878      2.8205

        Total Shielding Tensor
     25.9974      1.2717      1.3833
      1.2717     27.4694      2.3947
      1.3833      2.3947     31.5290

           isotropic =      28.3320
          anisotropy =       7.1415

          Principal Components and Axis System
                 1           2           3
               33.0930     26.6388     25.2641

      1         0.2461      0.4341      0.8666
      2         0.4263      0.7545     -0.4991
      3         0.8705     -0.4923     -0.0006




 Task  times  cpu:       13.1s     wall:       13.8s
 Summary of allocated global arrays
-----------------------------------
  No active global arrays



                         GA Statistics for process    0
                         ------------------------------

       create   destroy   get      put      acc     scatter   gather  read&inc
calls:  685      685     2.30e+05 1798     9.75e+04  136        0      700     
number of processes/call 1.14e+00 1.75e+00 1.23e+00 2.31e+00 0.00e+00
bytes total:             2.68e+07 2.36e+06 1.73e+07 4.07e+05 0.00e+00 5.60e+03
bytes remote:            1.41e+07 6.18e+05 1.09e+07 -2.72e+05 0.00e+00 0.00e+00
Max memory consumed for GA by this process: 216800 bytes
MA_summarize_allocated_blocks: starting scan ...
MA_summarize_allocated_blocks: scan completed: 0 heap blocks, 0 stack blocks
MA usage statistics:

	allocation statistics:
					      heap	     stack
					      ----	     -----
	current number of blocks	         0	         0
	maximum number of blocks	        29	        47
	current total bytes		         0	         0
	maximum total bytes		   1790800	  22511376
	maximum total K-bytes		      1791	     22512
	maximum total M-bytes		         2	        23


                                NWChem Input Module
                                -------------------





                                     CITATION
                                     --------
                Please cite the following reference when publishing
                           results obtained with NWChem:

                 M. Valiev, E.J. Bylaska, N. Govind, K. Kowalski,
              T.P. Straatsma, H.J.J. van Dam, D. Wang, J. Nieplocha,
                        E. Apra, T.L. Windus, W.A. de Jong
                 "NWChem: a comprehensive and scalable open-source
                  solution for large scale molecular simulations"
                      Comput. Phys. Commun. 181, 1477 (2010)
                           doi:10.1016/j.cpc.2010.04.018

                              AUTHORS & CONTRIBUTORS
                              ----------------------
          E. Apra, E. J. Bylaska, W. A. de Jong, N. Govind, K. Kowalski,
       T. P. Straatsma, M. Valiev, H. J. J. van Dam, D. Wang, T. L. Windus,
        J. Hammond, J. Autschbach, K. Bhaskaran-Nair, J. Brabec, K. Lopata,
     F. Aquino, S. Hirata, M. T. Hackler, T. Risthaus, M. Malagoli, J. Mullin,
        P. Nichols, R. Peverati, J. Pittner, Y. Zhao, P.-D. Fan, A. Fonari,
     R. J. Harrison, M. Dupuis, D. Silverstein, D. M. A. Smith, J. Nieplocha,
       V. Tipparaju, M. Krishnan, B. E. Van Kuiken,  A. Vazquez-Mayagoitia,
        L. Jensen, M. Swart, Q. Wu, T. Van Voorhis, A. A. Auer, M. Nooijen,
      L. D. Crosby, E. Brown, G. Cisneros, G. I. Fann, H. Fruchtl, J. Garza,
   K. Hirao, R. Kendall, J. A. Nichols, K. Tsemekhman, K. Wolinski, J. Anchell,
       D. Bernholdt, P. Borowski, T. Clark, D. Clerc, H. Dachsel, M. Deegan,
        K. Dyall, D. Elwood, E. Glendening, M. Gutowski, A. Hess, J. Jaffe,
   B. Johnson, J. Ju, R. Kobayashi, R. Kutteh, Z. Lin, R. Littlefield, X. Long,
        B. Meng,T. Nakajima, S. Niu, L. Pollack, M. Rosing, K. Glaesemann,
      G. Sandrone, M. Stave, H. Taylor, G. Thomas, J. H. van Lenthe, A. Wong,
                                     Z.Zhang.

 Total times  cpu:       13.1s     wall:       14.9s
