 argument  1 = ./CH3OH2pWat_SMD_M062X_opt.nw



============================== echo of input deck ==============================
# COSMO-SMD solvation results:
#             internal energy in gas <Psi(g)|H|Psi(g)> =      -115.9533911674
#    total free energy in solvent including G(SMD-CDS) =      -116.0794697262
#                       G(SMD-CDS) energy contribution =         0.0053001956 (    3.33 kcal/mol)
#     1 M fixed-concentration free energy of solvation =        -0.1260785589 (  -79.12 kcal/mol)
#
echo 'SMD/M06-2X/6-31G(d) solvation energy - protonated methanol CH3OH2+ in water'

start CH3OH2pWat_SMD_M062X_opt_dat

charge 1

geometry nocenter
 H    -0.996782    1.138765    0.000000
 C     0.038330    0.800183    0.000000
 O     0.038330   -0.725816    0.000000
 H     0.585508    1.066678    0.901842
 H     0.585508    1.066678   -0.901842
 H    -0.355429   -1.133347   -0.803114
 H    -0.355429   -1.133347    0.803114
symmetry c1
end

basis
 * library 6-31G*
end

dft
 print forces
 XC m06-2x
end

cosmo
 do_cosmo_smd true
 solvent water
end

driver
  clear
end

task dft optimize
================================================================================


                                         
                                         


             Northwest Computational Chemistry Package (NWChem) 7.0.1
             --------------------------------------------------------


                    Environmental Molecular Sciences Laboratory
                       Pacific Northwest National Laboratory
                                Richland, WA 99352

                              Copyright (c) 1994-2020
                       Pacific Northwest National Laboratory
                            Battelle Memorial Institute

             NWChem is an open-source computational chemistry package
                        distributed under the terms of the
                      Educational Community License (ECL) 2.0
             A copy of the license is included with this distribution
                              in the LICENSE.TXT file

                                  ACKNOWLEDGMENT
                                  --------------

            This software and its documentation were developed at the
            EMSL at Pacific Northwest National Laboratory, a multiprogram
            national laboratory, operated for the U.S. Department of Energy
            by Battelle under Contract Number DE-AC05-76RL01830. Support
            for this work was provided by the Department of Energy Office
            of Biological and Environmental Research, Office of Basic
            Energy Sciences, and the Office of Advanced Scientific Computing.


           Job information
           ---------------

    hostname        = WE41476
    program         = nwchem
    date            = Thu Nov 11 14:56:59 2021

    compiled        = Thu_Nov_11_13:51:38_2021
    source          = /Users/meji656/Sources/nwchem
    nwchem branch   = 7.0.0
    nwchem revision = nwchem_on_git-3012-g75ff49f32d
    ga revision     = 5.8.0
    use scalapack   = F
    input           = ./CH3OH2pWat_SMD_M062X_opt.nw
    prefix          = CH3OH2pWat_SMD_M062X_opt_dat.
    data base       = ./CH3OH2pWat_SMD_M062X_opt_dat.db
    status          = startup
    nproc           =        4
    time left       =     -1s



           Memory information
           ------------------

    heap     =   13107196 doubles =    100.0 Mbytes
    stack    =   13107201 doubles =    100.0 Mbytes
    global   =   26214400 doubles =    200.0 Mbytes (distinct from heap & stack)
    total    =   52428797 doubles =    400.0 Mbytes
    verify   = yes
    hardfail = no 


           Directory information
           ---------------------

  0 permanent = .
  0 scratch   = .




                                NWChem Input Module
                                -------------------



 Scaling coordinates for geometry "geometry" by  1.889725989
 (inverse scale =  0.529177249)

 Turning off AUTOSYM since
 SYMMETRY directive was detected!


          ------
          auto-z
          ------
  no constraints, skipping    0.0000000000000000     
  no constraints, skipping    0.0000000000000000     


                             Geometry "geometry" -> ""
                             -------------------------

 Output coordinates in angstroms (scale by  1.889725989 to convert to a.u.)

  No.       Tag          Charge          X              Y              Z
 ---- ---------------- ---------- -------------- -------------- --------------
    1 H                    1.0000    -0.99678200     1.13876500     0.00000000
    2 C                    6.0000     0.03833000     0.80018300     0.00000000
    3 O                    8.0000     0.03833000    -0.72581600     0.00000000
    4 H                    1.0000     0.58550800     1.06667800     0.90184200
    5 H                    1.0000     0.58550800     1.06667800    -0.90184200
    6 H                    1.0000    -0.35542900    -1.13334700    -0.80311400
    7 H                    1.0000    -0.35542900    -1.13334700     0.80311400

      Atomic Mass 
      ----------- 

      H                  1.007825
      C                 12.000000
      O                 15.994910


 Effective nuclear repulsion energy (a.u.)      45.4778103524

            Nuclear Dipole moment (a.u.) 
            ----------------------------
        X                 Y               Z
 ---------------- ---------------- ----------------
    -0.0000075589    -0.0000056692     0.0000000000



                                Z-matrix (autoz)
                                -------- 

 Units are Angstrom for bonds and degrees for angles

      Type          Name      I     J     K     L     M      Value
      ----------- --------  ----- ----- ----- ----- ----- ----------
    1 Stretch                  1     2                       1.08908
    2 Stretch                  2     3                       1.52600
    3 Stretch                  2     4                       1.08800
    4 Stretch                  2     5                       1.08800
    5 Stretch                  3     6                       0.98291
    6 Stretch                  3     7                       0.98291
    7 Bend                     1     2     3               108.11276
    8 Bend                     1     2     4               113.69393
    9 Bend                     1     2     5               113.69393
   10 Bend                     2     3     6               114.49508
   11 Bend                     2     3     7               114.49508
   12 Bend                     3     2     4               104.17831
   13 Bend                     3     2     5               104.17831
   14 Bend                     4     2     5               111.97171
   15 Bend                     6     3     7               109.58603
   16 Torsion                  1     2     3     6          63.88174
   17 Torsion                  1     2     3     7         -63.88174
   18 Torsion                  4     2     3     6        -174.87166
   19 Torsion                  4     2     3     7          57.36487
   20 Torsion                  5     2     3     6         -57.36487
   21 Torsion                  5     2     3     7         174.87166


            XYZ format geometry
            -------------------
     7
 geometry
 H                    -0.99678200     1.13876500     0.00000000
 C                     0.03833000     0.80018300     0.00000000
 O                     0.03833000    -0.72581600     0.00000000
 H                     0.58550800     1.06667800     0.90184200
 H                     0.58550800     1.06667800    -0.90184200
 H                    -0.35542900    -1.13334700    -0.80311400
 H                    -0.35542900    -1.13334700     0.80311400

 ==============================================================================
                                internuclear distances
 ------------------------------------------------------------------------------
       center one      |      center two      | atomic units |  angstroms
 ------------------------------------------------------------------------------
    2 C                |   1 H                |     2.05806  |     1.08908
    3 O                |   2 C                |     2.88372  |     1.52600
    4 H                |   2 C                |     2.05602  |     1.08800
    5 H                |   2 C                |     2.05602  |     1.08800
    6 H                |   3 O                |     1.85744  |     0.98291
    7 H                |   3 O                |     1.85744  |     0.98291
 ------------------------------------------------------------------------------
                         number of included internuclear distances:          6
 ==============================================================================



 ==============================================================================
                                 internuclear angles
 ------------------------------------------------------------------------------
        center 1       |       center 2       |       center 3       |  degrees
 ------------------------------------------------------------------------------
    1 H                |   2 C                |   3 O                |   108.11
    1 H                |   2 C                |   4 H                |   113.69
    1 H                |   2 C                |   5 H                |   113.69
    3 O                |   2 C                |   4 H                |   104.18
    3 O                |   2 C                |   5 H                |   104.18
    4 H                |   2 C                |   5 H                |   111.97
    2 C                |   3 O                |   6 H                |   114.50
    2 C                |   3 O                |   7 H                |   114.50
    6 H                |   3 O                |   7 H                |   109.59
 ------------------------------------------------------------------------------
                            number of included internuclear angles:          9
 ==============================================================================





 Summary of "ao basis" -> "" (cartesian)
 ------------------------------------------------------------------------------
       Tag                 Description            Shells   Functions and Types
 ---------------- ------------------------------  ------  ---------------------
 *                           6-31G*                   on all atoms 



  Deleted DRIVER restart files 



                           NWChem Geometry Optimization
                           ----------------------------


  no constraints, skipping    0.0000000000000000     
 maximum gradient threshold         (gmax) =   0.000450
 rms gradient threshold             (grms) =   0.000300
 maximum cartesian step threshold   (xmax) =   0.001800
 rms cartesian step threshold       (xrms) =   0.001200
 fixed trust radius                (trust) =   0.300000
 maximum step size to saddle      (sadstp) =   0.100000
 energy precision                  (eprec) =   5.0D-06
 maximum number of steps          (nptopt) =   40
 initial hessian option           (inhess) =    0
 line search option               (linopt) =    1
 hessian update option            (modupd) =    1
 saddle point option              (modsad) =    0
 initial eigen-mode to follow     (moddir) =    0
 initial variable to follow       (vardir) =    0
 follow first negative mode     (firstneg) =    T
 apply conjugacy                    (opcg) =    F
 source of zmatrix                         =   autoz   


          -------------------
          Energy Minimization
          -------------------


 Names of Z-matrix variables 
    1              2              3              4              5         
    6              7              8              9             10         
   11             12             13             14             15         
   16             17             18             19             20         
   21         

 Variables with the same non-blank name are constrained to be equal


 Using diagonal initial Hessian 
 Scaling for Hessian diagonals: bonds = 1.00  angles = 0.25  torsions = 0.10

          --------
          Step   0
          --------


                         Geometry "geometry" -> "geometry"
                         ---------------------------------

 Output coordinates in angstroms (scale by  1.889725989 to convert to a.u.)

  No.       Tag          Charge          X              Y              Z
 ---- ---------------- ---------- -------------- -------------- --------------
    1 H                    1.0000    -0.99678200     1.13876500     0.00000000
    2 C                    6.0000     0.03833000     0.80018300     0.00000000
    3 O                    8.0000     0.03833000    -0.72581600     0.00000000
    4 H                    1.0000     0.58550800     1.06667800     0.90184200
    5 H                    1.0000     0.58550800     1.06667800    -0.90184200
    6 H                    1.0000    -0.35542900    -1.13334700    -0.80311400
    7 H                    1.0000    -0.35542900    -1.13334700     0.80311400

      Atomic Mass 
      ----------- 

      H                  1.007825
      C                 12.000000
      O                 15.994910


 Effective nuclear repulsion energy (a.u.)      45.4778103524

            Nuclear Dipole moment (a.u.) 
            ----------------------------
        X                 Y               Z
 ---------------- ---------------- ----------------
    -0.0000075589    -0.0000056692     0.0000000000


                                 NWChem DFT Module
                                 -----------------


                      Basis "ao basis" -> "ao basis" (cartesian)
                      -----
  H (Hydrogen)
  ------------
            Exponent  Coefficients 
       -------------- ---------------------------------------------------------
  1 S  1.87311370E+01  0.033495
  1 S  2.82539370E+00  0.234727
  1 S  6.40121700E-01  0.813757

  2 S  1.61277800E-01  1.000000

  C (Carbon)
  ----------
            Exponent  Coefficients 
       -------------- ---------------------------------------------------------
  1 S  3.04752490E+03  0.001835
  1 S  4.57369510E+02  0.014037
  1 S  1.03948690E+02  0.068843
  1 S  2.92101550E+01  0.232184
  1 S  9.28666300E+00  0.467941
  1 S  3.16392700E+00  0.362312

  2 S  7.86827240E+00 -0.119332
  2 S  1.88128850E+00 -0.160854
  2 S  5.44249300E-01  1.143456

  3 P  7.86827240E+00  0.068999
  3 P  1.88128850E+00  0.316424
  3 P  5.44249300E-01  0.744308

  4 S  1.68714400E-01  1.000000

  5 P  1.68714400E-01  1.000000

  6 D  8.00000000E-01  1.000000

  O (Oxygen)
  ----------
            Exponent  Coefficients 
       -------------- ---------------------------------------------------------
  1 S  5.48467170E+03  0.001831
  1 S  8.25234950E+02  0.013950
  1 S  1.88046960E+02  0.068445
  1 S  5.29645000E+01  0.232714
  1 S  1.68975700E+01  0.470193
  1 S  5.79963530E+00  0.358521

  2 S  1.55396160E+01 -0.110778
  2 S  3.59993360E+00 -0.148026
  2 S  1.01376180E+00  1.130767

  3 P  1.55396160E+01  0.070874
  3 P  3.59993360E+00  0.339753
  3 P  1.01376180E+00  0.727159

  4 S  2.70005800E-01  1.000000

  5 P  2.70005800E-01  1.000000

  6 D  8.00000000E-01  1.000000



 Summary of "ao basis" -> "ao basis" (cartesian)
 ------------------------------------------------------------------------------
       Tag                 Description            Shells   Functions and Types
 ---------------- ------------------------------  ------  ---------------------
 H                           6-31G*                  2        2   2s
 C                           6-31G*                  6       15   3s2p1d
 O                           6-31G*                  6       15   3s2p1d




 Summary of "ao basis" -> "ao basis" (cartesian)
 ------------------------------------------------------------------------------
       Tag                 Description            Shells   Functions and Types
 ---------------- ------------------------------  ------  ---------------------
 H                           6-31G*                  2        2   2s
 C                           6-31G*                  6       15   3s2p1d
 O                           6-31G*                  6       15   3s2p1d



 solvent parameters
 solvname_short: h2o     
 solvname_long:  water                              
 dielec:       78.4000
 dielecinf:     1.7769
 aqueous SMD model solvent descriptors
 dielec:       78.4000
 sola:          0.8200

          ---------------
          -cosmo- solvent
          ---------------
 Cosmo: York-Karplus, doi: 10.1021/jp992097l
 dielectric constant -eps-     =  78.40
 screen = (eps-1)/(eps    )    =   0.98724
 surface charge correction     = lagrangian

 solvent accessible surface
 --------------------------

 ---------- ATOMIC COORDINATES (A.U.) ------------ VDWR(ANG.) --
     1   -1.88364485    2.15195382    0.00000000     1.200
     2    0.07243320    1.51212661    0.00000000     1.850
     3    0.07243320   -1.37159336    0.00000000     1.520
     4    1.10644968    2.01572914    1.70423426     1.200
     5    1.10644968    2.01572914   -1.70423426     1.200
     6   -0.67166342   -2.14171528   -1.51766540     1.200
     7   -0.67166342   -2.14171528    1.51766540     1.200
 number of segments per atom =        128
 number of   points per atom =        128
 atom (   nspa,  nppa )
 ----------------------
    1 (     54,     0 )       0
    2 (     68,     0 )       0
    3 (     44,     0 )       0
    4 (     54,     0 )       0
    5 (     54,     0 )       0
    6 (     70,     0 )       0
    7 (     70,     0 )       0
 number of -cosmo- surface points =      414
 molecular surface =     66.228 angstrom**2
 molecular volume  =     31.863 angstrom**3
 -lineq- algorithm             =   0
 -bem- low  level              =   3
 -bem- from -octahedral-
 gaussian surface charge width =   4.50000
 degree of switching           =   1.00000
 switching function tolerance  =   0.00010
 atomic radii = 
 --------------
    1  1.000  1.200
    2  6.000  1.850
    3  8.000  1.520
    4  1.000  1.200
    5  1.000  1.200
    6  1.000  1.200
    7  1.000  1.200
 ...... end of -cosmo- initialization ......


 G(SMD-CDS) energy (kcal/mol)  =     3.326
 SMD-CDS SASA (angstrom**2)    =    90.615

  Caching 1-el integrals 

            General Information
            -------------------
          SCF calculation type: DFT
          Wavefunction type:  closed shell.
          No. of atoms     :     7
          No. of electrons :    18
           Alpha electrons :     9
            Beta electrons :     9
          Charge           :     1
          Spin multiplicity:     1
          Use of symmetry is: off; symmetry adaption is: off
          Maximum number of iterations:  50
          AO basis - number of functions:    40
                     number of shells:    22
          Convergence on energy requested:  1.00D-06
          Convergence on density requested:  1.00D-05
          Convergence on gradient requested:  5.00D-04

              XC Information
              --------------
                       M06-2X Method XC Functional
                     Hartree-Fock (Exact) Exchange  0.540          
                        M06-2X Exchange Functional  1.000          
                      M06-2X Correlation Potential  1.000          

             Grid Information
             ----------------
          Grid used for XC integration:  medium    
          Radial quadrature: Mura-Knowles        
          Angular quadrature: Lebedev. 
          Tag              B.-S. Rad. Rad. Pts. Rad. Cut. Ang. Pts.
          ---              ---------- --------- --------- ---------
          H                   0.35       45           8.0       434
          C                   0.70       49           7.0       434
          O                   0.60       49           7.0       434
          Grid pruning is: on 
          Number of quadrature shells:   323
          Spatial weights used:  Erf1

          Convergence Information
          -----------------------
          Convergence aids based upon iterative change in 
          total energy or number of iterations. 
          Levelshifting, if invoked, occurs when the 
          HOMO/LUMO gap drops below (HL_TOL):  1.00D-02
          DIIS, if invoked, will attempt to extrapolate 
          using up to (NFOCK): 10 stored Fock matrices.

                    Damping( 0%)  Levelshifting(0.5)       DIIS
                  --------------- ------------------- ---------------
          dE  on:    start            ASAP                start   
          dE off:    2 iters         50 iters            50 iters 


      Screening Tolerance Information
      -------------------------------
          Density screening/tol_rho:  1.00D-10
          AO Gaussian exp screening on grid/accAOfunc:  14
          CD Gaussian exp screening on grid/accCDfunc:  20
          XC Gaussian exp screening on grid/accXCfunc:  20
          Schwarz screening/accCoul:  1.00D-08


      Superposition of Atomic Density Guess
      -------------------------------------

 Sum of atomic energies:        -114.90576908

 Renormalizing density from      19.00 to     18

      Non-variational initial energy
      ------------------------------

 Total energy =    -111.632897
 1-e energy   =    -232.563736
 2-e energy   =      75.453028
 HOMO         =      -0.827115
 LUMO         =      -0.334191

   Time after variat. SCF:      0.2
   Time prior to 1st pass:      0.2

 Integral file          = ./CH3OH2pWat_SMD_M062X_opt_dat.aoints.0
 Record size in doubles =  65536        No. of integs per rec  =  43688
 Max. records in memory =      5        Max. records in file   = 120028
 No. of bits per label  =      8        No. of bits per value  =     64


 #quartets = 3.197D+04 #integrals = 2.605D+05 #direct =  0.0% #cached =100.0%


File balance: exchanges=     4  moved=     0  time=   0.0


 Grid_pts file          = ./CH3OH2pWat_SMD_M062X_opt_dat.gridpts.0
 Record size in doubles =  12289        No. of grid_pts per rec  =   3070
 Max. records in memory =     14        Max. recs in file   =    640101


           Memory utilization after 1st SCF pass: 
           Heap Space remaining (MW):       12.60            12603412
          Stack Space remaining (MW):       13.11            13106788

   convergence    iter        energy       DeltaE   RMS-Dens  Diis-err    time
 ---------------- ----- ----------------- --------- --------- ---------  ------
     COSMO gas phase
 d= 0,ls=0.0,diis     1   -115.8186052425 -1.61D+02  2.34D-02  1.56D+00     0.6
 d= 0,ls=0.0,diis     2   -115.8227437286 -4.14D-03  1.24D-02  1.48D+00     0.8
 d= 0,ls=0.0,diis     3   -115.9521090614 -1.29D-01  1.51D-03  1.29D-02     1.0
 d= 0,ls=0.0,diis     4   -115.9532159801 -1.11D-03  5.08D-04  1.49D-03     1.2
 d= 0,ls=0.0,diis     5   -115.9533899431 -1.74D-04  5.06D-05  8.95D-06     1.4
  Resetting Diis
 d= 0,ls=0.0,diis     6   -115.9533911913 -1.25D-06  9.84D-06  3.47D-07     1.7
 d= 0,ls=0.0,diis     7   -115.9533912332 -4.18D-08  2.06D-06  5.93D-09     1.9

           Memory utilization after 1st SCF pass: 
           Heap Space remaining (MW):       12.60            12601724
          Stack Space remaining (MW):       13.11            13106788

   convergence    iter        energy       DeltaE   RMS-Dens  Diis-err    time
 ---------------- ----- ----------------- --------- --------- ---------  ------
     COSMO solvation phase
 d= 0,ls=0.0,diis     1   -116.0778955218 -1.25D-01  2.84D-03  5.73D-03     2.2
 d= 0,ls=0.0,diis     2   -116.0792568615 -1.36D-03  6.28D-04  3.23D-04     2.4
 d= 0,ls=0.0,diis     3   -116.0793195873 -6.27D-05  2.08D-04  5.37D-05     2.7
 d= 0,ls=0.0,diis     4   -116.0793208333 -1.25D-06  6.07D-05  2.23D-05     3.0
 d= 0,ls=0.0,diis     5   -116.0793227694 -1.94D-06  1.36D-05  2.40D-07     3.3
 d= 0,ls=0.0,diis     6   -116.0793228449 -7.55D-08  2.71D-06  3.67D-08     3.6


         Total DFT energy =     -116.079322844858
      One electron energy =     -237.291380869382
           Coulomb energy =       95.662077947095
    Exchange-Corr. energy =      -15.482160134065
 Nuclear repulsion energy =       45.477810352357

             COSMO energy =       -4.445670140863

 Numeric. integr. density =       18.000001026983

     Total iterative time =      3.4s


                                COSMO-SMD solvation results
                                ---------------------------
 Reference for the SMD model:
 Marenich, A. V.; Cramer, C. J.; Truhlar, D. G. J. Phys. Chem. B 2009, 113, 6378

             internal energy in gas <Psi(g)|H|Psi(g)> =      -115.953391233185
         internal energy in solvent <Psi(s)|H|Psi(s)> =      -115.951630872495
                               delta internal energy  =         0.001760360690 (    1.10 kcal/mol)
   total free energy in solvent <Psi(s)|H+V/2|Psi(s)> =      -116.084623040417
 polarization energy contribution <Psi(s)|V/2|Psi(s)> =        -0.132992167921 (  -83.45 kcal/mol)
    total free energy in solvent including G(SMD-CDS) =      -116.079322844858
                       G(SMD-CDS) energy contribution =         0.005300195559 (    3.33 kcal/mol)
     1 M fixed-concentration free energy of solvation =        -0.125931611673 (  -79.02 kcal/mol)

                       DFT Final Molecular Orbital Analysis
                       ------------------------------------

 Vector    1  Occ=2.000000D+00  E=-1.977815D+01
              MO Center=  3.8D-02, -7.3D-01, -4.7D-12, r^2= 1.5D-02
   Bfn.  Coefficient  Atom+Function         Bfn.  Coefficient  Atom+Function  
  ----- ------------  ---------------      ----- ------------  ---------------
    18      0.993939  3 O  s          

 Vector    2  Occ=2.000000D+00  E=-1.063297D+01
              MO Center=  3.8D-02,  8.0D-01, -1.8D-12, r^2= 2.8D-02
   Bfn.  Coefficient  Atom+Function         Bfn.  Coefficient  Atom+Function  
  ----- ------------  ---------------      ----- ------------  ---------------
     3      0.993997  2 C  s                  4      0.041103  2 C  s          

 Vector    3  Occ=2.000000D+00  E=-1.264023D+00
              MO Center= -5.7D-02, -7.0D-01,  1.4D-10, r^2= 5.6D-01
   Bfn.  Coefficient  Atom+Function         Bfn.  Coefficient  Atom+Function  
  ----- ------------  ---------------      ----- ------------  ---------------
    19      0.483536  3 O  s                 23      0.444091  3 O  s          
    18     -0.210368  3 O  s                 37      0.107091  6 H  s          
    39      0.107091  7 H  s                  4      0.079792  2 C  s          
     6     -0.066004  2 C  py                20     -0.064715  3 O  px         
     3     -0.043626  2 C  s                 24     -0.032353  3 O  px         

 Vector    4  Occ=2.000000D+00  E=-8.406136D-01
              MO Center=  3.7D-02,  4.1D-01, -2.6D-09, r^2= 1.4D+00
   Bfn.  Coefficient  Atom+Function         Bfn.  Coefficient  Atom+Function  
  ----- ------------  ---------------      ----- ------------  ---------------
     4      0.361691  2 C  s                  8      0.321620  2 C  s          
    21      0.270361  3 O  py                 3     -0.181187  2 C  s          
    25      0.150309  3 O  py                33      0.123132  4 H  s          
    35      0.123132  5 H  s                  1      0.116551  1 H  s          
    23     -0.097496  3 O  s                 19     -0.080532  3 O  s          

 Vector    5  Occ=2.000000D+00  E=-7.209723D-01
              MO Center= -6.7D-02, -7.5D-01, -8.1D-10, r^2= 8.5D-01
   Bfn.  Coefficient  Atom+Function         Bfn.  Coefficient  Atom+Function  
  ----- ------------  ---------------      ----- ------------  ---------------
    22      0.538559  3 O  pz                26      0.317810  3 O  pz         
    37     -0.205367  6 H  s                 39      0.205367  7 H  s          
     7      0.103918  2 C  pz                29     -0.052027  3 O  dxz        
    11      0.045063  2 C  pz                38     -0.042744  6 H  s          
    40      0.042744  7 H  s                 33      0.038526  4 H  s          

 Vector    6  Occ=2.000000D+00  E=-6.197357D-01
              MO Center= -9.1D-02,  4.9D-02,  3.7D-09, r^2= 1.5D+00
   Bfn.  Coefficient  Atom+Function         Bfn.  Coefficient  Atom+Function  
  ----- ------------  ---------------      ----- ------------  ---------------
    21      0.362617  3 O  py                20      0.300165  3 O  px         
     6     -0.262375  2 C  py                25      0.233017  3 O  py         
     8     -0.194401  2 C  s                 24      0.193570  3 O  px         
    23      0.159556  3 O  s                  1     -0.154108  1 H  s          
     4     -0.122950  2 C  s                  5      0.119691  2 C  px         

 Vector    7  Occ=2.000000D+00  E=-5.674221D-01
              MO Center=  1.2D-01,  2.4D-02,  6.3D-09, r^2= 1.5D+00
   Bfn.  Coefficient  Atom+Function         Bfn.  Coefficient  Atom+Function  
  ----- ------------  ---------------      ----- ------------  ---------------
    20      0.362753  3 O  px                21     -0.302773  3 O  py         
     5      0.290714  2 C  px                24      0.249328  3 O  px         
    25     -0.207672  3 O  py                 6      0.164753  2 C  py         
     9      0.139465  2 C  px                33      0.122417  4 H  s          
    35      0.122417  5 H  s                  1     -0.099122  1 H  s          

 Vector    8  Occ=2.000000D+00  E=-5.010444D-01
              MO Center=  2.6D-01,  8.3D-01, -8.4D-09, r^2= 1.3D+00
   Bfn.  Coefficient  Atom+Function         Bfn.  Coefficient  Atom+Function  
  ----- ------------  ---------------      ----- ------------  ---------------
     7      0.471752  2 C  pz                33      0.236591  4 H  s          
    35     -0.236591  5 H  s                 11      0.231252  2 C  pz         
    34      0.151214  4 H  s                 36     -0.151214  5 H  s          
    22     -0.140026  3 O  pz                26     -0.088646  3 O  pz         
    37      0.070565  6 H  s                 39     -0.070565  7 H  s          

 Vector    9  Occ=2.000000D+00  E=-4.649689D-01
              MO Center= -1.0D-01,  2.5D-01,  1.9D-09, r^2= 1.7D+00
   Bfn.  Coefficient  Atom+Function         Bfn.  Coefficient  Atom+Function  
  ----- ------------  ---------------      ----- ------------  ---------------
    20      0.427704  3 O  px                 5     -0.365682  2 C  px         
    24      0.321472  3 O  px                 1      0.237164  1 H  s          
     9     -0.174316  2 C  px                 2      0.166735  1 H  s          
    23      0.114888  3 O  s                 21     -0.109213  3 O  py         
    33     -0.108225  4 H  s                 35     -0.108225  5 H  s          

 Vector   10  Occ=0.000000D+00  E= 6.052980D-02
              MO Center= -2.6D-01, -4.4D-01,  1.8D-09, r^2= 3.0D+00
   Bfn.  Coefficient  Atom+Function         Bfn.  Coefficient  Atom+Function  
  ----- ------------  ---------------      ----- ------------  ---------------
    23      1.298102  3 O  s                 38     -0.646712  6 H  s          
    40     -0.646712  7 H  s                 10      0.611751  2 C  py         
     6      0.326469  2 C  py                24     -0.213623  3 O  px         
    19      0.193466  3 O  s                 34     -0.151459  4 H  s          
    36     -0.151459  5 H  s                  2     -0.147674  1 H  s          

 Vector   11  Occ=0.000000D+00  E= 1.498015D-01
              MO Center= -9.8D-02,  4.5D-01, -6.1D-09, r^2= 3.2D+00
   Bfn.  Coefficient  Atom+Function         Bfn.  Coefficient  Atom+Function  
  ----- ------------  ---------------      ----- ------------  ---------------
     8      1.860110  2 C  s                  2     -0.694858  1 H  s          
    25     -0.688688  3 O  py                34     -0.632300  4 H  s          
    36     -0.632300  5 H  s                 10     -0.549868  2 C  py         
    38     -0.477460  6 H  s                 40     -0.477460  7 H  s          
    21     -0.355394  3 O  py                 6     -0.283544  2 C  py         

 Vector   12  Occ=0.000000D+00  E= 1.643679D-01
              MO Center= -3.3D-01, -1.0D+00,  1.0D-08, r^2= 3.0D+00
   Bfn.  Coefficient  Atom+Function         Bfn.  Coefficient  Atom+Function  
  ----- ------------  ---------------      ----- ------------  ---------------
    38      1.156231  6 H  s                 40     -1.156231  7 H  s          
    26      0.677892  3 O  pz                34     -0.388328  4 H  s          
    36      0.388328  5 H  s                 22      0.364526  3 O  pz         
    11      0.291053  2 C  pz                37      0.150612  6 H  s          
    39     -0.150612  7 H  s                  7      0.128918  2 C  pz         

 Vector   13  Occ=0.000000D+00  E= 1.837266D-01
              MO Center=  1.2D-02,  4.5D-01, -1.1D-08, r^2= 4.1D+00
   Bfn.  Coefficient  Atom+Function         Bfn.  Coefficient  Atom+Function  
  ----- ------------  ---------------      ----- ------------  ---------------
     8      1.538848  2 C  s                 34     -0.969686  4 H  s          
    36     -0.969686  5 H  s                  2     -0.849364  1 H  s          
    10      0.761352  2 C  py                38      0.563368  6 H  s          
    40      0.563368  7 H  s                 23     -0.394452  3 O  s          
    25      0.347103  3 O  py                 6      0.273415  2 C  py         

 Vector   14  Occ=0.000000D+00  E= 2.111157D-01
              MO Center=  4.6D-01,  9.1D-01, -1.9D-08, r^2= 3.2D+00
   Bfn.  Coefficient  Atom+Function         Bfn.  Coefficient  Atom+Function  
  ----- ------------  ---------------      ----- ------------  ---------------
    34     -1.524578  4 H  s                 36      1.524578  5 H  s          
    11      1.386465  2 C  pz                 7      0.357768  2 C  pz         
    26     -0.326884  3 O  pz                38     -0.328193  6 H  s          
    40      0.328193  7 H  s                 22     -0.131392  3 O  pz         
    33     -0.107706  4 H  s                 35      0.107706  5 H  s          

 Vector   15  Occ=0.000000D+00  E= 2.135713D-01
              MO Center= -4.9D-01,  1.1D+00,  2.4D-08, r^2= 2.9D+00
   Bfn.  Coefficient  Atom+Function         Bfn.  Coefficient  Atom+Function  
  ----- ------------  ---------------      ----- ------------  ---------------
     2      1.854075  1 H  s                  9      1.419405  2 C  px         
    34     -0.902466  4 H  s                 36     -0.902466  5 H  s          
     5      0.396098  2 C  px                24     -0.172069  3 O  px         
    10     -0.137088  2 C  py                 1      0.116183  1 H  s          
    25     -0.058723  3 O  py                20     -0.053038  3 O  px         

 Vector   16  Occ=0.000000D+00  E= 5.420970D-01
              MO Center=  7.0D-02,  1.0D+00,  1.8D-10, r^2= 1.9D+00
   Bfn.  Coefficient  Atom+Function         Bfn.  Coefficient  Atom+Function  
  ----- ------------  ---------------      ----- ------------  ---------------
    10      1.538928  2 C  py                 6     -0.932086  2 C  py         
    23      0.824970  3 O  s                  8     -0.585578  2 C  s          
    25      0.363334  3 O  py                 4      0.272291  2 C  s          
     1     -0.190757  1 H  s                 19     -0.176640  3 O  s          
    21     -0.165880  3 O  py                38      0.157410  6 H  s          

 Vector   17  Occ=0.000000D+00  E= 5.731536D-01
              MO Center= -1.6D-01,  5.9D-01, -6.0D-09, r^2= 2.2D+00
   Bfn.  Coefficient  Atom+Function         Bfn.  Coefficient  Atom+Function  
  ----- ------------  ---------------      ----- ------------  ---------------
    11      1.458402  2 C  pz                 7     -0.706853  2 C  pz         
    33     -0.401063  4 H  s                 35      0.401063  5 H  s          
    37      0.246241  6 H  s                 39     -0.246241  7 H  s          
    34     -0.214858  4 H  s                 36      0.214858  5 H  s          
    14     -0.172852  2 C  dxz               31      0.101096  3 O  dyz        

 Vector   18  Occ=0.000000D+00  E= 5.893137D-01
              MO Center=  2.3D-01,  6.8D-01,  4.1D-09, r^2= 2.1D+00
   Bfn.  Coefficient  Atom+Function         Bfn.  Coefficient  Atom+Function  
  ----- ------------  ---------------      ----- ------------  ---------------
     9      1.664815  2 C  px                 5     -0.735053  2 C  px         
     1      0.438801  1 H  s                  2      0.405986  1 H  s          
    33     -0.245187  4 H  s                 35     -0.245187  5 H  s          
    34     -0.220950  4 H  s                 36     -0.220950  5 H  s          
    20     -0.169991  3 O  px                23      0.168457  3 O  s          

 Vector   19  Occ=0.000000D+00  E= 8.118681D-01
              MO Center= -5.3D-02, -2.9D-01, -2.0D-08, r^2= 2.8D+00
   Bfn.  Coefficient  Atom+Function         Bfn.  Coefficient  Atom+Function  
  ----- ------------  ---------------      ----- ------------  ---------------
    11      1.476173  2 C  pz                34     -0.890086  4 H  s          
    36      0.890086  5 H  s                 37     -0.667388  6 H  s          
    38      0.670046  6 H  s                 39      0.667388  7 H  s          
    40     -0.670046  7 H  s                  7     -0.612603  2 C  pz         
    26     -0.440035  3 O  pz                31     -0.283157  3 O  dyz        

 Vector   20  Occ=0.000000D+00  E= 8.233964D-01
              MO Center= -2.4D-01, -9.9D-01,  1.8D-08, r^2= 1.8D+00
   Bfn.  Coefficient  Atom+Function         Bfn.  Coefficient  Atom+Function  
  ----- ------------  ---------------      ----- ------------  ---------------
    37      0.765088  6 H  s                 39      0.765088  7 H  s          
    38     -0.544289  6 H  s                 40     -0.544289  7 H  s          
    23      0.504412  3 O  s                  9     -0.435974  2 C  px         
     2     -0.427269  1 H  s                 25      0.394253  3 O  py         
    20      0.374363  3 O  px                 1      0.282955  1 H  s          

 Vector   21  Occ=0.000000D+00  E= 8.911444D-01
              MO Center=  1.2D-02,  2.1D-01, -4.8D-09, r^2= 2.5D+00
   Bfn.  Coefficient  Atom+Function         Bfn.  Coefficient  Atom+Function  
  ----- ------------  ---------------      ----- ------------  ---------------
     9      1.459915  2 C  px                 2      1.320942  1 H  s          
    24     -0.869836  3 O  px                 5     -0.699732  2 C  px         
    34     -0.679238  4 H  s                 36     -0.679238  5 H  s          
    20      0.636856  3 O  px                 1     -0.389308  1 H  s          
    33      0.340692  4 H  s                 35      0.340692  5 H  s          

 Vector   22  Occ=0.000000D+00  E= 9.228723D-01
              MO Center= -1.3D-01,  5.6D-01, -5.0D-08, r^2= 2.2D+00
   Bfn.  Coefficient  Atom+Function         Bfn.  Coefficient  Atom+Function  
  ----- ------------  ---------------      ----- ------------  ---------------
     1      0.784602  1 H  s                 23     -0.686901  3 O  s          
     2     -0.663263  1 H  s                 33      0.547155  4 H  s          
    35      0.547155  5 H  s                 25     -0.423599  3 O  py         
    19      0.419720  3 O  s                 21      0.393407  3 O  py         
     6     -0.379711  2 C  py                 9     -0.240321  2 C  px         

 Vector   23  Occ=0.000000D+00  E= 9.392657D-01
              MO Center=  2.0D-01,  2.9D-01,  5.4D-08, r^2= 3.0D+00
   Bfn.  Coefficient  Atom+Function         Bfn.  Coefficient  Atom+Function  
  ----- ------------  ---------------      ----- ------------  ---------------
    34      1.082702  4 H  s                 36     -1.082702  5 H  s          
    11     -0.794220  2 C  pz                38      0.645987  6 H  s          
    40     -0.645987  7 H  s                 33     -0.612983  4 H  s          
    35      0.612983  5 H  s                  7      0.576432  2 C  pz         
    26      0.478955  3 O  pz                22     -0.472938  3 O  pz         

 Vector   24  Occ=0.000000D+00  E= 9.646066D-01
              MO Center=  1.7D-01, -8.4D-02,  2.0D-08, r^2= 2.8D+00
   Bfn.  Coefficient  Atom+Function         Bfn.  Coefficient  Atom+Function  
  ----- ------------  ---------------      ----- ------------  ---------------
     8      1.112660  2 C  s                 23      0.995940  3 O  s          
    34     -0.707203  4 H  s                 36     -0.707202  5 H  s          
    24      0.576996  3 O  px                19     -0.540763  3 O  s          
     2      0.475384  1 H  s                 25     -0.470485  3 O  py         
     1     -0.464461  1 H  s                  4     -0.455363  2 C  s          

 Vector   25  Occ=0.000000D+00  E= 1.034496D+00
              MO Center= -3.2D-02,  6.9D-01, -2.3D-09, r^2= 2.7D+00
   Bfn.  Coefficient  Atom+Function         Bfn.  Coefficient  Atom+Function  
  ----- ------------  ---------------      ----- ------------  ---------------
     8      4.047731  2 C  s                  4     -1.762961  2 C  s          
     2     -1.247863  1 H  s                 34     -1.143166  4 H  s          
    36     -1.143166  5 H  s                 10      0.565403  2 C  py         
    21     -0.407518  3 O  py                25      0.394397  3 O  py         
    15     -0.224335  2 C  dyy                1      0.208077  1 H  s          

 Vector   26  Occ=0.000000D+00  E= 1.079437D+00
              MO Center=  1.3D-01, -3.0D-01, -2.4D-08, r^2= 2.0D+00
   Bfn.  Coefficient  Atom+Function         Bfn.  Coefficient  Atom+Function  
  ----- ------------  ---------------      ----- ------------  ---------------
    26      1.560650  3 O  pz                22     -0.856592  3 O  pz         
    38      0.694178  6 H  s                 40     -0.694178  7 H  s          
    34     -0.422781  4 H  s                 36      0.422781  5 H  s          
     7     -0.332082  2 C  pz                14      0.316770  2 C  dxz        
    33      0.300241  4 H  s                 35     -0.300241  5 H  s          

 Vector   27  Occ=0.000000D+00  E= 1.099644D+00
              MO Center= -2.3D-01, -7.7D-01,  1.0D-08, r^2= 2.2D+00
   Bfn.  Coefficient  Atom+Function         Bfn.  Coefficient  Atom+Function  
  ----- ------------  ---------------      ----- ------------  ---------------
     8      2.042342  2 C  s                 23      1.510325  3 O  s          
    25     -1.464739  3 O  py                24     -0.778113  3 O  px         
    38     -0.778967  6 H  s                 40     -0.778967  7 H  s          
    19     -0.756729  3 O  s                  4     -0.669504  2 C  s          
    21      0.566332  3 O  py                 2     -0.562339  1 H  s          

 Vector   28  Occ=0.000000D+00  E= 1.433607D+00
              MO Center= -3.4D-03,  3.5D-02,  6.5D-10, r^2= 1.8D+00
   Bfn.  Coefficient  Atom+Function         Bfn.  Coefficient  Atom+Function  
  ----- ------------  ---------------      ----- ------------  ---------------
     8      3.246421  2 C  s                 23     -2.991106  3 O  s          
    19      1.027584  3 O  s                 25     -1.016114  3 O  py         
     4     -0.968385  2 C  s                 10     -0.789203  2 C  py         
    28      0.713564  3 O  dxy               13     -0.628159  2 C  dxy        
    30      0.498666  3 O  dyy               34     -0.467825  4 H  s          

 Vector   29  Occ=0.000000D+00  E= 1.523140D+00
              MO Center=  3.2D-02, -1.4D-01, -2.5D-10, r^2= 1.5D+00
   Bfn.  Coefficient  Atom+Function         Bfn.  Coefficient  Atom+Function  
  ----- ------------  ---------------      ----- ------------  ---------------
    23      2.439749  3 O  s                  8     -1.999624  2 C  s          
    19     -0.865858  3 O  s                 13     -0.801486  2 C  dxy        
    28      0.750525  3 O  dxy               25      0.597551  3 O  py         
    32     -0.566358  3 O  dzz                4      0.544387  2 C  s          
    10      0.526529  2 C  py                30     -0.346849  3 O  dyy        

 Vector   30  Occ=0.000000D+00  E= 1.546861D+00
              MO Center=  1.0D-01, -2.6D-01,  2.4D-10, r^2= 1.3D+00
   Bfn.  Coefficient  Atom+Function         Bfn.  Coefficient  Atom+Function  
  ----- ------------  ---------------      ----- ------------  ---------------
    31     -0.950254  3 O  dyz               16      0.936583  2 C  dyz        
    29      0.904538  3 O  dxz               26      0.468758  3 O  pz         
    14     -0.267646  2 C  dxz               37      0.175893  6 H  s          
    39     -0.175893  7 H  s                 38      0.119278  6 H  s          
    40     -0.119278  7 H  s                 22     -0.111166  3 O  pz         

 Vector   31  Occ=0.000000D+00  E= 1.908710D+00
              MO Center= -1.4D-03,  1.8D-01,  3.1D-10, r^2= 1.2D+00
   Bfn.  Coefficient  Atom+Function         Bfn.  Coefficient  Atom+Function  
  ----- ------------  ---------------      ----- ------------  ---------------
    23      1.273568  3 O  s                  8     -0.874333  2 C  s          
    19     -0.681635  3 O  s                 27     -0.626100  3 O  dxx        
    15      0.599081  2 C  dyy               25      0.488653  3 O  py         
    12     -0.445984  2 C  dxx                1      0.408455  1 H  s          
    30      0.354201  3 O  dyy               21     -0.341568  3 O  py         

 Vector   32  Occ=0.000000D+00  E= 2.029581D+00
              MO Center=  3.4D-02,  2.1D-02, -1.9D-09, r^2= 1.5D+00
   Bfn.  Coefficient  Atom+Function         Bfn.  Coefficient  Atom+Function  
  ----- ------------  ---------------      ----- ------------  ---------------
    23      1.292585  3 O  s                 13     -0.706244  2 C  dxy        
    24     -0.660048  3 O  px                 9      0.654380  2 C  px         
    17      0.613527  2 C  dzz               28     -0.591198  3 O  dxy        
    32      0.503068  3 O  dzz               37     -0.486076  6 H  s          
    39     -0.486076  7 H  s                 27     -0.468589  3 O  dxx        

 Vector   33  Occ=0.000000D+00  E= 2.046617D+00
              MO Center= -1.0D-02,  1.9D-01,  1.3D-09, r^2= 1.3D+00
   Bfn.  Coefficient  Atom+Function         Bfn.  Coefficient  Atom+Function  
  ----- ------------  ---------------      ----- ------------  ---------------
    16      1.231322  2 C  dyz               26      0.871982  3 O  pz         
    29     -0.847558  3 O  dxz               14     -0.803408  2 C  dxz        
    31      0.772326  3 O  dyz               11     -0.701035  2 C  pz         
    37      0.316726  6 H  s                 39     -0.316726  7 H  s          
    33      0.212407  4 H  s                 35     -0.212407  5 H  s          

 Vector   34  Occ=0.000000D+00  E= 2.258117D+00
              MO Center=  1.3D-02, -3.3D-01,  1.5D-09, r^2= 1.4D+00
   Bfn.  Coefficient  Atom+Function         Bfn.  Coefficient  Atom+Function  
  ----- ------------  ---------------      ----- ------------  ---------------
    23      1.841724  3 O  s                 28      1.164039  3 O  dxy        
     8     -0.943542  2 C  s                 27     -0.664894  3 O  dxx        
    37     -0.614645  6 H  s                 39     -0.614645  7 H  s          
    19     -0.585822  3 O  s                 12      0.558153  2 C  dxx        
    32      0.480591  3 O  dzz               10      0.388371  2 C  py         

 Vector   35  Occ=0.000000D+00  E= 2.266449D+00
              MO Center=  1.2D-01,  8.0D-01,  1.6D-08, r^2= 9.9D-01
   Bfn.  Coefficient  Atom+Function         Bfn.  Coefficient  Atom+Function  
  ----- ------------  ---------------      ----- ------------  ---------------
    14      1.693974  2 C  dxz               16      0.933544  2 C  dyz        
    33     -0.686582  4 H  s                 35      0.686582  5 H  s          
    11      0.457241  2 C  pz                31      0.304972  3 O  dyz        
    29     -0.179185  3 O  dxz                7      0.151543  2 C  pz         
    34      0.077811  4 H  s                 36     -0.077811  5 H  s          

 Vector   36  Occ=0.000000D+00  E= 2.268402D+00
              MO Center= -1.4D-02,  6.3D-01, -1.7D-08, r^2= 1.2D+00
   Bfn.  Coefficient  Atom+Function         Bfn.  Coefficient  Atom+Function  
  ----- ------------  ---------------      ----- ------------  ---------------
    13      1.318061  2 C  dxy               28      0.764823  3 O  dxy        
     1      0.698726  1 H  s                 17      0.674187  2 C  dzz        
    12     -0.612943  2 C  dxx               33     -0.316809  4 H  s          
    35     -0.316809  5 H  s                  9      0.277649  2 C  px         
    23      0.272774  3 O  s                  8     -0.191747  2 C  s          

 Vector   37  Occ=0.000000D+00  E= 2.515962D+00
              MO Center= -1.1D-02, -7.6D-01,  3.0D-10, r^2= 9.4D-01
   Bfn.  Coefficient  Atom+Function         Bfn.  Coefficient  Atom+Function  
  ----- ------------  ---------------      ----- ------------  ---------------
    31      1.534934  3 O  dyz               29      1.508314  3 O  dxz        
    37     -0.936651  6 H  s                 39      0.936651  7 H  s          
    26     -0.930716  3 O  pz                14     -0.187828  2 C  dxz        
    16      0.183948  2 C  dyz               11      0.173358  2 C  pz         
    22      0.061201  3 O  pz                34     -0.058982  4 H  s          

 Vector   38  Occ=0.000000D+00  E= 2.695417D+00
              MO Center=  3.5D-02,  3.1D-02,  1.1D-10, r^2= 1.5D+00
   Bfn.  Coefficient  Atom+Function         Bfn.  Coefficient  Atom+Function  
  ----- ------------  ---------------      ----- ------------  ---------------
    23     -1.877586  3 O  s                  8      1.783953  2 C  s          
    25     -1.460872  3 O  py                15      0.932518  2 C  dyy        
    30     -0.916715  3 O  dyy               10     -0.862495  2 C  py         
    32      0.779596  3 O  dzz                6     -0.583255  2 C  py         
    17     -0.578425  2 C  dzz               27      0.565050  3 O  dxx        

 Vector   39  Occ=0.000000D+00  E= 3.680005D+00
              MO Center=  3.3D-02, -6.7D-01,  1.9D-11, r^2= 1.2D+00
   Bfn.  Coefficient  Atom+Function         Bfn.  Coefficient  Atom+Function  
  ----- ------------  ---------------      ----- ------------  ---------------
    23      4.776805  3 O  s                 27     -1.772589  3 O  dxx        
    32     -1.721738  3 O  dzz               30     -1.538618  3 O  dyy        
     8     -0.770731  2 C  s                  4      0.745902  2 C  s          
    18     -0.505863  3 O  s                 38     -0.503540  6 H  s          
    40     -0.503540  7 H  s                 10      0.453436  2 C  py         

 Vector   40  Occ=0.000000D+00  E= 4.224468D+00
              MO Center=  4.0D-02,  7.4D-01, -1.7D-12, r^2= 9.7D-01
   Bfn.  Coefficient  Atom+Function         Bfn.  Coefficient  Atom+Function  
  ----- ------------  ---------------      ----- ------------  ---------------
     4      2.855412  2 C  s                  8      2.415712  2 C  s          
    15     -1.959388  2 C  dyy               12     -1.822881  2 C  dxx        
    17     -1.815295  2 C  dzz               23     -1.331122  3 O  s          
    30      0.668507  3 O  dyy               34     -0.537321  4 H  s          
    36     -0.537321  5 H  s                  2     -0.517170  1 H  s          


 center of mass
 --------------
 x =   0.03044597 y =  -0.05685482 z =   0.00000000

 moments of inertia (a.u.)
 ------------------
          90.021937969685          -3.092254126401           0.000000000000
          -3.092254126401          17.566028968364           0.000000000000
           0.000000000000           0.000000000000          86.594074461781

     Multipole analysis of the density
     ---------------------------------

     L   x y z        total         alpha         beta         nuclear
     -   - - -        -----         -----         ----         -------
     0   0 0 0      1.000000     -9.000000     -9.000000     19.000000

     1   1 0 0     -0.685671     -0.342832     -0.342832     -0.000008
     1   0 1 0     -0.718725     -0.359360     -0.359360     -0.000006
     1   0 0 1     -0.000000     -0.000000     -0.000000      0.000000

     2   2 0 0     -8.439497     -7.705896     -7.705896      6.972295
     2   1 1 0      1.779873     -0.683309     -0.683309      3.146490
     2   1 0 1      0.000000      0.000000      0.000000      0.000000
     2   0 2 0     -4.295362    -27.497896    -27.497896     50.700430
     2   0 1 1      0.000000      0.000000      0.000000      0.000000
     2   0 0 2     -6.089441     -8.252443     -8.252443     10.415445


 Parallel integral file used       8 records with       0 large values


            General Information
            -------------------
          SCF calculation type: DFT
          Wavefunction type:  closed shell.
          No. of atoms     :     7
          No. of electrons :    18
           Alpha electrons :     9
            Beta electrons :     9
          Charge           :     1
          Spin multiplicity:     1
          Use of symmetry is: off; symmetry adaption is: off
          Maximum number of iterations:  50
          AO basis - number of functions:    40
                     number of shells:    22
          Convergence on energy requested:  1.00D-06
          Convergence on density requested:  1.00D-05
          Convergence on gradient requested:  5.00D-04

              XC Information
              --------------
                       M06-2X Method XC Functional
                     Hartree-Fock (Exact) Exchange  0.540          
                        M06-2X Exchange Functional  1.000          
                      M06-2X Correlation Potential  1.000          

             Grid Information
             ----------------
          Grid used for XC integration:  medium    
          Radial quadrature: Mura-Knowles        
          Angular quadrature: Lebedev. 
          Tag              B.-S. Rad. Rad. Pts. Rad. Cut. Ang. Pts.
          ---              ---------- --------- --------- ---------
          H                   0.35       45           8.0       434
          C                   0.70       49           7.0       434
          O                   0.60       49           7.0       434
          Grid pruning is: on 
          Number of quadrature shells:   323
          Spatial weights used:  Erf1

          Convergence Information
          -----------------------
          Convergence aids based upon iterative change in 
          total energy or number of iterations. 
          Levelshifting, if invoked, occurs when the 
          HOMO/LUMO gap drops below (HL_TOL):  1.00D-02
          DIIS, if invoked, will attempt to extrapolate 
          using up to (NFOCK): 10 stored Fock matrices.

                    Damping( 0%)  Levelshifting(0.5)       DIIS
                  --------------- ------------------- ---------------
          dE  on:    start            ASAP                start   
          dE off:    2 iters         50 iters            50 iters 


      Screening Tolerance Information
      -------------------------------
          Density screening/tol_rho:  1.00D-10
          AO Gaussian exp screening on grid/accAOfunc:  14
          CD Gaussian exp screening on grid/accCDfunc:  20
          XC Gaussian exp screening on grid/accXCfunc:  20
          Schwarz screening/accCoul:  1.00D-08



                            NWChem DFT Gradient Module
                            --------------------------



  charge          =   1.00
  wavefunction    = closed shell

nuclear repulsion gradient  
     1.754946    -0.959764     0.000000
    -0.055544    -5.308380     0.000000
    -1.824411     5.172618     0.000000
    -0.952827    -0.859804    -1.549695
    -0.952827    -0.859804     1.549695
     1.015331     1.407566     2.174034
     1.015331     1.407566    -2.174034

weighted density gradient  
     0.174935    -0.060274     0.000000
     0.020351    -0.006386     0.000000
    -0.226114    -0.064566     0.000000
    -0.095800    -0.049812    -0.155168
    -0.095800    -0.049812     0.155168
     0.111214     0.115425     0.228629
     0.111214     0.115425    -0.228629

kinetic energy gradient  
    -4.548325     2.193396     0.000000
    -0.055665     9.550876    -0.000000
     4.310169    -9.642529    -0.000000
     2.481484     1.955712     4.019312
     2.481484     1.955712    -4.019312
    -2.334574    -3.006583    -5.078663
    -2.334574    -3.006583     5.078663

2-electron gradient  
     2.663931    -1.192467    -0.000000
     0.096659    -4.243492    -0.000000
    -2.287334     4.559975     0.000000
    -1.459130    -1.061656    -2.357495
    -1.459130    -1.061656     2.357495
     1.222503     1.499648     2.712266
     1.222503     1.499648    -2.712266

DFT CD+XC gradient
    -0.101869     0.035613    -0.000000
    -0.006241    -0.016891    -0.000000
     0.088402     0.023131    -0.000000
     0.054987     0.029521     0.089324
     0.054987     0.029521    -0.089324
    -0.045134    -0.050448    -0.099924
    -0.045134    -0.050448     0.099924

nuclear-cosmo charge gradient  
    -0.053945     0.044316     0.000000
     0.026716     0.135417    -0.000000
     0.108572     0.022659     0.000000
     0.039650     0.038603     0.050861
     0.039650     0.038603    -0.050861
    -0.080321    -0.139799    -0.182327
    -0.080321    -0.139799     0.182327

electron-cosmo charge gradient  
     0.106644    -0.058475    -0.000000
    -0.024629    -0.087643     0.000000
    -0.176742    -0.090397    -0.000000
    -0.065341    -0.050519    -0.095025
    -0.065341    -0.050519     0.095025
     0.112704     0.168776     0.238522
     0.112704     0.168776    -0.238522

cosmo charge-cosmo charge gradient  
     0.001329    -0.001272    -0.000000
    -0.000359    -0.003611     0.000000
    -0.000766     0.000076    -0.000000
    -0.001061    -0.000960    -0.001036
    -0.001061    -0.000960     0.001036
     0.000960     0.003364     0.005615
     0.000960     0.003364    -0.005615

cosmo SMD gradient  
    -0.000005    -0.000185    -0.000000
     0.000118     0.001455    -0.000000
    -0.000143     0.000313    -0.000000
     0.000012    -0.000319     0.000053
     0.000012    -0.000319    -0.000053
     0.000003    -0.000472    -0.000214
     0.000003    -0.000472     0.000214

total DFT gradient
    -0.002360     0.000889     0.000000
     0.001406     0.021347    -0.000000
    -0.008367    -0.018720    -0.000000
     0.001974     0.000765     0.001131
     0.001974     0.000765    -0.001131
     0.002687    -0.002523    -0.002063
     0.002687    -0.002523     0.002063



                         DFT ENERGY GRADIENTS

    atom               coordinates                        gradient
                 x          y          z           x          y          z
   1 H      -1.883645   2.151954   0.000000   -0.002360   0.000889   0.000000
   2 C       0.072433   1.512127   0.000000    0.001406   0.021347  -0.000000
   3 O       0.072433  -1.371593   0.000000   -0.008367  -0.018720  -0.000000
   4 H       1.106450   2.015729   1.704234    0.001974   0.000765   0.001131
   5 H       1.106450   2.015729  -1.704234    0.001974   0.000765  -0.001131
   6 H      -0.671663  -2.141715  -1.517665    0.002687  -0.002523  -0.002063
   7 H      -0.671663  -2.141715   1.517665    0.002687  -0.002523   0.002063

                 ----------------------------------------
                 |  Time  |  1-e(secs)   |  2-e(secs)   |
                 ----------------------------------------
                 |  CPU   |       0.03   |       0.27   |
                 ----------------------------------------
                 |  WALL  |       0.03   |       0.27   |
                 ----------------------------------------
  no constraints, skipping    0.0000000000000000     

@ Step       Energy      Delta E   Gmax     Grms     Xrms     Xmax   Walltime
@ ---- ---------------- -------- -------- -------- -------- -------- --------
@    0    -116.07932284  0.0D+00  0.02380  0.00535  0.00000  0.00000      4.6
                                                                    



                                Z-matrix (autoz)
                                -------- 

 Units are Angstrom for bonds and degrees for angles

      Type          Name      I     J     K     L     M      Value     Gradient
      ----------- --------  ----- ----- ----- ----- ----- ---------- ----------
    1 Stretch                  1     2                       1.08908    0.00257
    2 Stretch                  2     3                       1.52600    0.02380
    3 Stretch                  2     4                       1.08800    0.00209
    4 Stretch                  2     5                       1.08800    0.00209
    5 Stretch                  3     6                       0.98291    0.00162
    6 Stretch                  3     7                       0.98291    0.00162
    7 Bend                     1     2     3               108.11276    0.00010
    8 Bend                     1     2     4               113.69393    0.00009
    9 Bend                     1     2     5               113.69393    0.00009
   10 Bend                     2     3     6               114.49508    0.00166
   11 Bend                     2     3     7               114.49508    0.00166
   12 Bend                     3     2     4               104.17831    0.00017
   13 Bend                     3     2     5               104.17831    0.00017
   14 Bend                     4     2     5               111.97171   -0.00057
   15 Bend                     6     3     7               109.58603   -0.00056
   16 Torsion                  1     2     3     6          63.88174    0.00115
   17 Torsion                  1     2     3     7         -63.88174   -0.00115
   18 Torsion                  4     2     3     6        -174.87166    0.00140
   19 Torsion                  4     2     3     7          57.36487   -0.00090
   20 Torsion                  5     2     3     6         -57.36487    0.00090
   21 Torsion                  5     2     3     7         174.87166   -0.00140

  no constraints, skipping    0.0000000000000000     
  no constraints, skipping    0.0000000000000000     
  no constraints, skipping    0.0000000000000000     
  no constraints, skipping    0.0000000000000000     
  no constraints, skipping    0.0000000000000000     
  no constraints, skipping    0.0000000000000000     
  no constraints, skipping    0.0000000000000000     
  no constraints, skipping    0.0000000000000000     

                                 NWChem DFT Module
                                 -----------------




 Summary of "ao basis" -> "ao basis" (cartesian)
 ------------------------------------------------------------------------------
       Tag                 Description            Shells   Functions and Types
 ---------------- ------------------------------  ------  ---------------------
 H                           6-31G*                  2        2   2s
 C                           6-31G*                  6       15   3s2p1d
 O                           6-31G*                  6       15   3s2p1d



 solvent parameters
 solvname_short: h2o     
 solvname_long:  water                              
 dielec:       78.4000
 dielecinf:     1.7769
 aqueous SMD model solvent descriptors
 dielec:       78.4000
 sola:          0.8200

          ---------------
          -cosmo- solvent
          ---------------
 Cosmo: York-Karplus, doi: 10.1021/jp992097l
 dielectric constant -eps-     =  78.40
 screen = (eps-1)/(eps    )    =   0.98724
 surface charge correction     = lagrangian

 solvent accessible surface
 --------------------------

 ---------- ATOMIC COORDINATES (A.U.) ------------ VDWR(ANG.) --
     1   -1.88137124    2.09021914   -0.00000003     1.200
     2    0.07360229    1.47114550   -0.00000001     1.850
     3    0.09625164   -1.33281323    0.00000002     1.520
     4    1.09541824    1.97845960    1.70323867     1.200
     5    1.09541828    1.97845962   -1.70323867     1.200
     6   -0.67426261   -2.07247789   -1.51386492     1.200
     7   -0.67426252   -2.07247797    1.51386493     1.200
 number of segments per atom =        128
 number of   points per atom =        128
 atom (   nspa,  nppa )
 ----------------------
    1 (     54,     0 )       0
    2 (     66,     0 )       0
    3 (     44,     0 )       0
    4 (     54,     0 )       0
    5 (     54,     0 )       0
    6 (     70,     0 )       0
    7 (     70,     0 )       0
 number of -cosmo- surface points =      412
 molecular surface =     65.236 angstrom**2
 molecular volume  =     31.340 angstrom**3
 -lineq- algorithm             =   0
 -bem- low  level              =   3
 -bem- from -octahedral-
 gaussian surface charge width =   4.50000
 degree of switching           =   1.00000
 switching function tolerance  =   0.00010
 atomic radii = 
 --------------
    1  1.000  1.200
    2  6.000  1.850
    3  8.000  1.520
    4  1.000  1.200
    5  1.000  1.200
    6  1.000  1.200
    7  1.000  1.200
 ...... end of -cosmo- initialization ......


 G(SMD-CDS) energy (kcal/mol)  =     3.274
 SMD-CDS SASA (angstrom**2)    =    89.805

  Caching 1-el integrals 

            General Information
            -------------------
          SCF calculation type: DFT
          Wavefunction type:  closed shell.
          No. of atoms     :     7
          No. of electrons :    18
           Alpha electrons :     9
            Beta electrons :     9
          Charge           :     1
          Spin multiplicity:     1
          Use of symmetry is: off; symmetry adaption is: off
          Maximum number of iterations:  50
          AO basis - number of functions:    40
                     number of shells:    22
          Convergence on energy requested:  1.00D-06
          Convergence on density requested:  1.00D-05
          Convergence on gradient requested:  5.00D-04

              XC Information
              --------------
                       M06-2X Method XC Functional
                     Hartree-Fock (Exact) Exchange  0.540          
                        M06-2X Exchange Functional  1.000          
                      M06-2X Correlation Potential  1.000          

             Grid Information
             ----------------
          Grid used for XC integration:  medium    
          Radial quadrature: Mura-Knowles        
          Angular quadrature: Lebedev. 
          Tag              B.-S. Rad. Rad. Pts. Rad. Cut. Ang. Pts.
          ---              ---------- --------- --------- ---------
          H                   0.35       45           8.0       434
          C                   0.70       49           7.0       434
          O                   0.60       49           7.0       434
          Grid pruning is: on 
          Number of quadrature shells:   323
          Spatial weights used:  Erf1

          Convergence Information
          -----------------------
          Convergence aids based upon iterative change in 
          total energy or number of iterations. 
          Levelshifting, if invoked, occurs when the 
          HOMO/LUMO gap drops below (HL_TOL):  1.00D-02
          DIIS, if invoked, will attempt to extrapolate 
          using up to (NFOCK): 10 stored Fock matrices.

                    Damping( 0%)  Levelshifting(0.5)       DIIS
                  --------------- ------------------- ---------------
          dE  on:    start            ASAP                start   
          dE off:    2 iters         50 iters            50 iters 


      Screening Tolerance Information
      -------------------------------
          Density screening/tol_rho:  1.00D-10
          AO Gaussian exp screening on grid/accAOfunc:  14
          CD Gaussian exp screening on grid/accCDfunc:  20
          XC Gaussian exp screening on grid/accXCfunc:  20
          Schwarz screening/accCoul:  1.00D-08


 Loading old vectors from job with title :



   Time after variat. SCF:      4.6
   Time prior to 1st pass:      4.6

 Integral file          = ./CH3OH2pWat_SMD_M062X_opt_dat.aoints.0
 Record size in doubles =  65536        No. of integs per rec  =  43688
 Max. records in memory =      5        Max. records in file   = 120030
 No. of bits per label  =      8        No. of bits per value  =     64


 #quartets = 3.198D+04 #integrals = 2.881D+05 #direct =  0.0% #cached =100.0%


File balance: exchanges=     4  moved=     0  time=   0.0


 Grid_pts file          = ./CH3OH2pWat_SMD_M062X_opt_dat.gridpts.0
 Record size in doubles =  12289        No. of grid_pts per rec  =   3070
 Max. records in memory =     14        Max. recs in file   =    640111


           Memory utilization after 1st SCF pass: 
           Heap Space remaining (MW):       12.60            12601740
          Stack Space remaining (MW):       13.11            13106788

   convergence    iter        energy       DeltaE   RMS-Dens  Diis-err    time
 ---------------- ----- ----------------- --------- --------- ---------  ------
     COSMO gas phase
 d= 0,ls=0.0,diis     1   -115.9511058825 -1.62D+02  3.45D-03  1.14D-02     5.0
 d= 0,ls=0.0,diis     2   -115.9530223301 -1.92D-03  5.62D-04  1.08D-03     5.3
 d= 0,ls=0.0,diis     3   -115.9531355573 -1.13D-04  2.18D-04  1.81D-04     5.5
 d= 0,ls=0.0,diis     4   -115.9531519260 -1.64D-05  6.87D-05  2.76D-05     5.7
 d= 0,ls=0.0,diis     5   -115.9531545243 -2.60D-06  1.84D-05  1.19D-06     5.9
 d= 0,ls=0.0,diis     6   -115.9531546583 -1.34D-07  6.08D-06  1.08D-07     6.2

           Memory utilization after 1st SCF pass: 
           Heap Space remaining (MW):       12.60            12601740
          Stack Space remaining (MW):       13.11            13106788

   convergence    iter        energy       DeltaE   RMS-Dens  Diis-err    time
 ---------------- ----- ----------------- --------- --------- ---------  ------
     COSMO solvation phase
 d= 0,ls=0.0,diis     1   -116.0790940687 -1.26D-01  3.00D-03  6.25D-03     6.4
 d= 0,ls=0.0,diis     2   -116.0805620440 -1.47D-03  6.55D-04  3.43D-04     6.7
 d= 0,ls=0.0,diis     3   -116.0806279970 -6.60D-05  2.16D-04  4.93D-05     7.0
 d= 0,ls=0.0,diis     4   -116.0806285066 -5.10D-07  5.66D-05  1.97D-05     7.3
 d= 0,ls=0.0,diis     5   -116.0806303936 -1.89D-06  1.38D-05  3.04D-07     7.6
 d= 0,ls=0.0,diis     6   -116.0806304591 -6.54D-08  2.83D-06  4.17D-08     7.8


         Total DFT energy =     -116.080630459058
      One electron energy =     -238.646235281396
           Coulomb energy =       96.323284996885
    Exchange-Corr. energy =      -15.504922874863
 Nuclear repulsion energy =       46.224497845206

             COSMO energy =       -4.477255144891

 Numeric. integr. density =       18.000000566210

     Total iterative time =      3.2s


                                COSMO-SMD solvation results
                                ---------------------------
 Reference for the SMD model:
 Marenich, A. V.; Cramer, C. J.; Truhlar, D. G. J. Phys. Chem. B 2009, 113, 6378

             internal energy in gas <Psi(g)|H|Psi(g)> =      -115.953154658343
         internal energy in solvent <Psi(s)|H|Psi(s)> =      -115.951266254144
                               delta internal energy  =         0.001888404199 (    1.18 kcal/mol)
   total free energy in solvent <Psi(s)|H+V/2|Psi(s)> =      -116.085847128440
 polarization energy contribution <Psi(s)|V/2|Psi(s)> =        -0.134580874296 (  -84.45 kcal/mol)
    total free energy in solvent including G(SMD-CDS) =      -116.080630459058
                       G(SMD-CDS) energy contribution =         0.005216669383 (    3.27 kcal/mol)
     1 M fixed-concentration free energy of solvation =        -0.127475800715 (  -79.99 kcal/mol)

                       DFT Final Molecular Orbital Analysis
                       ------------------------------------

 Vector    1  Occ=2.000000D+00  E=-1.978172D+01
              MO Center=  5.1D-02, -7.1D-01,  1.1D-08, r^2= 1.5D-02
   Bfn.  Coefficient  Atom+Function         Bfn.  Coefficient  Atom+Function  
  ----- ------------  ---------------      ----- ------------  ---------------
    18      0.993932  3 O  s          

 Vector    2  Occ=2.000000D+00  E=-1.062745D+01
              MO Center=  3.9D-02,  7.8D-01, -4.5D-09, r^2= 2.8D-02
   Bfn.  Coefficient  Atom+Function         Bfn.  Coefficient  Atom+Function  
  ----- ------------  ---------------      ----- ------------  ---------------
     3      0.993989  2 C  s                  4      0.041142  2 C  s          

 Vector    3  Occ=2.000000D+00  E=-1.276614D+00
              MO Center= -4.7D-02, -6.6D-01,  1.2D-08, r^2= 5.6D-01
   Bfn.  Coefficient  Atom+Function         Bfn.  Coefficient  Atom+Function  
  ----- ------------  ---------------      ----- ------------  ---------------
    19      0.482174  3 O  s                 23      0.438718  3 O  s          
    18     -0.209573  3 O  s                 37      0.105594  6 H  s          
    39      0.105594  7 H  s                  4      0.087098  2 C  s          
     6     -0.073666  2 C  py                20     -0.066761  3 O  px         
     3     -0.047927  2 C  s                 24     -0.033235  3 O  px         

 Vector    4  Occ=2.000000D+00  E=-8.447935D-01
              MO Center=  3.7D-02,  3.3D-01,  3.4D-08, r^2= 1.4D+00
   Bfn.  Coefficient  Atom+Function         Bfn.  Coefficient  Atom+Function  
  ----- ------------  ---------------      ----- ------------  ---------------
     4      0.355418  2 C  s                  8      0.309068  2 C  s          
    21      0.288872  3 O  py                 3     -0.178451  2 C  s          
    25      0.159059  3 O  py                33      0.119886  4 H  s          
    35      0.119886  5 H  s                  1      0.112682  1 H  s          
    23     -0.105427  3 O  s                 19     -0.088074  3 O  s          

 Vector    5  Occ=2.000000D+00  E=-7.296206D-01
              MO Center= -5.7D-02, -7.2D-01,  2.2D-08, r^2= 8.5D-01
   Bfn.  Coefficient  Atom+Function         Bfn.  Coefficient  Atom+Function  
  ----- ------------  ---------------      ----- ------------  ---------------
    22      0.537625  3 O  pz                26      0.316312  3 O  pz         
    37     -0.203693  6 H  s                 39      0.203693  7 H  s          
     7      0.111784  2 C  pz                29     -0.054058  3 O  dxz        
    11      0.047866  2 C  pz                33      0.040637  4 H  s          
    35     -0.040637  5 H  s                 38     -0.039581  6 H  s          

 Vector    6  Occ=2.000000D+00  E=-6.264940D-01
              MO Center= -1.0D-01,  8.9D-02, -5.7D-08, r^2= 1.5D+00
   Bfn.  Coefficient  Atom+Function         Bfn.  Coefficient  Atom+Function  
  ----- ------------  ---------------      ----- ------------  ---------------
    21      0.337246  3 O  py                20      0.316743  3 O  px         
     6     -0.259970  2 C  py                25      0.212732  3 O  py         
    24      0.203542  3 O  px                 8     -0.201909  2 C  s          
     1     -0.161322  1 H  s                 23      0.158430  3 O  s          
     5      0.134976  2 C  px                 4     -0.127352  2 C  s          

 Vector    7  Occ=2.000000D+00  E=-5.752750D-01
              MO Center=  1.6D-01,  2.2D-03, -5.5D-08, r^2= 1.4D+00
   Bfn.  Coefficient  Atom+Function         Bfn.  Coefficient  Atom+Function  
  ----- ------------  ---------------      ----- ------------  ---------------
    20      0.359926  3 O  px                21     -0.320378  3 O  py         
     5      0.272284  2 C  px                24      0.246058  3 O  px         
    25     -0.215517  3 O  py                 6      0.186788  2 C  py         
     9      0.129168  2 C  px                33      0.123548  4 H  s          
    35      0.123548  5 H  s                  8      0.097566  2 C  s          

 Vector    8  Occ=2.000000D+00  E=-4.996680D-01
              MO Center=  2.6D-01,  8.0D-01,  1.5D-07, r^2= 1.3D+00
   Bfn.  Coefficient  Atom+Function         Bfn.  Coefficient  Atom+Function  
  ----- ------------  ---------------      ----- ------------  ---------------
     7      0.469652  2 C  pz                33      0.236532  4 H  s          
    35     -0.236532  5 H  s                 11      0.231894  2 C  pz         
    34      0.150983  4 H  s                 36     -0.150983  5 H  s          
    22     -0.149473  3 O  pz                26     -0.095013  3 O  pz         
    37      0.075481  6 H  s                 39     -0.075481  7 H  s          

 Vector    9  Occ=2.000000D+00  E=-4.627637D-01
              MO Center= -1.0D-01,  2.9D-01, -1.0D-07, r^2= 1.7D+00
   Bfn.  Coefficient  Atom+Function         Bfn.  Coefficient  Atom+Function  
  ----- ------------  ---------------      ----- ------------  ---------------
    20      0.415918  3 O  px                 5     -0.374285  2 C  px         
    24      0.313720  3 O  px                 1      0.242193  1 H  s          
     9     -0.181150  2 C  px                 2      0.171139  1 H  s          
    23      0.119578  3 O  s                 33     -0.112398  4 H  s          
    35     -0.112398  5 H  s                 21     -0.101358  3 O  py         

 Vector   10  Occ=0.000000D+00  E= 6.684286D-02
              MO Center= -3.0D-01, -5.5D-01,  5.8D-07, r^2= 3.1D+00
   Bfn.  Coefficient  Atom+Function         Bfn.  Coefficient  Atom+Function  
  ----- ------------  ---------------      ----- ------------  ---------------
    23      1.314502  3 O  s                 38     -0.701361  6 H  s          
    40     -0.701361  7 H  s                 10      0.565157  2 C  py         
     6      0.278254  2 C  py                24     -0.237493  3 O  px         
     2     -0.200218  1 H  s                 34     -0.198189  4 H  s          
    36     -0.198187  5 H  s                 19      0.189473  3 O  s          

 Vector   11  Occ=0.000000D+00  E= 1.625847D-01
              MO Center= -3.4D-01, -1.0D+00, -8.0D-05, r^2= 3.0D+00
   Bfn.  Coefficient  Atom+Function         Bfn.  Coefficient  Atom+Function  
  ----- ------------  ---------------      ----- ------------  ---------------
    38      1.160578  6 H  s                 40     -1.160519  7 H  s          
    26      0.678004  3 O  pz                34     -0.379478  4 H  s          
    36      0.379608  5 H  s                 22      0.364013  3 O  pz         
    11      0.278999  2 C  pz                37      0.151851  6 H  s          
    39     -0.151846  7 H  s                  7      0.129625  2 C  pz         

 Vector   12  Occ=0.000000D+00  E= 1.635068D-01
              MO Center= -6.2D-02,  7.5D-01,  7.8D-05, r^2= 3.0D+00
   Bfn.  Coefficient  Atom+Function         Bfn.  Coefficient  Atom+Function  
  ----- ------------  ---------------      ----- ------------  ---------------
     8      2.156285  2 C  s                  2     -0.840315  1 H  s          
    34     -0.740897  4 H  s                 36     -0.740829  5 H  s          
    25     -0.677560  3 O  py                10     -0.568962  2 C  py         
    23     -0.433678  3 O  s                 21     -0.324612  3 O  py         
    38     -0.323394  6 H  s                 40     -0.323598  7 H  s          

 Vector   13  Occ=0.000000D+00  E= 1.878923D-01
[...]



                            NWChem DFT Gradient Module
                            --------------------------



  charge          =   1.00
  wavefunction    = closed shell

nuclear repulsion gradient  
     1.783637    -0.970010     0.000000
     0.004771    -5.666565    -0.000000
    -2.183940     5.705752     0.000000
    -0.938102    -0.915702    -1.565401
    -0.938102    -0.915702     1.565401
     1.135868     1.381113     2.157782
     1.135868     1.381113    -2.157782

weighted density gradient  
     0.172324    -0.059866    -0.000000
     0.019401    -0.019460    -0.000000
    -0.261415    -0.029246     0.000000
    -0.091919    -0.053899    -0.154348
    -0.091919    -0.053899     0.154349
     0.126764     0.108186     0.224886
     0.126764     0.108186    -0.224886

kinetic energy gradient  
    -4.576629     2.216757     0.000000
    -0.151655    10.080773     0.000001
     5.213174   -10.669640    -0.000002
     2.414744     2.092496     4.050200
     2.414744     2.092497    -4.050200
    -2.657190    -2.906441    -5.014535
    -2.657189    -2.906442     5.014535

2-electron gradient  
     2.668363    -1.206841    -0.000000
     0.133079    -4.427827    -0.000001
    -2.791824     5.048452     0.000001
    -1.412476    -1.140907    -2.374846
    -1.412476    -1.140908     2.374846
     1.407668     1.434015     2.669820
     1.407667     1.434016    -2.669820

DFT CD+XC gradient
    -0.101140     0.035727     0.000000
    -0.004639    -0.015844     0.000000
     0.102833     0.010821    -0.000000
     0.053051     0.032248     0.089252
     0.053051     0.032248    -0.089252
    -0.051578    -0.047600    -0.097745
    -0.051578    -0.047600     0.097745

nuclear-cosmo charge gradient  
    -0.052250     0.044910    -0.000000
     0.031529     0.136173     0.000000
     0.129155     0.022848    -0.000000
     0.038729     0.039352     0.050186
     0.038729     0.039352    -0.050186
    -0.092946    -0.141317    -0.188419
    -0.092946    -0.141317     0.188419

electron-cosmo charge gradient  
     0.104607    -0.058951    -0.000000
    -0.032046    -0.085126    -0.000000
    -0.207080    -0.089398     0.000000
    -0.062796    -0.052454    -0.094081
    -0.062796    -0.052454     0.094081
     0.130056     0.169192     0.242272
     0.130056     0.169192    -0.242272

cosmo charge-cosmo charge gradient  
     0.001293    -0.001332    -0.000000
    -0.000392    -0.003624     0.000000
    -0.000859     0.000119     0.000000
    -0.001033    -0.000970    -0.001006
    -0.001033    -0.000970     0.001006
     0.001012     0.003389     0.006145
     0.001012     0.003389    -0.006145

cosmo SMD gradient  
     0.000013    -0.000167     0.000000
     0.000127     0.001464     0.000000
    -0.000244     0.000289    -0.000000
     0.000015    -0.000318     0.000054
     0.000015    -0.000318    -0.000054
     0.000037    -0.000476    -0.000225
     0.000037    -0.000476     0.000225

total DFT gradient
     0.000218     0.000226     0.000000
     0.000176    -0.000036    -0.000000
    -0.000200    -0.000004     0.000000
     0.000212    -0.000155     0.000011
     0.000212    -0.000155    -0.000011
    -0.000309     0.000062    -0.000018
    -0.000309     0.000062     0.000018



                         DFT ENERGY GRADIENTS

    atom               coordinates                        gradient
                 x          y          z           x          y          z
   1 H      -1.870406   2.081228  -0.000000    0.000218   0.000226   0.000000
   2 C       0.082086   1.446220   0.000000    0.000176  -0.000036  -0.000000
   3 O       0.133977  -1.343050   0.000000   -0.000200  -0.000004   0.000000
   4 H       1.090507   2.001036   1.698387    0.000212  -0.000155   0.000011
   5 H       1.090508   2.001036  -1.698386    0.000212  -0.000155  -0.000011
   6 H      -0.697939  -2.072978  -1.491959   -0.000309   0.000062  -0.000018
   7 H      -0.697938  -2.072978   1.491959   -0.000309   0.000062   0.000018

                 ----------------------------------------
                 |  Time  |  1-e(secs)   |  2-e(secs)   |
                 ----------------------------------------
                 |  CPU   |       0.02   |       0.24   |
                 ----------------------------------------
                 |  WALL  |       0.02   |       0.24   |
                 ----------------------------------------
  no constraints, skipping    0.0000000000000000     

  Step       Energy      Delta E   Gmax     Grms     Xrms     Xmax   Walltime
  ---- ---------------- -------- -------- -------- -------- -------- --------
@    6    -116.08101019  1.0D-07  0.00002  0.00001  0.00010  0.00024     45.8
                                     ok       ok       ok       ok  



                                Z-matrix (autoz)
                                -------- 

 Units are Angstrom for bonds and degrees for angles

      Type          Name      I     J     K     L     M      Value     Gradient
      ----------- --------  ----- ----- ----- ----- ----- ---------- ----------
    1 Stretch                  1     2                       1.08648    0.00001
    2 Stretch                  2     3                       1.47627   -0.00001
    3 Stretch                  2     4                       1.08568    0.00001
    4 Stretch                  2     5                       1.08568    0.00001
    5 Stretch                  3     6                       0.98302    0.00002
    6 Stretch                  3     7                       0.98302    0.00002
    7 Bend                     1     2     3               109.08186   -0.00000
    8 Bend                     1     2     4               112.56810   -0.00000
    9 Bend                     1     2     5               112.56810   -0.00000
   10 Bend                     2     3     6               112.61490    0.00000
   11 Bend                     2     3     7               112.61490    0.00000
   12 Bend                     3     2     4               105.14339   -0.00000
   13 Bend                     3     2     5               105.14339   -0.00000
   14 Bend                     4     2     5               111.75016    0.00000
   15 Bend                     6     3     7               106.86360   -0.00000
   16 Torsion                  1     2     3     6          60.46396    0.00000
   17 Torsion                  1     2     3     7         -60.46398   -0.00000
   18 Torsion                  4     2     3     6        -178.58380   -0.00000
   19 Torsion                  4     2     3     7          60.48826   -0.00000
   20 Torsion                  5     2     3     6         -60.48827    0.00000
   21 Torsion                  5     2     3     7         178.58379    0.00000


      ----------------------
      Optimization converged
      ----------------------


  Step       Energy      Delta E   Gmax     Grms     Xrms     Xmax   Walltime
  ---- ---------------- -------- -------- -------- -------- -------- --------
@    6    -116.08101019  1.0D-07  0.00002  0.00001  0.00010  0.00024     45.8
                                     ok       ok       ok       ok  



                                Z-matrix (autoz)
                                -------- 

 Units are Angstrom for bonds and degrees for angles

      Type          Name      I     J     K     L     M      Value     Gradient
      ----------- --------  ----- ----- ----- ----- ----- ---------- ----------
    1 Stretch                  1     2                       1.08648    0.00001
    2 Stretch                  2     3                       1.47627   -0.00001
    3 Stretch                  2     4                       1.08568    0.00001
    4 Stretch                  2     5                       1.08568    0.00001
    5 Stretch                  3     6                       0.98302    0.00002
    6 Stretch                  3     7                       0.98302    0.00002
    7 Bend                     1     2     3               109.08186   -0.00000
    8 Bend                     1     2     4               112.56810   -0.00000
    9 Bend                     1     2     5               112.56810   -0.00000
   10 Bend                     2     3     6               112.61490    0.00000
   11 Bend                     2     3     7               112.61490    0.00000
   12 Bend                     3     2     4               105.14339   -0.00000
   13 Bend                     3     2     5               105.14339   -0.00000
   14 Bend                     4     2     5               111.75016    0.00000
   15 Bend                     6     3     7               106.86360   -0.00000
   16 Torsion                  1     2     3     6          60.46396    0.00000
   17 Torsion                  1     2     3     7         -60.46398   -0.00000
   18 Torsion                  4     2     3     6        -178.58380   -0.00000
   19 Torsion                  4     2     3     7          60.48826   -0.00000
   20 Torsion                  5     2     3     6         -60.48827    0.00000
   21 Torsion                  5     2     3     7         178.58379    0.00000



                         Geometry "geometry" -> "geometry"
                         ---------------------------------

 Output coordinates in angstroms (scale by  1.889725989 to convert to a.u.)

  No.       Tag          Charge          X              Y              Z
 ---- ---------------- ---------- -------------- -------------- --------------
    1 H                    1.0000    -0.98977647     1.10133861    -0.00000005
    2 C                    6.0000     0.04343784     0.76530673     0.00000000
    3 O                    8.0000     0.07089750    -0.71071147     0.00000001
    4 H                    1.0000     0.57707175     1.05890283     0.89874751
    5 H                    1.0000     0.57707181     1.05890281    -0.89874748
    6 H                    1.0000    -0.36933329    -1.09697272    -0.78951064
    7 H                    1.0000    -0.36933314    -1.09697280     0.78951065

      Atomic Mass 
      ----------- 

      H                  1.007825
      C                 12.000000
      O                 15.994910


 Effective nuclear repulsion energy (a.u.)      46.2835927054

            Nuclear Dipole moment (a.u.) 
            ----------------------------
        X                 Y               Z
 ---------------- ---------------- ----------------
     0.4790600640    -0.1297346025     0.0000000806


                Final and change from initial internal coordinates
                --------------------------------------------------



                                Z-matrix (autoz)
                                -------- 

 Units are Angstrom for bonds and degrees for angles

      Type          Name      I     J     K     L     M      Value       Change
      ----------- --------  ----- ----- ----- ----- ----- ---------- ----------
    1 Stretch                  1     2                       1.08648   -0.00259
    2 Stretch                  2     3                       1.47627   -0.04973
    3 Stretch                  2     4                       1.08568   -0.00231
    4 Stretch                  2     5                       1.08568   -0.00231
    5 Stretch                  3     6                       0.98302    0.00011
    6 Stretch                  3     7                       0.98302    0.00011
    7 Bend                     1     2     3               109.08186    0.96910
    8 Bend                     1     2     4               112.56810   -1.12583
    9 Bend                     1     2     5               112.56810   -1.12583
   10 Bend                     2     3     6               112.61490   -1.88019
   11 Bend                     2     3     7               112.61490   -1.88018
   12 Bend                     3     2     4               105.14339    0.96507
   13 Bend                     3     2     5               105.14339    0.96507
   14 Bend                     4     2     5               111.75016   -0.22154
   15 Bend                     6     3     7               106.86360   -2.72243
   16 Torsion                  1     2     3     6          60.46396   -3.41777
   17 Torsion                  1     2     3     7         -60.46398    3.41776
   18 Torsion                  4     2     3     6        -178.58380   -3.71214
   19 Torsion                  4     2     3     7          60.48826    3.12339
   20 Torsion                  5     2     3     6         -60.48827   -3.12340
   21 Torsion                  5     2     3     7         178.58379    3.71213

 ==============================================================================
                                internuclear distances
 ------------------------------------------------------------------------------
       center one      |      center two      | atomic units |  angstroms
 ------------------------------------------------------------------------------
    2 C                |   1 H                |     2.05316  |     1.08648
    3 O                |   2 C                |     2.78975  |     1.47627
    4 H                |   2 C                |     2.05165  |     1.08568
    5 H                |   2 C                |     2.05165  |     1.08568
    6 H                |   3 O                |     1.85764  |     0.98302
    7 H                |   3 O                |     1.85764  |     0.98302
 ------------------------------------------------------------------------------
                         number of included internuclear distances:          6
 ==============================================================================



 ==============================================================================
                                 internuclear angles
 ------------------------------------------------------------------------------
        center 1       |       center 2       |       center 3       |  degrees
 ------------------------------------------------------------------------------
    1 H                |   2 C                |   3 O                |   109.08
    1 H                |   2 C                |   4 H                |   112.57
    1 H                |   2 C                |   5 H                |   112.57
    3 O                |   2 C                |   4 H                |   105.14
    3 O                |   2 C                |   5 H                |   105.14
    4 H                |   2 C                |   5 H                |   111.75
    2 C                |   3 O                |   6 H                |   112.61
    2 C                |   3 O                |   7 H                |   112.61
    6 H                |   3 O                |   7 H                |   106.86
 ------------------------------------------------------------------------------
                            number of included internuclear angles:          9
 ==============================================================================




 Task  times  cpu:       45.8s     wall:       45.8s


                                NWChem Input Module
                                -------------------


 Summary of allocated global arrays
-----------------------------------
  No active global arrays



                         GA Statistics for process    0
                         ------------------------------

       create   destroy   get      put      acc     scatter   gather  read&inc
calls: 2323     2323     1.54e+05 7363     6.94e+04    0        0     5684     
number of processes/call -2.79e+13 1.80e+14 5.08e+04 0.00e+00 0.00e+00
bytes total:             8.64e+07 1.80e+07 3.80e+07 0.00e+00 0.00e+00 4.55e+04
bytes remote:            2.54e+07 3.18e+06 1.35e+07 0.00e+00 0.00e+00 0.00e+00
Max memory consumed for GA by this process: 303104 bytes

MA_summarize_allocated_blocks: starting scan ...
MA_summarize_allocated_blocks: scan completed: 0 heap blocks, 0 stack blocks
MA usage statistics:

	allocation statistics:
					      heap	     stack
					      ----	     -----
	current number of blocks	         0	         0
	maximum number of blocks	        25	        53
	current total bytes		         0	         0
	maximum total bytes		   4043720	  32875816
	maximum total K-bytes		      4044	     32876
	maximum total M-bytes		         5	        33


                                     CITATION
                                     --------
                Please cite the following reference when publishing
                           results obtained with NWChem:

          E. Apra, E. J. Bylaska, W. A. de Jong, N. Govind, K. Kowalski,
       T. P. Straatsma, M. Valiev, H. J. J. van Dam, Y. Alexeev, J. Anchell,
       V. Anisimov, F. W. Aquino, R. Atta-Fynn, J. Autschbach, N. P. Bauman,
     J. C. Becca, D. E. Bernholdt, K. Bhaskaran-Nair, S. Bogatko, P. Borowski,
         J. Boschen, J. Brabec, A. Bruner, E. Cauet, Y. Chen, G. N. Chuev,
      C. J. Cramer, J. Daily, M. J. O. Deegan, T. H. Dunning Jr., M. Dupuis,
   K. G. Dyall, G. I. Fann, S. A. Fischer, A. Fonari, H. Fruchtl, L. Gagliardi,
      J. Garza, N. Gawande, S. Ghosh, K. Glaesemann, A. W. Gotz, J. Hammond,
       V. Helms, E. D. Hermes, K. Hirao, S. Hirata, M. Jacquelin, L. Jensen,
   B. G. Johnson, H. Jonsson, R. A. Kendall, M. Klemm, R. Kobayashi, V. Konkov,
      S. Krishnamoorthy, M. Krishnan, Z. Lin, R. D. Lins, R. J. Littlefield,
      A. J. Logsdail, K. Lopata, W. Ma, A. V. Marenich, J. Martin del Campo,
   D. Mejia-Rodriguez, J. E. Moore, J. M. Mullin, T. Nakajima, D. R. Nascimento,
    J. A. Nichols, P. J. Nichols, J. Nieplocha, A. Otero-de-la-Roza, B. Palmer,
    A. Panyala, T. Pirojsirikul, B. Peng, R. Peverati, J. Pittner, L. Pollack,
   R. M. Richard, P. Sadayappan, G. C. Schatz, W. A. Shelton, D. W. Silverstein,
   D. M. A. Smith, T. A. Soares, D. Song, M. Swart, H. L. Taylor, G. S. Thomas,
            V. Tipparaju, D. G. Truhlar, K. Tsemekhman, T. Van Voorhis,
      A. Vazquez-Mayagoitia, P. Verma, O. Villa, A. Vishnu, K. D. Vogiatzis,
        D. Wang, J. H. Weare, M. J. Williamson, T. L. Windus, K. Wolinski,
        A. T. Wong, Q. Wu, C. Yang, Q. Yu, M. Zacharias, Z. Zhang, Y. Zhao,
                                and R. J. Harrison
                        "NWChem: Past, present, and future
                         J. Chem. Phys. 152, 184102 (2020)
                               doi:10.1063/5.0004997

                                      AUTHORS
                                      -------
     E. Apra, E. J. Bylaska, N. Govind, K. Kowalski, M. Valiev, W. A. de Jong,
      T. P. Straatsma, H. J. J. van Dam, D. Wang, T. L. Windus, N. P. Bauman,
       A. Panyala, J. Hammond, J. Autschbach, K. Bhaskaran-Nair, J. Brabec,
    K. Lopata, S. A. Fischer, S. Krishnamoorthy, M. Jacquelin, W. Ma, M. Klemm,
       O. Villa, Y. Chen, V. Anisimov, F. Aquino, S. Hirata, M. T. Hackler,
           Eric Hermes, L. Jensen, J. E. Moore, J. C. Becca, V. Konjkov,
            D. Mejia-Rodriguez, T. Risthaus, M. Malagoli, A. Marenich,
   A. Otero-de-la-Roza, J. Mullin, P. Nichols, R. Peverati, J. Pittner, Y. Zhao,
        P.-D. Fan, A. Fonari, M. J. Williamson, R. J. Harrison, J. R. Rehr,
      M. Dupuis, D. Silverstein, D. M. A. Smith, J. Nieplocha, V. Tipparaju,
      M. Krishnan, B. E. Van Kuiken, A. Vazquez-Mayagoitia, M. Swart, Q. Wu,
   T. Van Voorhis, A. A. Auer, M. Nooijen, L. D. Crosby, E. Brown, G. Cisneros,
     G. I. Fann, H. Fruchtl, J. Garza, K. Hirao, R. A. Kendall, J. A. Nichols,
       K. Tsemekhman, K. Wolinski, J. Anchell, D. E. Bernholdt, P. Borowski,
       T. Clark, D. Clerc, H. Dachsel, M. J. O. Deegan, K. Dyall, D. Elwood,
      E. Glendening, M. Gutowski, A. C. Hess, J. Jaffe, B. G. Johnson, J. Ju,
        R. Kobayashi, R. Kutteh, Z. Lin, R. Littlefield, X. Long, B. Meng,
      T. Nakajima, S. Niu, L. Pollack, M. Rosing, K. Glaesemann, G. Sandrone,
      M. Stave, H. Taylor, G. Thomas, J. H. van Lenthe, A. T. Wong, Z. Zhang.

 Total times  cpu:       45.8s     wall:       45.8s
