All connections between all procs tested: SUCCESS
 argument  1 = nwxc_nwdft_1he.nw



============================== echo of input deck ==============================
# $Id$
echo
start nwxc_dat

geometry
  He 0.0 0.0 0.0
end

# Basis set by N Godbout, DR Salahub, J Andzelm, E Wimmer,
# Can J Chem 70, 560 (1992), DOI: 10.1139/v92-079.
# Uncontracted the 2 outer S-functions from the core shell.
basis
  He    S
    221.3880300              0.0027491
     33.2619660              0.0208658
      7.5616549              0.0970588
  He    S
      2.0855990              0.2807289
  He    S
      0.6143392              0.4742218
  He    S
      0.1829212              1.0000000
end

# LDA exchange

dft
  vectors input atomic
  xc slater
end
task dft energy

# GGA exchange

dft
  vectors input atomic
  xc xpbe96
end
task dft energy

# meta-GGA exchange

dft
  vectors input atomic
  xc xvs98
end
task dft energy

# Hartree-Fock exchange + LDA(PW91) correlation

dft
  vectors input atomic
  xc hfexch pw91lda
end
task dft energy

# Hartree-Fock exchange + GGA correlation

dft
  vectors input atomic
  xc hfexch cpbe96
end
task dft energy

# Hartree-Fock exchange + meta-GGA correlation

dft
  vectors input atomic
  xc hfexch cvs98
end
task dft energy

# GGA exchange + GGA correlation

dft
  vectors input atomic
  xc pbe96
end
task dft energy
================================================================================


                                         
                                         


             Northwest Computational Chemistry Package (NWChem) 6.1.1
             --------------------------------------------------------


                    Environmental Molecular Sciences Laboratory
                       Pacific Northwest National Laboratory
                                Richland, WA 99352

                              Copyright (c) 1994-2012
                       Pacific Northwest National Laboratory
                            Battelle Memorial Institute

             NWChem is an open-source computational chemistry package
                        distributed under the terms of the
                      Educational Community License (ECL) 2.0
             A copy of the license is included with this distribution
                              in the LICENSE.TXT file

                                  ACKNOWLEDGMENT
                                  --------------

            This software and its documentation were developed at the
            EMSL at Pacific Northwest National Laboratory, a multiprogram
            national laboratory, operated for the U.S. Department of Energy
            by Battelle under Contract Number DE-AC05-76RL01830. Support
            for this work was provided by the Department of Energy Office
            of Biological and Environmental Research, Office of Basic
            Energy Sciences, and the Office of Advanced Scientific Computing.


           Job information
           ---------------

    hostname        = arcen
    program         = /home/d3y133/nwchem-dev/nwchem-ref/QA/../bin/LINUX64/nwchem
    date            = Wed Jan 16 15:46:43 2013

    compiled        = Wed_Jan_16_13:58:47_2013
    source          = /home/d3y133/nwchem-dev/nwchem-ref
    nwchem branch   = Development
    nwchem revision = 23457
    ga revision     = 10183
    input           = nwxc_nwdft_1he.nw
    prefix          = nwxc_dat.
    data base       = /home/d3y133/nwchem-dev/nwchem-ref/QA/scratchdir/nwxc_dat.db
    status          = startup
    nproc           =        4
    time left       =     -1s



           Memory information
           ------------------

    heap     =   13107201 doubles =    100.0 Mbytes
    stack    =   13107201 doubles =    100.0 Mbytes
    global   =   26214400 doubles =    200.0 Mbytes (distinct from heap & stack)
    total    =   52428802 doubles =    400.0 Mbytes
    verify   = yes
    hardfail = no 


           Directory information
           ---------------------

  0 permanent = /home/d3y133/nwchem-dev/nwchem-ref/QA/scratchdir
  0 scratch   = /home/d3y133/nwchem-dev/nwchem-ref/QA/scratchdir




                                NWChem Input Module
                                -------------------



 Scaling coordinates for geometry "geometry" by  1.889725989
 (inverse scale =  0.529177249)



                             Geometry "geometry" -> ""
                             -------------------------

 Output coordinates in angstroms (scale by  1.889725989 to convert to a.u.)

  No.       Tag          Charge          X              Y              Z
 ---- ---------------- ---------- -------------- -------------- --------------
    1 He                   2.0000     0.00000000     0.00000000     0.00000000

      Atomic Mass 
      ----------- 

      He                 4.002600


 Effective nuclear repulsion energy (a.u.)       0.0000000000

            Nuclear Dipole moment (a.u.) 
            ----------------------------
        X                 Y               Z
 ---------------- ---------------- ----------------
     0.0000000000     0.0000000000     0.0000000000


            XYZ format geometry
            -------------------
     1
 geometry
 He                    0.00000000     0.00000000     0.00000000

  library name resolved from: environment
  library file name is: </home/d3y133/nwchem-dev/nwchem-ref/QA/../src/basis/libraries/>
  
                      Basis "ao basis" -> "" (cartesian)
                      -----
  He (Helium)
  -----------
            Exponent  Coefficients 
       -------------- ---------------------------------------------------------
  1 S  2.21388030E+02  0.002749
  1 S  3.32619660E+01  0.020866
  1 S  7.56165490E+00  0.097059

  2 S  2.08559900E+00  0.280729

  3 S  6.14339200E-01  0.474222

  4 S  1.82921200E-01  1.000000



 Summary of "ao basis" -> "" (cartesian)
 ------------------------------------------------------------------------------
       Tag                 Description            Shells   Functions and Types
 ---------------- ------------------------------  ------  ---------------------
 He                      user specified              4        4   4s



                                 NWChem DFT Module
                                 -----------------


  Caching 1-el integrals 

            General Information
            -------------------
          SCF calculation type: DFT
          Wavefunction type:  closed shell.
          No. of atoms     :     1
          No. of electrons :     2
           Alpha electrons :     1
            Beta electrons :     1
          Charge           :     0
          Spin multiplicity:     1
          Use of symmetry is: off; symmetry adaption is: off
          Maximum number of iterations:  30
          AO basis - number of functions:     4
                     number of shells:     4
          Convergence on energy requested: 1.00D-06
          Convergence on density requested: 1.00D-05
          Convergence on gradient requested: 5.00D-04

              XC Information
              --------------
                        Slater Exchange Functional  1.000 local    

             Grid Information
             ----------------
          Grid used for XC integration:  medium    
          Radial quadrature: Mura-Knowles        
          Angular quadrature: Lebedev. 
          Tag              B.-S. Rad. Rad. Pts. Rad. Cut. Ang. Pts.
          ---              ---------- --------- --------- ---------
          He                  0.35       49           4.0       434
          Grid pruning is: on 
          Number of quadrature shells:    49
          Spatial weights used:  Erf1

          Convergence Information
          -----------------------
          Convergence aids based upon iterative change in 
          total energy or number of iterations. 
          Levelshifting, if invoked, occurs when the 
          HOMO/LUMO gap drops below (HL_TOL): 1.00D-02
          DIIS, if invoked, will attempt to extrapolate 
          using up to (NFOCK): 10 stored Fock matrices.

                    Damping( 0%)  Levelshifting(0.5)       DIIS
                  --------------- ------------------- ---------------
          dE  on:    start            ASAP                start   
          dE off:    2 iters         30 iters            30 iters 


      Screening Tolerance Information
      -------------------------------
          Density screening/tol_rho: 1.00D-10
          AO Gaussian exp screening on grid/accAOfunc:  14
          CD Gaussian exp screening on grid/accCDfunc:  20
          XC Gaussian exp screening on grid/accXCfunc:  20
          Schwarz screening/accCoul: 1.00D-08


      Superposition of Atomic Density Guess
      -------------------------------------

 Sum of atomic energies:          -2.86104912

      Non-variational initial energy
      ------------------------------

 Total energy =      -2.861049
 1-e energy   =      -3.886256
 2-e energy   =       1.025207
 HOMO         =      -0.917921
 LUMO         =       0.533533

   Time after variat. SCF:      0.0
   Time prior to 1st pass:      0.0

 #quartets = 5.500D+01 #integrals = 5.500D+01 #direct =  0.0% #cached =100.0%


 Integral file          = /home/d3y133/nwchem-dev/nwchem-ref/QA/scratchdir/nwxc_dat.aoints.0
 Record size in doubles =  65536        No. of integs per rec  =  43688
 Max. records in memory =      2        Max. records in file   =   3037
 No. of bits per label  =      8        No. of bits per value  =     64


File balance: exchanges=     0  moved=     0  time=   0.0


 Grid_pts file          = /home/d3y133/nwchem-dev/nwchem-ref/QA/scratchdir/nwxc_dat.gridpts.0
 Record size in doubles =  12289        No. of grid_pts per rec  =   3070
 Max. records in memory =      3        Max. recs in file   =     16202


           Memory utilization after 1st SCF pass: 
           Heap Space remaining (MW):       12.94            12938672
          Stack Space remaining (MW):       13.11            13107074

   convergence    iter        energy       DeltaE   RMS-Dens  Diis-err    time
 ---------------- ----- ----------------- --------- --------- ---------  ------
 d= 0,ls=0.0,diis     1     -2.7194896920 -2.72D+00  3.88D-02  2.26D-02     0.1
  Resetting Diis
 d= 0,ls=0.0,diis     2     -2.7224728687 -2.98D-03  8.35D-03  5.07D-03     0.1
 d= 0,ls=0.0,diis     3     -2.7230106074 -5.38D-04  4.20D-04  5.93D-06     0.1
 d= 0,ls=0.0,diis     4     -2.7230111114 -5.04D-07  1.22D-04  1.19D-06     0.1
 d= 0,ls=0.0,diis     5     -2.7230112365 -1.25D-07  1.66D-07  3.37D-12     0.1


         Total DFT energy =       -2.723011236468
      One electron energy =       -3.845242436645
           Coulomb energy =        1.975527354111
    Exchange-Corr. energy =       -0.853296153934
 Nuclear repulsion energy =        0.000000000000

 Numeric. integr. density =        1.999999927477

     Total iterative time =      0.1s



                       DFT Final Molecular Orbital Analysis
                       ------------------------------------

 Vector    1  Occ=2.000000D+00  E=-5.159581D-01
              MO Center=  0.0D+00,  0.0D+00,  0.0D+00, r^2= 3.7D-01
   Bfn.  Coefficient  Atom+Function         Bfn.  Coefficient  Atom+Function  
  ----- ------------  ---------------      ----- ------------  ---------------
     3      0.464964  1 He s                  4      0.319343  1 He s          
     2      0.278742  1 He s          

 Vector    2  Occ=0.000000D+00  E= 4.089146D-01
              MO Center=  0.0D+00,  0.0D+00,  0.0D+00, r^2= 1.6D+00
   Bfn.  Coefficient  Atom+Function         Bfn.  Coefficient  Atom+Function  
  ----- ------------  ---------------      ----- ------------  ---------------
     4      1.494587  1 He s                  3     -1.136627  1 He s          

 Vector    3  Occ=0.000000D+00  E= 2.945903D+00
              MO Center=  0.0D+00,  0.0D+00,  0.0D+00, r^2= 6.2D-01
   Bfn.  Coefficient  Atom+Function         Bfn.  Coefficient  Atom+Function  
  ----- ------------  ---------------      ----- ------------  ---------------
     3      2.209884  1 He s                  2     -1.608878  1 He s          
     4     -0.910120  1 He s          

 Vector    4  Occ=0.000000D+00  E= 1.688976D+01
              MO Center=  0.0D+00,  0.0D+00,  0.0D+00, r^2= 1.6D-01
   Bfn.  Coefficient  Atom+Function         Bfn.  Coefficient  Atom+Function  
  ----- ------------  ---------------      ----- ------------  ---------------
     2      1.950086  1 He s                  1     -1.565401  1 He s          
     3     -1.178073  1 He s                  4      0.384529  1 He s          


 Parallel integral file used       4 records with       0 large values


 Task  times  cpu:        0.1s     wall:        0.3s


                                NWChem Input Module
                                -------------------



                                 NWChem DFT Module
                                 -----------------


  Caching 1-el integrals 

            General Information
            -------------------
          SCF calculation type: DFT
          Wavefunction type:  closed shell.
          No. of atoms     :     1
          No. of electrons :     2
           Alpha electrons :     1
            Beta electrons :     1
          Charge           :     0
          Spin multiplicity:     1
          Use of symmetry is: off; symmetry adaption is: off
          Maximum number of iterations:  30
          AO basis - number of functions:     4
                     number of shells:     4
          Convergence on energy requested: 1.00D-06
          Convergence on density requested: 1.00D-05
          Convergence on gradient requested: 5.00D-04

              XC Information
              --------------
          PerdewBurkeErnzerhof Exchange Functional  1.000          

             Grid Information
             ----------------
          Grid used for XC integration:  medium    
          Radial quadrature: Mura-Knowles        
          Angular quadrature: Lebedev. 
          Tag              B.-S. Rad. Rad. Pts. Rad. Cut. Ang. Pts.
          ---              ---------- --------- --------- ---------
          He                  0.35       49           4.0       434
          Grid pruning is: on 
          Number of quadrature shells:    49
          Spatial weights used:  Erf1

          Convergence Information
          -----------------------
          Convergence aids based upon iterative change in 
          total energy or number of iterations. 
          Levelshifting, if invoked, occurs when the 
          HOMO/LUMO gap drops below (HL_TOL): 1.00D-02
          DIIS, if invoked, will attempt to extrapolate 
          using up to (NFOCK): 10 stored Fock matrices.

                    Damping( 0%)  Levelshifting(0.5)       DIIS
                  --------------- ------------------- ---------------
          dE  on:    start            ASAP                start   
          dE off:    2 iters         30 iters            30 iters 


      Screening Tolerance Information
      -------------------------------
          Density screening/tol_rho: 1.00D-10
          AO Gaussian exp screening on grid/accAOfunc:  14
          CD Gaussian exp screening on grid/accCDfunc:  20
          XC Gaussian exp screening on grid/accXCfunc:  20
          Schwarz screening/accCoul: 1.00D-08


      Superposition of Atomic Density Guess
      -------------------------------------

 Sum of atomic energies:          -2.86104912

      Non-variational initial energy
      ------------------------------

 Total energy =      -2.861049
 1-e energy   =      -3.886256
 2-e energy   =       1.025207
 HOMO         =      -0.917921
 LUMO         =       0.533533

   Time after variat. SCF:      0.1
   Time prior to 1st pass:      0.1

 #quartets = 5.500D+01 #integrals = 5.500D+01 #direct =  0.0% #cached =100.0%


 Integral file          = /home/d3y133/nwchem-dev/nwchem-ref/QA/scratchdir/nwxc_dat.aoints.0
 Record size in doubles =  65536        No. of integs per rec  =  43688
 Max. records in memory =      2        Max. records in file   =   3037
 No. of bits per label  =      8        No. of bits per value  =     64


File balance: exchanges=     0  moved=     0  time=   0.0


 Grid_pts file          = /home/d3y133/nwchem-dev/nwchem-ref/QA/scratchdir/nwxc_dat.gridpts.0
 Record size in doubles =  12289        No. of grid_pts per rec  =   3070
 Max. records in memory =      3        Max. recs in file   =     16202


           Memory utilization after 1st SCF pass: 
           Heap Space remaining (MW):       12.94            12938672
          Stack Space remaining (MW):       13.11            13107074

   convergence    iter        energy       DeltaE   RMS-Dens  Diis-err    time
 ---------------- ----- ----------------- --------- --------- ---------  ------
 d= 0,ls=0.0,diis     1     -2.8489860167 -2.85D+00  3.14D-02  4.81D-02     0.1
  Resetting Diis
 d= 0,ls=0.0,diis     2     -2.8512981566 -2.31D-03  5.02D-03  7.16D-04     0.1
 d= 0,ls=0.0,diis     3     -2.8513593473 -6.12D-05  2.35D-03  1.93D-04     0.2
 d= 0,ls=0.0,diis     4     -2.8513751050 -1.58D-05  7.62D-04  4.48D-05     0.2
 d= 0,ls=0.0,diis     5     -2.8513798582 -4.75D-06  1.44D-07  6.44D-12     0.2
 d= 0,ls=0.0,diis     6     -2.8513798582 -4.25D-13  3.08D-08  4.68D-14     0.2


         Total DFT energy =       -2.851379858245
      One electron energy =       -3.867736003584
           Coulomb energy =        2.018393281662
    Exchange-Corr. energy =       -1.002037136322
 Nuclear repulsion energy =        0.000000000000

 Numeric. integr. density =        1.999999932629

     Total iterative time =      0.1s



                       DFT Final Molecular Orbital Analysis
                       ------------------------------------

 Vector    1  Occ=2.000000D+00  E=-5.521610D-01
              MO Center=  0.0D+00,  0.0D+00,  0.0D+00, r^2= 3.6D-01
   Bfn.  Coefficient  Atom+Function         Bfn.  Coefficient  Atom+Function  
  ----- ------------  ---------------      ----- ------------  ---------------
     3      0.461080  1 He s                  4      0.307802  1 He s          
     2      0.290610  1 He s          

 Vector    2  Occ=0.000000D+00  E= 3.745772D-01
              MO Center=  0.0D+00,  0.0D+00,  0.0D+00, r^2= 1.6D+00
   Bfn.  Coefficient  Atom+Function         Bfn.  Coefficient  Atom+Function  
  ----- ------------  ---------------      ----- ------------  ---------------
     4      1.495373  1 He s                  3     -1.123073  1 He s          

 Vector    3  Occ=0.000000D+00  E= 2.901837D+00
              MO Center=  0.0D+00,  0.0D+00,  0.0D+00, r^2= 6.2D-01
   Bfn.  Coefficient  Atom+Function         Bfn.  Coefficient  Atom+Function  
  ----- ------------  ---------------      ----- ------------  ---------------
     3      2.214569  1 He s                  2     -1.598010  1 He s          
     4     -0.912097  1 He s          

 Vector    4  Occ=0.000000D+00  E= 1.672231D+01
              MO Center=  0.0D+00,  0.0D+00,  0.0D+00, r^2= 1.6D-01
   Bfn.  Coefficient  Atom+Function         Bfn.  Coefficient  Atom+Function  
  ----- ------------  ---------------      ----- ------------  ---------------
     2      1.957285  1 He s                  1     -1.564641  1 He s          
     3     -1.183787  1 He s                  4      0.386196  1 He s          


 Parallel integral file used       4 records with       0 large values


 Task  times  cpu:        0.1s     wall:        0.3s


                                NWChem Input Module
                                -------------------



                                 NWChem DFT Module
                                 -----------------


  Caching 1-el integrals 

            General Information
            -------------------
          SCF calculation type: DFT
          Wavefunction type:  closed shell.
          No. of atoms     :     1
          No. of electrons :     2
           Alpha electrons :     1
            Beta electrons :     1
          Charge           :     0
          Spin multiplicity:     1
          Use of symmetry is: off; symmetry adaption is: off
          Maximum number of iterations:  30
          AO basis - number of functions:     4
                     number of shells:     4
          Convergence on energy requested: 1.00D-06
          Convergence on density requested: 1.00D-05
          Convergence on gradient requested: 5.00D-04

              XC Information
              --------------
                          VS98 Exchange Functional  1.000          

             Grid Information
             ----------------
          Grid used for XC integration:  medium    
          Radial quadrature: Mura-Knowles        
          Angular quadrature: Lebedev. 
          Tag              B.-S. Rad. Rad. Pts. Rad. Cut. Ang. Pts.
          ---              ---------- --------- --------- ---------
          He                  0.35       49           4.0       434
          Grid pruning is: on 
          Number of quadrature shells:    49
          Spatial weights used:  Erf1

          Convergence Information
          -----------------------
          Convergence aids based upon iterative change in 
          total energy or number of iterations. 
          Levelshifting, if invoked, occurs when the 
          HOMO/LUMO gap drops below (HL_TOL): 1.00D-02
          DIIS, if invoked, will attempt to extrapolate 
          using up to (NFOCK): 10 stored Fock matrices.

                    Damping( 0%)  Levelshifting(0.5)       DIIS
                  --------------- ------------------- ---------------
          dE  on:    start            ASAP                start   
          dE off:    2 iters         30 iters            30 iters 


      Screening Tolerance Information
      -------------------------------
          Density screening/tol_rho: 1.00D-10
          AO Gaussian exp screening on grid/accAOfunc:  14
          CD Gaussian exp screening on grid/accCDfunc:  20
          XC Gaussian exp screening on grid/accXCfunc:  20
          Schwarz screening/accCoul: 1.00D-08


      Superposition of Atomic Density Guess
      -------------------------------------

 Sum of atomic energies:          -2.86104912

      Non-variational initial energy
      ------------------------------

 Total energy =      -2.861049
 1-e energy   =      -3.886256
 2-e energy   =       1.025207
 HOMO         =      -0.917921
 LUMO         =       0.533533

   Time after variat. SCF:      0.2
   Time prior to 1st pass:      0.2

 #quartets = 5.500D+01 #integrals = 5.500D+01 #direct =  0.0% #cached =100.0%


 Integral file          = /home/d3y133/nwchem-dev/nwchem-ref/QA/scratchdir/nwxc_dat.aoints.0
 Record size in doubles =  65536        No. of integs per rec  =  43688
 Max. records in memory =      2        Max. records in file   =   3037
 No. of bits per label  =      8        No. of bits per value  =     64


File balance: exchanges=     0  moved=     0  time=   0.0


 Grid_pts file          = /home/d3y133/nwchem-dev/nwchem-ref/QA/scratchdir/nwxc_dat.gridpts.0
 Record size in doubles =  12289        No. of grid_pts per rec  =   3070
 Max. records in memory =      3        Max. recs in file   =     16202


           Memory utilization after 1st SCF pass: 
           Heap Space remaining (MW):       12.94            12938672
          Stack Space remaining (MW):       13.11            13107074

   convergence    iter        energy       DeltaE   RMS-Dens  Diis-err    time
 ---------------- ----- ----------------- --------- --------- ---------  ------
 d= 0,ls=0.0,diis     1     -2.8752826681 -2.88D+00  2.57D-02  2.12D-02     0.2
  Resetting Diis
 d= 0,ls=0.0,diis     2     -2.8768184441 -1.54D-03  1.40D-03  1.33D-04     0.2
 d= 0,ls=0.0,diis     3     -2.8768279248 -9.48D-06  7.73D-04  2.13D-05     0.3
 d= 0,ls=0.0,diis     4     -2.8768298114 -1.89D-06  2.25D-04  3.40D-06     0.3
 d= 0,ls=0.0,diis     5     -2.8768301830 -3.72D-07  1.09D-06  8.38D-11     0.3


         Total DFT energy =       -2.876830182966
      One electron energy =       -3.877875758737
           Coulomb energy =        2.036875854521
    Exchange-Corr. energy =       -1.035830278750
 Nuclear repulsion energy =        0.000000000000

 Numeric. integr. density =        1.999999936650

     Total iterative time =      0.1s



                       DFT Final Molecular Orbital Analysis
                       ------------------------------------

 Vector    1  Occ=2.000000D+00  E=-5.675368D-01
              MO Center=  0.0D+00,  0.0D+00,  0.0D+00, r^2= 3.5D-01
   Bfn.  Coefficient  Atom+Function         Bfn.  Coefficient  Atom+Function  
  ----- ------------  ---------------      ----- ------------  ---------------
     3      0.463050  1 He s                  2      0.298676  1 He s          
     4      0.298488  1 He s          

 Vector    2  Occ=0.000000D+00  E= 4.201250D-01
              MO Center=  0.0D+00,  0.0D+00,  0.0D+00, r^2= 1.6D+00
   Bfn.  Coefficient  Atom+Function         Bfn.  Coefficient  Atom+Function  
  ----- ------------  ---------------      ----- ------------  ---------------
     4      1.491376  1 He s                  3     -1.103612  1 He s          

 Vector    3  Occ=0.000000D+00  E= 3.002744D+00
              MO Center=  0.0D+00,  0.0D+00,  0.0D+00, r^2= 6.3D-01
   Bfn.  Coefficient  Atom+Function         Bfn.  Coefficient  Atom+Function  
  ----- ------------  ---------------      ----- ------------  ---------------
     3      2.221112  1 He s                  2     -1.594011  1 He s          
     4     -0.920852  1 He s          

 Vector    4  Occ=0.000000D+00  E= 1.694739D+01
              MO Center=  0.0D+00,  0.0D+00,  0.0D+00, r^2= 1.6D-01
   Bfn.  Coefficient  Atom+Function         Bfn.  Coefficient  Atom+Function  
  ----- ------------  ---------------      ----- ------------  ---------------
     2      1.958927  1 He s                  1     -1.564849  1 He s          
     3     -1.189052  1 He s                  4      0.388180  1 He s          


 Parallel integral file used       4 records with       0 large values


 Task  times  cpu:        0.1s     wall:        0.3s


                                NWChem Input Module
                                -------------------


  xc_inp: hfexch multiplicative factor not found.

                                 NWChem DFT Module
                                 -----------------


  Caching 1-el integrals 

            General Information
            -------------------
          SCF calculation type: DFT
          Wavefunction type:  closed shell.
          No. of atoms     :     1
          No. of electrons :     2
           Alpha electrons :     1
            Beta electrons :     1
          Charge           :     0
          Spin multiplicity:     1
          Use of symmetry is: off; symmetry adaption is: off
          Maximum number of iterations:  30
          AO basis - number of functions:     4
                     number of shells:     4
          Convergence on energy requested: 1.00D-06
          Convergence on density requested: 1.00D-05
          Convergence on gradient requested: 5.00D-04

              XC Information
              --------------
                     Hartree-Fock (Exact) Exchange  1.000          
            Perdew 1991 LDA Correlation Functional  1.000 local    

             Grid Information
             ----------------
          Grid used for XC integration:  medium    
          Radial quadrature: Mura-Knowles        
          Angular quadrature: Lebedev. 
          Tag              B.-S. Rad. Rad. Pts. Rad. Cut. Ang. Pts.
          ---              ---------- --------- --------- ---------
          He                  0.35       49           4.0       434
          Grid pruning is: on 
          Number of quadrature shells:    49
          Spatial weights used:  Erf1

          Convergence Information
          -----------------------
          Convergence aids based upon iterative change in 
          total energy or number of iterations. 
          Levelshifting, if invoked, occurs when the 
          HOMO/LUMO gap drops below (HL_TOL): 1.00D-02
          DIIS, if invoked, will attempt to extrapolate 
          using up to (NFOCK): 10 stored Fock matrices.

                    Damping( 0%)  Levelshifting(0.5)       DIIS
                  --------------- ------------------- ---------------
          dE  on:    start            ASAP                start   
          dE off:    2 iters         30 iters            30 iters 


      Screening Tolerance Information
      -------------------------------
          Density screening/tol_rho: 1.00D-10
          AO Gaussian exp screening on grid/accAOfunc:  14
          CD Gaussian exp screening on grid/accCDfunc:  20
          XC Gaussian exp screening on grid/accXCfunc:  20
          Schwarz screening/accCoul: 1.00D-08


      Superposition of Atomic Density Guess
      -------------------------------------

 Sum of atomic energies:          -2.86104912

      Non-variational initial energy
      ------------------------------

 Total energy =      -2.861049
 1-e energy   =      -3.886256
 2-e energy   =       1.025207
 HOMO         =      -0.917921
 LUMO         =       0.533533

   Time after variat. SCF:      0.3
   Time prior to 1st pass:      0.3

 #quartets = 5.500D+01 #integrals = 5.500D+01 #direct =  0.0% #cached =100.0%


 Integral file          = /home/d3y133/nwchem-dev/nwchem-ref/QA/scratchdir/nwxc_dat.aoints.0
 Record size in doubles =  65536        No. of integs per rec  =  43688
 Max. records in memory =      2        Max. records in file   =   3037
 No. of bits per label  =      8        No. of bits per value  =     64


File balance: exchanges=     0  moved=     0  time=   0.0


 Grid_pts file          = /home/d3y133/nwchem-dev/nwchem-ref/QA/scratchdir/nwxc_dat.gridpts.0
 Record size in doubles =  12289        No. of grid_pts per rec  =   3070
 Max. records in memory =      3        Max. recs in file   =     16202


           Memory utilization after 1st SCF pass: 
           Heap Space remaining (MW):       12.94            12938672
          Stack Space remaining (MW):       13.11            13107074

   convergence    iter        energy       DeltaE   RMS-Dens  Diis-err    time
 ---------------- ----- ----------------- --------- --------- ---------  ------
 d= 0,ls=0.0,diis     1     -2.9734612509 -2.97D+00  5.66D-03  1.50D-03     0.3
  Resetting Diis
 d= 0,ls=0.0,diis     2     -2.9736928146 -2.32D-04  1.21D-03  2.91D-05     0.3
 d= 0,ls=0.0,diis     3     -2.9736979745 -5.16D-06  1.51D-04  5.42D-07     0.3
 d= 0,ls=0.0,diis     4     -2.9736980470 -7.25D-08  3.66D-05  1.96D-08     0.4
 d= 0,ls=0.0,diis     5     -2.9736980499 -2.87D-09  2.73D-07  9.71D-13     0.4


         Total DFT energy =       -2.973698049921
      One electron energy =       -3.896237610266
           Coulomb energy =        2.070847570656
    Exchange-Corr. energy =       -1.148308010312
 Nuclear repulsion energy =        0.000000000000

 Numeric. integr. density =        1.999999955141

     Total iterative time =      0.1s



                       DFT Final Molecular Orbital Analysis
                       ------------------------------------

 Vector    1  Occ=2.000000D+00  E=-9.765319D-01
              MO Center=  0.0D+00,  0.0D+00,  0.0D+00, r^2= 3.3D-01
   Bfn.  Coefficient  Atom+Function         Bfn.  Coefficient  Atom+Function  
  ----- ------------  ---------------      ----- ------------  ---------------
     3      0.511756  1 He s                  2      0.287986  1 He s          
     4      0.251272  1 He s          

 Vector    2  Occ=0.000000D+00  E= 4.990557D-01
              MO Center=  0.0D+00,  0.0D+00,  0.0D+00, r^2= 1.7D+00
   Bfn.  Coefficient  Atom+Function         Bfn.  Coefficient  Atom+Function  
  ----- ------------  ---------------      ----- ------------  ---------------
     4      1.528674  1 He s                  3     -1.164664  1 He s          

 Vector    3  Occ=0.000000D+00  E= 3.280451D+00
              MO Center=  0.0D+00,  0.0D+00,  0.0D+00, r^2= 5.9D-01
   Bfn.  Coefficient  Atom+Function         Bfn.  Coefficient  Atom+Function  
  ----- ------------  ---------------      ----- ------------  ---------------
     3      2.195385  1 He s                  2     -1.628189  1 He s          
     4     -0.877662  1 He s          

 Vector    4  Occ=0.000000D+00  E= 1.767206D+01
              MO Center=  0.0D+00,  0.0D+00,  0.0D+00, r^2= 1.5D-01
   Bfn.  Coefficient  Atom+Function         Bfn.  Coefficient  Atom+Function  
  ----- ------------  ---------------      ----- ------------  ---------------
     2      1.933921  1 He s                  1     -1.566346  1 He s          
     3     -1.158234  1 He s                  4      0.376401  1 He s          


 Parallel integral file used       4 records with       0 large values


 Task  times  cpu:        0.1s     wall:        0.3s


                                NWChem Input Module
                                -------------------


  xc_inp: hfexch multiplicative factor not found.
  pbe96 is a nonlocal functional; adding pw91lda local functional. 

                                 NWChem DFT Module
                                 -----------------


  Caching 1-el integrals 

            General Information
            -------------------
          SCF calculation type: DFT
          Wavefunction type:  closed shell.
          No. of atoms     :     1
          No. of electrons :     2
           Alpha electrons :     1
            Beta electrons :     1
          Charge           :     0
          Spin multiplicity:     1
          Use of symmetry is: off; symmetry adaption is: off
          Maximum number of iterations:  30
          AO basis - number of functions:     4
                     number of shells:     4
          Convergence on energy requested: 1.00D-06
          Convergence on density requested: 1.00D-05
          Convergence on gradient requested: 5.00D-04

              XC Information
              --------------
                     Hartree-Fock (Exact) Exchange  1.000          
            Perdew 1991 LDA Correlation Functional  1.000 local    
           PerdewBurkeErnz. Correlation Functional  1.000 non-local

             Grid Information
             ----------------
          Grid used for XC integration:  medium    
          Radial quadrature: Mura-Knowles        
          Angular quadrature: Lebedev. 
          Tag              B.-S. Rad. Rad. Pts. Rad. Cut. Ang. Pts.
          ---              ---------- --------- --------- ---------
          He                  0.35       49           4.0       434
          Grid pruning is: on 
          Number of quadrature shells:    49
          Spatial weights used:  Erf1

          Convergence Information
          -----------------------
          Convergence aids based upon iterative change in 
          total energy or number of iterations. 
          Levelshifting, if invoked, occurs when the 
          HOMO/LUMO gap drops below (HL_TOL): 1.00D-02
          DIIS, if invoked, will attempt to extrapolate 
          using up to (NFOCK): 10 stored Fock matrices.

                    Damping( 0%)  Levelshifting(0.5)       DIIS
                  --------------- ------------------- ---------------
          dE  on:    start            ASAP                start   
          dE off:    2 iters         30 iters            30 iters 


      Screening Tolerance Information
      -------------------------------
          Density screening/tol_rho: 1.00D-10
          AO Gaussian exp screening on grid/accAOfunc:  14
          CD Gaussian exp screening on grid/accCDfunc:  20
          XC Gaussian exp screening on grid/accXCfunc:  20
          Schwarz screening/accCoul: 1.00D-08


      Superposition of Atomic Density Guess
      -------------------------------------

 Sum of atomic energies:          -2.86104912

      Non-variational initial energy
      ------------------------------

 Total energy =      -2.861049
 1-e energy   =      -3.886256
 2-e energy   =       1.025207
 HOMO         =      -0.917921
 LUMO         =       0.533533

   Time after variat. SCF:      0.4
   Time prior to 1st pass:      0.4

 #quartets = 5.500D+01 #integrals = 5.500D+01 #direct =  0.0% #cached =100.0%


 Integral file          = /home/d3y133/nwchem-dev/nwchem-ref/QA/scratchdir/nwxc_dat.aoints.0
 Record size in doubles =  65536        No. of integs per rec  =  43688
 Max. records in memory =      2        Max. records in file   =   3037
 No. of bits per label  =      8        No. of bits per value  =     64


File balance: exchanges=     0  moved=     0  time=   0.0


 Grid_pts file          = /home/d3y133/nwchem-dev/nwchem-ref/QA/scratchdir/nwxc_dat.gridpts.0
 Record size in doubles =  12289        No. of grid_pts per rec  =   3070
 Max. records in memory =      3        Max. recs in file   =     16202


           Memory utilization after 1st SCF pass: 
           Heap Space remaining (MW):       12.94            12938672
          Stack Space remaining (MW):       13.11            13107074

   convergence    iter        energy       DeltaE   RMS-Dens  Diis-err    time
 ---------------- ----- ----------------- --------- --------- ---------  ------
 d= 0,ls=0.0,diis     1     -2.9030627567 -2.90D+00  5.51D-03  3.32D-03     0.4
  Resetting Diis
 d= 0,ls=0.0,diis     2     -2.9032114005 -1.49D-04  1.33D-03  4.55D-05     0.4
 d= 0,ls=0.0,diis     3     -2.9032165141 -5.11D-06  1.39D-04  3.85D-07     0.5
 d= 0,ls=0.0,diis     4     -2.9032165732 -5.91D-08  3.46D-05  1.62D-08     0.5
 d= 0,ls=0.0,diis     5     -2.9032165757 -2.47D-09  1.02D-07  1.16D-12     0.5


         Total DFT energy =       -2.903216575672
      One electron energy =       -3.890359706563
           Coulomb energy =        2.058929189742
    Exchange-Corr. energy =       -1.071786058851
 Nuclear repulsion energy =        0.000000000000

 Numeric. integr. density =        1.999999954446

     Total iterative time =      0.1s



                       DFT Final Molecular Orbital Analysis
                       ------------------------------------

 Vector    1  Occ=2.000000D+00  E=-9.469294D-01
              MO Center=  0.0D+00,  0.0D+00,  0.0D+00, r^2= 3.3D-01
   Bfn.  Coefficient  Atom+Function         Bfn.  Coefficient  Atom+Function  
  ----- ------------  ---------------      ----- ------------  ---------------
     3      0.514406  1 He s                  2      0.284611  1 He s          
     4      0.253212  1 He s          

 Vector    2  Occ=0.000000D+00  E= 5.266762D-01
              MO Center=  0.0D+00,  0.0D+00,  0.0D+00, r^2= 1.7D+00
   Bfn.  Coefficient  Atom+Function         Bfn.  Coefficient  Atom+Function  
  ----- ------------  ---------------      ----- ------------  ---------------
     4      1.529683  1 He s                  3     -1.170390  1 He s          

 Vector    3  Occ=0.000000D+00  E= 3.312960D+00
              MO Center=  0.0D+00,  0.0D+00,  0.0D+00, r^2= 5.9D-01
   Bfn.  Coefficient  Atom+Function         Bfn.  Coefficient  Atom+Function  
  ----- ------------  ---------------      ----- ------------  ---------------
     3      2.192800  1 He s                  2     -1.632137  1 He s          
     4     -0.875633  1 He s          

 Vector    4  Occ=0.000000D+00  E= 1.775264D+01
              MO Center=  0.0D+00,  0.0D+00,  0.0D+00, r^2= 1.5D-01
   Bfn.  Coefficient  Atom+Function         Bfn.  Coefficient  Atom+Function  
  ----- ------------  ---------------      ----- ------------  ---------------
     2      1.931110  1 He s                  1     -1.566620  1 He s          
     3     -1.156181  1 He s                  4      0.375725  1 He s          


 Parallel integral file used       4 records with       0 large values


 Task  times  cpu:        0.1s     wall:        0.3s


                                NWChem Input Module
                                -------------------


  xc_inp: hfexch multiplicative factor not found.
 cvs98 uses PW91LDA as defaults.These defaults cannot be changed 

                                 NWChem DFT Module
                                 -----------------


  Caching 1-el integrals 

            General Information
            -------------------
          SCF calculation type: DFT
          Wavefunction type:  closed shell.
          No. of atoms     :     1
          No. of electrons :     2
           Alpha electrons :     1
            Beta electrons :     1
          Charge           :     0
          Spin multiplicity:     1
          Use of symmetry is: off; symmetry adaption is: off
          Maximum number of iterations:  30
          AO basis - number of functions:     4
                     number of shells:     4
          Convergence on energy requested: 1.00D-06
          Convergence on density requested: 1.00D-05
          Convergence on gradient requested: 5.00D-04

              XC Information
              --------------
                     Hartree-Fock (Exact) Exchange  1.000          
                       VS98 Correlation Functional  1.000 non-local

             Grid Information
             ----------------
          Grid used for XC integration:  medium    
          Radial quadrature: Mura-Knowles        
          Angular quadrature: Lebedev. 
          Tag              B.-S. Rad. Rad. Pts. Rad. Cut. Ang. Pts.
          ---              ---------- --------- --------- ---------
          He                  0.35       49           4.0       434
          Grid pruning is: on 
          Number of quadrature shells:    49
          Spatial weights used:  Erf1

          Convergence Information
          -----------------------
          Convergence aids based upon iterative change in 
          total energy or number of iterations. 
          Levelshifting, if invoked, occurs when the 
          HOMO/LUMO gap drops below (HL_TOL): 1.00D-02
          DIIS, if invoked, will attempt to extrapolate 
          using up to (NFOCK): 10 stored Fock matrices.

                    Damping( 0%)  Levelshifting(0.5)       DIIS
                  --------------- ------------------- ---------------
          dE  on:    start            ASAP                start   
          dE off:    2 iters         30 iters            30 iters 


      Screening Tolerance Information
      -------------------------------
          Density screening/tol_rho: 1.00D-10
          AO Gaussian exp screening on grid/accAOfunc:  14
          CD Gaussian exp screening on grid/accCDfunc:  20
          XC Gaussian exp screening on grid/accXCfunc:  20
          Schwarz screening/accCoul: 1.00D-08


      Superposition of Atomic Density Guess
      -------------------------------------

 Sum of atomic energies:          -2.86104912

      Non-variational initial energy
      ------------------------------

 Total energy =      -2.861049
 1-e energy   =      -3.886256
 2-e energy   =       1.025207
 HOMO         =      -0.917921
 LUMO         =       0.533533

   Time after variat. SCF:      0.5
   Time prior to 1st pass:      0.5

 #quartets = 5.500D+01 #integrals = 5.500D+01 #direct =  0.0% #cached =100.0%


 Integral file          = /home/d3y133/nwchem-dev/nwchem-ref/QA/scratchdir/nwxc_dat.aoints.0
 Record size in doubles =  65536        No. of integs per rec  =  43688
 Max. records in memory =      2        Max. records in file   =   3037
 No. of bits per label  =      8        No. of bits per value  =     64


File balance: exchanges=     0  moved=     0  time=   0.0


 Grid_pts file          = /home/d3y133/nwchem-dev/nwchem-ref/QA/scratchdir/nwxc_dat.gridpts.0
 Record size in doubles =  12289        No. of grid_pts per rec  =   3070
 Max. records in memory =      3        Max. recs in file   =     16202


           Memory utilization after 1st SCF pass: 
           Heap Space remaining (MW):       12.94            12938672
          Stack Space remaining (MW):       13.11            13107074

   convergence    iter        energy       DeltaE   RMS-Dens  Diis-err    time
 ---------------- ----- ----------------- --------- --------- ---------  ------
 d= 0,ls=0.0,diis     1     -2.9009170758 -2.90D+00  7.25D-03  4.97D-03     0.5
  Resetting Diis
 d= 0,ls=0.0,diis     2     -2.9010762347 -1.59D-04  9.65D-04  1.72D-05     0.6
 d= 0,ls=0.0,diis     3     -2.9010787215 -2.49D-06  1.38D-04  3.75D-07     0.6
 d= 0,ls=0.0,diis     4     -2.9010787799 -5.84D-08  2.90D-05  1.12D-08     0.6
 d= 0,ls=0.0,diis     5     -2.9010787818 -1.83D-09  4.24D-08  4.97D-14     0.6


         Total DFT energy =       -2.901078781758
      One electron energy =       -3.889294076460
           Coulomb energy =        2.056810191507
    Exchange-Corr. energy =       -1.068594896806
 Nuclear repulsion energy =        0.000000000000

 Numeric. integr. density =        1.999999954325

     Total iterative time =      0.1s



                       DFT Final Molecular Orbital Analysis
                       ------------------------------------

 Vector    1  Occ=2.000000D+00  E=-9.446075D-01
              MO Center=  0.0D+00,  0.0D+00,  0.0D+00, r^2= 3.3D-01
   Bfn.  Coefficient  Atom+Function         Bfn.  Coefficient  Atom+Function  
  ----- ------------  ---------------      ----- ------------  ---------------
     3      0.517086  1 He s                  2      0.279153  1 He s          
     4      0.253549  1 He s          

 Vector    2  Occ=0.000000D+00  E= 4.822603D-01
              MO Center=  0.0D+00,  0.0D+00,  0.0D+00, r^2= 1.7D+00
   Bfn.  Coefficient  Atom+Function         Bfn.  Coefficient  Atom+Function  
  ----- ------------  ---------------      ----- ------------  ---------------
     4      1.532674  1 He s                  3     -1.179415  1 He s          

 Vector    3  Occ=0.000000D+00  E= 3.212486D+00
              MO Center=  0.0D+00,  0.0D+00,  0.0D+00, r^2= 5.9D-01
   Bfn.  Coefficient  Atom+Function         Bfn.  Coefficient  Atom+Function  
  ----- ------------  ---------------      ----- ------------  ---------------
     3      2.188104  1 He s                  2     -1.631626  1 He s          
     4     -0.870540  1 He s          

 Vector    4  Occ=0.000000D+00  E= 1.732595D+01
              MO Center=  0.0D+00,  0.0D+00,  0.0D+00, r^2= 1.5D-01
   Bfn.  Coefficient  Atom+Function         Bfn.  Coefficient  Atom+Function  
  ----- ------------  ---------------      ----- ------------  ---------------
     2      1.932409  1 He s                  1     -1.566257  1 He s          
     3     -1.154711  1 He s                  4      0.375144  1 He s          


 Parallel integral file used       4 records with       0 large values


 Task  times  cpu:        0.1s     wall:        0.3s


                                NWChem Input Module
                                -------------------



                                 NWChem DFT Module
                                 -----------------


  Caching 1-el integrals 

            General Information
            -------------------
          SCF calculation type: DFT
          Wavefunction type:  closed shell.
          No. of atoms     :     1
          No. of electrons :     2
           Alpha electrons :     1
            Beta electrons :     1
          Charge           :     0
          Spin multiplicity:     1
          Use of symmetry is: off; symmetry adaption is: off
          Maximum number of iterations:  30
          AO basis - number of functions:     4
                     number of shells:     4
          Convergence on energy requested: 1.00D-06
          Convergence on density requested: 1.00D-05
          Convergence on gradient requested: 5.00D-04

              XC Information
              --------------
                        PBE96 Method XC Functional
          PerdewBurkeErnzerhof Exchange Functional  1.000          
            Perdew 1991 LDA Correlation Functional  1.000 local    
           PerdewBurkeErnz. Correlation Functional  1.000 non-local

             Grid Information
             ----------------
          Grid used for XC integration:  medium    
          Radial quadrature: Mura-Knowles        
          Angular quadrature: Lebedev. 
          Tag              B.-S. Rad. Rad. Pts. Rad. Cut. Ang. Pts.
          ---              ---------- --------- --------- ---------
          He                  0.35       49           4.0       434
          Grid pruning is: on 
          Number of quadrature shells:    49
          Spatial weights used:  Erf1

          Convergence Information
          -----------------------
          Convergence aids based upon iterative change in 
          total energy or number of iterations. 
          Levelshifting, if invoked, occurs when the 
          HOMO/LUMO gap drops below (HL_TOL): 1.00D-02
          DIIS, if invoked, will attempt to extrapolate 
          using up to (NFOCK): 10 stored Fock matrices.

                    Damping( 0%)  Levelshifting(0.5)       DIIS
                  --------------- ------------------- ---------------
          dE  on:    start            ASAP                start   
          dE off:    2 iters         30 iters            30 iters 


      Screening Tolerance Information
      -------------------------------
          Density screening/tol_rho: 1.00D-10
          AO Gaussian exp screening on grid/accAOfunc:  14
          CD Gaussian exp screening on grid/accCDfunc:  20
          XC Gaussian exp screening on grid/accXCfunc:  20
          Schwarz screening/accCoul: 1.00D-08


      Superposition of Atomic Density Guess
      -------------------------------------

 Sum of atomic energies:          -2.86104912

      Non-variational initial energy
      ------------------------------

 Total energy =      -2.861049
 1-e energy   =      -3.886256
 2-e energy   =       1.025207
 HOMO         =      -0.917921
 LUMO         =       0.533533

   Time after variat. SCF:      0.6
   Time prior to 1st pass:      0.6

 #quartets = 5.500D+01 #integrals = 5.500D+01 #direct =  0.0% #cached =100.0%


 Integral file          = /home/d3y133/nwchem-dev/nwchem-ref/QA/scratchdir/nwxc_dat.aoints.0
 Record size in doubles =  65536        No. of integs per rec  =  43688
 Max. records in memory =      2        Max. records in file   =   3037
 No. of bits per label  =      8        No. of bits per value  =     64


File balance: exchanges=     0  moved=     0  time=   0.0


 Grid_pts file          = /home/d3y133/nwchem-dev/nwchem-ref/QA/scratchdir/nwxc_dat.gridpts.0
 Record size in doubles =  12289        No. of grid_pts per rec  =   3070
 Max. records in memory =      3        Max. recs in file   =     16202


           Memory utilization after 1st SCF pass: 
           Heap Space remaining (MW):       12.94            12938672
          Stack Space remaining (MW):       13.11            13107074

   convergence    iter        energy       DeltaE   RMS-Dens  Diis-err    time
 ---------------- ----- ----------------- --------- --------- ---------  ------
 d= 0,ls=0.0,diis     1     -2.8909996196 -2.89D+00  2.30D-02  2.62D-02     0.7
  Resetting Diis
 d= 0,ls=0.0,diis     2     -2.8922862293 -1.29D-03  2.94D-03  3.32D-04     0.7
 d= 0,ls=0.0,diis     3     -2.8923117451 -2.55D-05  1.37D-03  7.19D-05     0.7
 d= 0,ls=0.0,diis     4     -2.8923178424 -6.10D-06  4.16D-04  1.36D-05     0.7
 d= 0,ls=0.0,diis     5     -2.8923192726 -1.43D-06  2.77D-07  4.08D-12     0.7
 d= 0,ls=0.0,diis     6     -2.8923192726 -4.99D-13  1.17D-09  4.17D-16     0.8


         Total DFT energy =       -2.892319272623
      One electron energy =       -3.873309847427
           Coulomb energy =        2.027305988342
    Exchange-Corr. energy =       -1.046315413537
 Nuclear repulsion energy =        0.000000000000

 Numeric. integr. density =        1.999999937434

     Total iterative time =      0.1s



                       DFT Final Molecular Orbital Analysis
                       ------------------------------------

 Vector    1  Occ=2.000000D+00  E=-5.787263D-01
              MO Center=  0.0D+00,  0.0D+00,  0.0D+00, r^2= 3.5D-01
   Bfn.  Coefficient  Atom+Function         Bfn.  Coefficient  Atom+Function  
  ----- ------------  ---------------      ----- ------------  ---------------
     3      0.471882  1 He s                  4      0.296644  1 He s          
     2      0.289594  1 He s          

 Vector    2  Occ=0.000000D+00  E= 3.673014D-01
              MO Center=  0.0D+00,  0.0D+00,  0.0D+00, r^2= 1.6D+00
   Bfn.  Coefficient  Atom+Function         Bfn.  Coefficient  Atom+Function  
  ----- ------------  ---------------      ----- ------------  ---------------
     4      1.495699  1 He s                  3     -1.116016  1 He s          

 Vector    3  Occ=0.000000D+00  E= 2.882836D+00
              MO Center=  0.0D+00,  0.0D+00,  0.0D+00, r^2= 6.2D-01
   Bfn.  Coefficient  Atom+Function         Bfn.  Coefficient  Atom+Function  
  ----- ------------  ---------------      ----- ------------  ---------------
     3      2.216508  1 He s                  2     -1.600822  1 He s          
     4     -0.915337  1 He s          

 Vector    4  Occ=0.000000D+00  E= 1.674246D+01
              MO Center=  0.0D+00,  0.0D+00,  0.0D+00, r^2= 1.6D-01
   Bfn.  Coefficient  Atom+Function         Bfn.  Coefficient  Atom+Function  
  ----- ------------  ---------------      ----- ------------  ---------------
     2      1.955060  1 He s                  1     -1.564932  1 He s          
     3     -1.182574  1 He s                  4      0.385999  1 He s          


 Parallel integral file used       4 records with       0 large values


 Task  times  cpu:        0.1s     wall:        0.3s
 Summary of allocated global arrays
-----------------------------------
  No active global arrays



                         GA Statistics for process    0
                         ------------------------------

       create   destroy   get      put      acc     scatter   gather  read&inc
calls:  823      823     1997      837      722        0        0        0     
number of processes/call 1.13e+00 1.16e+00 1.28e+00 0.00e+00 0.00e+00
bytes total:             2.13e+05 7.46e+04 9.24e+04 0.00e+00 0.00e+00 0.00e+00
bytes remote:            8.45e+03 4.22e+03 6.43e+03 0.00e+00 0.00e+00 0.00e+00
Max memory consumed for GA by this process: 4992 bytes
MA_summarize_allocated_blocks: starting scan ...
MA_summarize_allocated_blocks: scan completed: 0 heap blocks, 0 stack blocks
MA usage statistics:

	allocation statistics:
					      heap	     stack
					      ----	     -----
	current number of blocks	         0	         0
	maximum number of blocks	        23	        47
	current total bytes		         0	         0
	maximum total bytes		   1348232	  22509576
	maximum total K-bytes		      1349	     22510
	maximum total M-bytes		         2	        23


                                NWChem Input Module
                                -------------------





                                     CITATION
                                     --------
                Please cite the following reference when publishing
                           results obtained with NWChem:

                 M. Valiev, E.J. Bylaska, N. Govind, K. Kowalski,
              T.P. Straatsma, H.J.J. van Dam, D. Wang, J. Nieplocha,
                        E. Apra, T.L. Windus, W.A. de Jong
                 "NWChem: a comprehensive and scalable open-source
                  solution for large scale molecular simulations"
                      Comput. Phys. Commun. 181, 1477 (2010)
                           doi:10.1016/j.cpc.2010.04.018

                              AUTHORS & CONTRIBUTORS
                              ----------------------
          E. Apra, E. J. Bylaska, W. A. de Jong, N. Govind, K. Kowalski,
       T. P. Straatsma, M. Valiev, H. J. J. van Dam, D. Wang, T. L. Windus,
    J. Hammond, J. Autschbach, F. Aquino, S. Hirata, M. T. Hackler, K. Lopata,
      J. Mullin, P. Nichols, R. Peverati, Y. Zhao, P.-D. Fan, R. J. Harrison,
        M. Dupuis, D. M. A. Smith, J. Nieplocha, V. Tipparaju, M. Krishnan,
       B. E. Van Kuiken, A. Vazquez-Mayagoitia, L. Jensen, M. Swart, Q. Wu,
   T. Van Voorhis, A. A. Auer, M. Nooijen, L. D. Crosby, E. Brown, G. Cisneros,
      G. I. Fann, H. Fruchtl, J. Garza, K. Hirao, R. Kendall, J. A. Nichols,
        K. Tsemekhman, K. Wolinski, J. Anchell, D. Bernholdt, P. Borowski,
  T. Clark, D. Clerc, H. Dachsel, M. Deegan, K. Dyall, D. Elwood, E. Glendening,
         M. Gutowski, A. Hess, J. Jaffe, B. Johnson, J. Ju, R. Kobayashi,
     R. Kutteh, Z. Lin, R. Littlefield, X. Long, B. Meng, T. Nakajima, S. Niu,
      L. Pollack, M. Rosing, K. Glaesemann, G. Sandrone, M. Stave, H. Taylor,
                  G. Thomas, J. H. van Lenthe, A. Wong, Z. Zhang.

 Total times  cpu:        0.8s     wall:        3.1s
