 argument  1 = carbon-core-fon.nw



============================== echo of input deck ==============================
echo

title "carbon core fractional occupation"

memory 128 mb

start carbon-core-fon

geometry units angstrom nocenter
symmetry c1
  C   0.0 0.0 0.0
end

basis
  * library 6-31G*
end

# set fractional occupation in the core
set dft:core_fon .true.

dft
 print "final vectors analysis"
 direct
 fon partial 1 electrons 1.0 filled 2
 xc pbe0
 convergence energy 1d-8  nolevelshifting
end
task dft

dft
 print "final vectors analysis"
 odft
 direct
 fon alpha partial 2 electrons 1.0 filled 2
 fon beta partial 2 electrons 1.0 filled 2
 xc pbe0
 convergence energy 1d-8
end
task dft
================================================================================


                                         
                                         


             Northwest Computational Chemistry Package (NWChem) 6.1.1
             --------------------------------------------------------


                    Environmental Molecular Sciences Laboratory
                       Pacific Northwest National Laboratory
                                Richland, WA 99352

                              Copyright (c) 1994-2012
                       Pacific Northwest National Laboratory
                            Battelle Memorial Institute

             NWChem is an open-source computational chemistry package
                        distributed under the terms of the
                      Educational Community License (ECL) 2.0
             A copy of the license is included with this distribution
                              in the LICENSE.TXT file

                                  ACKNOWLEDGMENT
                                  --------------

            This software and its documentation were developed at the
            EMSL at Pacific Northwest National Laboratory, a multiprogram
            national laboratory, operated for the U.S. Department of Energy
            by Battelle under Contract Number DE-AC05-76RL01830. Support
            for this work was provided by the Department of Energy Office
            of Biological and Environmental Research, Office of Basic
            Energy Sciences, and the Office of Advanced Scientific Computing.


           Job information
           ---------------

    hostname        = orion
    program         = ../../../bin/LINUX64/nwchem
    date            = Wed Mar  6 14:28:56 2013

    compiled        = Wed_Mar_06_14:22:30_2013
    source          = /home/niri/nwchem/nwchem-dev
    nwchem branch   = Development
    nwchem revision = 23633
    ga revision     = 10143
    input           = carbon-core-fon.nw
    prefix          = carbon-core-fon.
    data base       = ./carbon-core-fon.db
    status          = startup
    nproc           =        4
    time left       =     -1s



           Memory information
           ------------------

    heap     =    4194305 doubles =     32.0 Mbytes
    stack    =    4194305 doubles =     32.0 Mbytes
    global   =    8388608 doubles =     64.0 Mbytes (distinct from heap & stack)
    total    =   16777218 doubles =    128.0 Mbytes
    verify   = yes
    hardfail = no 


           Directory information
           ---------------------

  0 permanent = .
  0 scratch   = .




                                NWChem Input Module
                                -------------------


                         carbon core fractional occupation
                         ---------------------------------

 Scaling coordinates for geometry "geometry" by  1.889725989
 (inverse scale =  0.529177249)



                             Geometry "geometry" -> ""
                             -------------------------

 Output coordinates in angstroms (scale by  1.889725989 to convert to a.u.)

  No.       Tag          Charge          X              Y              Z
 ---- ---------------- ---------- -------------- -------------- --------------
    1 C                    6.0000     0.00000000     0.00000000     0.00000000

      Atomic Mass 
      ----------- 

      C                 12.000000


 Effective nuclear repulsion energy (a.u.)       0.0000000000

            Nuclear Dipole moment (a.u.) 
            ----------------------------
        X                 Y               Z
 ---------------- ---------------- ----------------
     0.0000000000     0.0000000000     0.0000000000


            XYZ format geometry
            -------------------
     1
 geometry
 C                     0.00000000     0.00000000     0.00000000

  library name resolved from: environment
  library file name is: </home/niri/nwchem/nwchem-dev/src/basis/libraries/>
  


 Summary of "ao basis" -> "" (cartesian)
 ------------------------------------------------------------------------------
       Tag                 Description            Shells   Functions and Types
 ---------------- ------------------------------  ------  ---------------------
 *                           6-31G*                   on all atoms 



                                 NWChem DFT Module
                                 -----------------


                         carbon core fractional occupation


                      Basis "ao basis" -> "ao basis" (cartesian)
                      -----
  C (Carbon)
  ----------
            Exponent  Coefficients 
       -------------- ---------------------------------------------------------
  1 S  3.04752490E+03  0.001835
  1 S  4.57369510E+02  0.014037
  1 S  1.03948690E+02  0.068843
  1 S  2.92101550E+01  0.232184
  1 S  9.28666300E+00  0.467941
  1 S  3.16392700E+00  0.362312

  2 S  7.86827240E+00 -0.119332
  2 S  1.88128850E+00 -0.160854
  2 S  5.44249300E-01  1.143456

  3 P  7.86827240E+00  0.068999
  3 P  1.88128850E+00  0.316424
  3 P  5.44249300E-01  0.744308

  4 S  1.68714400E-01  1.000000

  5 P  1.68714400E-01  1.000000

  6 D  8.00000000E-01  1.000000



 Summary of "ao basis" -> "ao basis" (cartesian)
 ------------------------------------------------------------------------------
       Tag                 Description            Shells   Functions and Types
 ---------------- ------------------------------  ------  ---------------------
 C                           6-31G*                  6       15   3s2p1d


  Caching 1-el integrals 
  itol2e modified to match energy
  convergence criterion.
  tol_rho modified to match energy
  convergence criterion.

            General Information
            -------------------
          SCF calculation type: DFT
          Wavefunction type:  closed shell.
          No. of atoms     :     1
          No. of electrons :     6
           Alpha electrons :     3
            Beta electrons :     3
          Charge           :     0
          Spin multiplicity:     1
          Use of symmetry is: off; symmetry adaption is: off
          Maximum number of iterations:  30
          This is a Direct SCF calculation.
          AO basis - number of functions:    15
                     number of shells:     6
          Convergence on energy requested: 1.00D-08
          Convergence on density requested: 1.00D-05
          Convergence on gradient requested: 5.00D-04

              XC Information
              --------------
                         PBE0 Method XC Functional
                     Hartree-Fock (Exact) Exchange  0.250          
          PerdewBurkeErnzerhof Exchange Functional  0.750          
            Perdew 1991 LDA Correlation Functional  1.000 local    
           PerdewBurkeErnz. Correlation Functional  1.000 non-local

             Grid Information
             ----------------
          Grid used for XC integration:  medium    
          Radial quadrature: Mura-Knowles        
          Angular quadrature: Lebedev. 
          Tag              B.-S. Rad. Rad. Pts. Rad. Cut. Ang. Pts.
          ---              ---------- --------- --------- ---------
          C                   0.70       49           4.0       434
          Grid pruning is: on 
          Number of quadrature shells:    49
          Spatial weights used:  Erf1

          Convergence Information
          -----------------------
          Convergence aids based upon iterative change in 
          total energy or number of iterations. 
          Levelshifting, if invoked, occurs when the 
          HOMO/LUMO gap drops below (HL_TOL): 1.00D-02
          DIIS, if invoked, will attempt to extrapolate 
          using up to (NFOCK): 10 stored Fock matrices.

                    Damping( 0%)  Levelshifting(0.0)       DIIS
                  --------------- ------------------- ---------------
          dE  on:    start             N/A                start   
          dE off:    2 iters           N/A               30 iters 


      Screening Tolerance Information
      -------------------------------
          Density screening/tol_rho: 1.00D-11
          AO Gaussian exp screening on grid/accAOfunc:  18
          CD Gaussian exp screening on grid/accCDfunc:  20
          XC Gaussian exp screening on grid/accXCfunc:  20
          Schwarz screening/accCoul: 1.00D-09


      Superposition of Atomic Density Guess
      -------------------------------------

 Sum of atomic energies:         -37.66025415

      Non-variational initial energy
      ------------------------------

 Total energy =     -37.298070
 1-e energy   =     -50.455020
 2-e energy   =      13.156950
 HOMO         =      -0.057689
 LUMO         =      -0.057689

   Time after variat. SCF:      0.1
     FON applied
     tr(P*S):    0.5000000E+01
   Time prior to 1st pass:      0.1
     FON applied
     tr(P*S):    0.5000000E+01

 Grid_pts file          = ./carbon-core-fon.gridpts.0
 Record size in doubles =  12289        No. of grid_pts per rec  =   3070
 Max. records in memory =      3        Max. recs in file   =     36761


           Memory utilization after 1st SCF pass: 
           Heap Space remaining (MW):        4.16             4156107
          Stack Space remaining (MW):        4.19             4194128

   convergence    iter        energy       DeltaE   RMS-Dens  Diis-err    time
 ---------------- ----- ----------------- --------- --------- ---------  ------
 d= 0,ls=0.0,diis     1    -25.8010337447 -2.58D+01  1.89D-01  3.56D+00     0.1
     FON applied
     tr(P*S):    0.5000000E+01
 d= 0,ls=0.0,diis     2    -26.2711018276 -4.70D-01  5.22D-02  2.31D-01     0.1
     FON applied
     tr(P*S):    0.5000000E+01
  Resetting Diis
 d= 0,ls=0.0,diis     3    -26.2997593505 -2.87D-02  2.66D-03  4.96D-04     0.2
     FON applied
     tr(P*S):    0.5000000E+01
 d= 0,ls=0.0,diis     4    -26.2998226173 -6.33D-05  7.32D-05  4.66D-07     0.2
     FON applied
     tr(P*S):    0.5000000E+01
 d= 0,ls=0.0,diis     5    -26.2998227220 -1.05D-07  2.07D-05  3.46D-08     0.2
     FON applied
     tr(P*S):    0.5000000E+01
 d= 0,ls=0.0,diis     6    -26.2998227263 -4.35D-09  5.73D-06  2.42D-10     0.2


         Total DFT energy =      -26.299822726303
      One electron energy =      -34.204551015424
           Coulomb energy =       11.215583967686
    Exchange-Corr. energy =       -3.310855678565
 Nuclear repulsion energy =        0.000000000000

 Numeric. integr. density =        4.999999949663

     Total iterative time =      0.2s



                       DFT Final Molecular Orbital Analysis
                       ------------------------------------

 Vector    1  Occ=1.000000D+00  E=-1.249412D+01
              MO Center= -1.4D-17, -1.8D-17, -1.0D-17, r^2= 2.6D-02
   Bfn.  Coefficient  Atom+Function         Bfn.  Coefficient  Atom+Function  
  ----- ------------  ---------------      ----- ------------  ---------------
     1      1.009577  1 C  s          

 Vector    2  Occ=2.000000D+00  E=-1.180214D+00
              MO Center= -1.9D-15, -2.8D-15, -3.0D-15, r^2= 6.1D-01
   Bfn.  Coefficient  Atom+Function         Bfn.  Coefficient  Atom+Function  
  ----- ------------  ---------------      ----- ------------  ---------------
     2      0.942499  1 C  s                  6      0.361010  1 C  s          
     1     -0.242693  1 C  s          

 Vector    3  Occ=2.000000D+00  E=-8.231115D-01
              MO Center= -4.3D-16, -5.8D-16, -6.4D-16, r^2= 5.7D-01
   Bfn.  Coefficient  Atom+Function         Bfn.  Coefficient  Atom+Function  
  ----- ------------  ---------------      ----- ------------  ---------------
     3      0.770004  1 C  px                 5     -0.473917  1 C  pz         

 Vector    4  Occ=0.000000D+00  E=-7.214622D-01
              MO Center=  1.4D-15, -7.2D-16,  2.2D-15, r^2= 6.0D-01
   Bfn.  Coefficient  Atom+Function         Bfn.  Coefficient  Atom+Function  
  ----- ------------  ---------------      ----- ------------  ---------------
     5      0.752470  1 C  pz                 3      0.462857  1 C  px         
     9      0.156111  1 C  pz         

 Vector    5  Occ=0.000000D+00  E=-7.214573D-01
              MO Center= -3.9D-16,  2.3D-15, -7.7D-16, r^2= 6.0D-01
   Bfn.  Coefficient  Atom+Function         Bfn.  Coefficient  Atom+Function  
  ----- ------------  ---------------      ----- ------------  ---------------
     4      0.883403  1 C  py                 8      0.183282  1 C  py         

 Vector    6  Occ=0.000000D+00  E= 7.727192D-02
              MO Center= -1.9D-14,  9.3D-16, -3.1D-14, r^2= 2.3D+00
   Bfn.  Coefficient  Atom+Function         Bfn.  Coefficient  Atom+Function  
  ----- ------------  ---------------      ----- ------------  ---------------
     9      1.024129  1 C  pz                 5     -0.711833  1 C  pz         
     7      0.630299  1 C  px                 3     -0.438089  1 C  px         

 Vector    7  Occ=0.000000D+00  E= 7.727720D-02
              MO Center= -5.7D-16, -3.0D-14, -4.9D-16, r^2= 2.3D+00
   Bfn.  Coefficient  Atom+Function         Bfn.  Coefficient  Atom+Function  
  ----- ------------  ---------------      ----- ------------  ---------------
     8      1.202517  1 C  py                 4     -0.835826  1 C  py         

 Vector    8  Occ=0.000000D+00  E= 9.303274D-02
              MO Center=  2.0D-15,  1.1D-17, -1.2D-15, r^2= 2.3D+00
   Bfn.  Coefficient  Atom+Function         Bfn.  Coefficient  Atom+Function  
  ----- ------------  ---------------      ----- ------------  ---------------
     7      1.027815  1 C  px                 3     -0.693405  1 C  px         
     9     -0.632806  1 C  pz                 5      0.426923  1 C  pz         

 Vector    9  Occ=0.000000D+00  E= 1.581036D-01
              MO Center=  1.7D-14,  2.9D-14,  3.3D-14, r^2= 1.9D+00
   Bfn.  Coefficient  Atom+Function         Bfn.  Coefficient  Atom+Function  
  ----- ------------  ---------------      ----- ------------  ---------------
     6     -1.686205  1 C  s                  2      1.552199  1 C  s          

 Vector   10  Occ=0.000000D+00  E= 1.135572D+00
              MO Center=  4.1D-16,  6.4D-16,  6.5D-16, r^2= 6.1D-01
   Bfn.  Coefficient  Atom+Function         Bfn.  Coefficient  Atom+Function  
  ----- ------------  ---------------      ----- ------------  ---------------
    13      0.865716  1 C  dyy               12     -0.772783  1 C  dxz        
    15     -0.627976  1 C  dzz               10     -0.237745  1 C  dxx        

 Vector   11  Occ=0.000000D+00  E= 1.135574D+00
              MO Center=  3.0D-16,  6.5D-16,  4.8D-16, r^2= 6.1D-01
   Bfn.  Coefficient  Atom+Function         Bfn.  Coefficient  Atom+Function  
  ----- ------------  ---------------      ----- ------------  ---------------
    14      1.474694  1 C  dyz               11      0.907278  1 C  dxy        

 Vector   12  Occ=0.000000D+00  E= 1.165219D+00
              MO Center=  3.8D-17,  7.0D-16,  1.4D-17, r^2= 6.1D-01
   Bfn.  Coefficient  Atom+Function         Bfn.  Coefficient  Atom+Function  
  ----- ------------  ---------------      ----- ------------  ---------------
    11      1.473120  1 C  dxy               14     -0.907302  1 C  dyz        

 Vector   13  Occ=0.000000D+00  E= 1.165220D+00
              MO Center=  3.7D-16, -3.4D-17,  6.6D-16, r^2= 6.1D-01
   Bfn.  Coefficient  Atom+Function         Bfn.  Coefficient  Atom+Function  
  ----- ------------  ---------------      ----- ------------  ---------------
    12      0.779858  1 C  dxz               10      0.771985  1 C  dxx        
    15     -0.772530  1 C  dzz        

 Vector   14  Occ=0.000000D+00  E= 1.188993D+00
              MO Center=  8.1D-17,  1.7D-16,  2.0D-16, r^2= 6.1D-01
   Bfn.  Coefficient  Atom+Function         Bfn.  Coefficient  Atom+Function  
  ----- ------------  ---------------      ----- ------------  ---------------
    12      1.338982  1 C  dxz               10     -0.570344  1 C  dxx        
    13      0.517172  1 C  dyy        

 Vector   15  Occ=0.000000D+00  E= 2.928845D+00
              MO Center= -6.2D-18, -2.6D-17, -5.5D-17, r^2= 7.2D-01
   Bfn.  Coefficient  Atom+Function         Bfn.  Coefficient  Atom+Function  
  ----- ------------  ---------------      ----- ------------  ---------------
     2      3.087689  1 C  s                 10     -1.745339  1 C  dxx        
    13     -1.735283  1 C  dyy               15     -1.739090  1 C  dzz        
     6      0.802288  1 C  s                  1     -0.390981  1 C  s          


 Task  times  cpu:        0.2s     wall:        0.7s


                                NWChem Input Module
                                -------------------



                                 NWChem DFT Module
                                 -----------------


                         carbon core fractional occupation


  Caching 1-el integrals 

            General Information
            -------------------
          SCF calculation type: DFT
          Wavefunction type:  spin polarized.
          No. of atoms     :     1
          No. of electrons :     6
           Alpha electrons :     3
            Beta electrons :     3
          Charge           :     0
          Spin multiplicity:     1
          Use of symmetry is: off; symmetry adaption is: off
          Maximum number of iterations:  30
          This is a Direct SCF calculation.
          AO basis - number of functions:    15
                     number of shells:     6
          Convergence on energy requested: 1.00D-08
          Convergence on density requested: 1.00D-05
          Convergence on gradient requested: 5.00D-04

              XC Information
              --------------
                         PBE0 Method XC Functional
                     Hartree-Fock (Exact) Exchange  0.250          
          PerdewBurkeErnzerhof Exchange Functional  0.750          
            Perdew 1991 LDA Correlation Functional  1.000 local    
           PerdewBurkeErnz. Correlation Functional  1.000 non-local

             Grid Information
             ----------------
          Grid used for XC integration:  medium    
          Radial quadrature: Mura-Knowles        
          Angular quadrature: Lebedev. 
          Tag              B.-S. Rad. Rad. Pts. Rad. Cut. Ang. Pts.
          ---              ---------- --------- --------- ---------
          C                   0.70       49           4.0       434
          Grid pruning is: on 
          Number of quadrature shells:    49
          Spatial weights used:  Erf1

          Convergence Information
          -----------------------
          Convergence aids based upon iterative change in 
          total energy or number of iterations. 
          Levelshifting, if invoked, occurs when the 
          HOMO/LUMO gap drops below (HL_TOL): 1.00D-02
          DIIS, if invoked, will attempt to extrapolate 
          using up to (NFOCK): 10 stored Fock matrices.

                    Damping( 0%)  Levelshifting(0.0)       DIIS
                  --------------- ------------------- ---------------
          dE  on:    start             N/A                start   
          dE off:    2 iters           N/A               30 iters 


      Screening Tolerance Information
      -------------------------------
          Density screening/tol_rho: 1.00D-11
          AO Gaussian exp screening on grid/accAOfunc:  18
          CD Gaussian exp screening on grid/accCDfunc:  20
          XC Gaussian exp screening on grid/accXCfunc:  20
          Schwarz screening/accCoul: 1.00D-09

  movecs_read: failing reading from ./carbon-core-fon.movecs
   Duplicating RHF/ROHF vectors for UHF

 Loading old vectors from job with title :

carbon core fractional occupation

   Time after variat. SCF:      0.2
     FON applied
     tr(P*S):    0.3000000E+01
   Time prior to 1st pass:      0.2
     FON applied
     tr(P*S):    0.6000000E+01

 Grid_pts file          = ./carbon-core-fon.gridpts.0
 Record size in doubles =  12289        No. of grid_pts per rec  =   3070
 Max. records in memory =      3        Max. recs in file   =     36761


           Memory utilization after 1st SCF pass: 
           Heap Space remaining (MW):        4.16             4156080
          Stack Space remaining (MW):        4.19             4194082

   convergence    iter        energy       DeltaE   RMS-Dens  Diis-err    time
 ---------------- ----- ----------------- --------- --------- ---------  ------
 d= 0,ls=0.0,diis     1    -26.3791730799 -2.64D+01  3.34D-02  6.56D-02     0.3
                                                     3.34D-02  6.56D-02
     FON applied
     tr(P*S):    0.6000000E+01
  Resetting Diis
 d= 0,ls=0.0,diis     2    -26.4183603608 -3.92D-02  1.17D-02  2.78D-02     0.3
                                                     1.17D-02  2.78D-02
     FON applied
     tr(P*S):    0.6000000E+01
 d= 0,ls=0.0,diis     3    -26.4400376345 -2.17D-02  2.12D-04  3.52D-06     0.3
                                                     2.12D-04  3.52D-06
     FON applied
     tr(P*S):    0.6000000E+01
 d= 0,ls=0.0,diis     4    -26.4400410463 -3.41D-06  6.84D-05  5.58D-07     0.4
                                                     6.84D-05  5.58D-07
     FON applied
     tr(P*S):    0.6000000E+01
 d= 0,ls=0.0,diis     5    -26.4400415000 -4.54D-07  1.55D-05  2.98D-08     0.4
                                                     1.55D-05  2.98D-08
     FON applied
     tr(P*S):    0.6000000E+01
 d= 0,ls=0.0,diis     6    -26.4400415281 -2.81D-08  2.47D-06  4.17D-11     0.4
                                                     2.47D-06  4.17D-11
     FON applied
     tr(P*S):    0.6000000E+01
 d= 0,ls=0.0,diis     7    -26.4400415286 -5.17D-10  2.54D-06  2.73D-11     0.5
                                                     2.54D-06  2.73D-11


         Total DFT energy =      -26.440041528626
      One electron energy =      -37.084085303837
           Coulomb energy =       14.270382195421
    Exchange-Corr. energy =       -3.626338420210
 Nuclear repulsion energy =        0.000000000000

 Numeric. integr. density =        5.999999685274

     Total iterative time =      0.2s



                    DFT Final Alpha Molecular Orbital Analysis
                    ------------------------------------------

 Vector    1  Occ=5.000000D-01  E=-1.185743D+01
              MO Center=  1.5D-17,  1.3D-17, -3.0D-18, r^2= 2.6D-02
   Bfn.  Coefficient  Atom+Function         Bfn.  Coefficient  Atom+Function  
  ----- ------------  ---------------      ----- ------------  ---------------
     1      1.009164  1 C  s          

 Vector    2  Occ=5.000000D-01  E=-6.061095D-01
              MO Center= -2.2D-16, -6.9D-17,  8.5D-17, r^2= 7.1D-01
   Bfn.  Coefficient  Atom+Function         Bfn.  Coefficient  Atom+Function  
  ----- ------------  ---------------      ----- ------------  ---------------
     2      0.777177  1 C  s                  6      0.497007  1 C  s          
     1     -0.236948  1 C  s          

 Vector    3  Occ=1.000000D+00  E=-3.107667D-01
              MO Center=  3.1D-16,  6.3D-17, -6.1D-17, r^2= 7.1D-01
   Bfn.  Coefficient  Atom+Function         Bfn.  Coefficient  Atom+Function  
  ----- ------------  ---------------      ----- ------------  ---------------
     3      0.690569  1 C  px                 5     -0.416688  1 C  pz         
     7      0.247617  1 C  px         

 Vector    4  Occ=1.000000D+00  E=-3.107666D-01
              MO Center=  4.4D-18, -2.2D-17,  1.3D-16, r^2= 7.1D-01
   Bfn.  Coefficient  Atom+Function         Bfn.  Coefficient  Atom+Function  
  ----- ------------  ---------------      ----- ------------  ---------------
     5      0.690204  1 C  pz                 3      0.416211  1 C  px         
     9      0.247486  1 C  pz         

 Vector    5  Occ=0.000000D+00  E=-2.089827D-01
              MO Center= -4.4D-17,  1.3D-17,  2.0D-17, r^2= 7.7D-01
   Bfn.  Coefficient  Atom+Function         Bfn.  Coefficient  Atom+Function  
  ----- ------------  ---------------      ----- ------------  ---------------
     4      0.770586  1 C  py                 8      0.333915  1 C  py         

 Vector    6  Occ=0.000000D+00  E= 4.442462D-01
              MO Center= -3.0D-18, -1.5D-16, -3.8D-18, r^2= 2.1D+00
   Bfn.  Coefficient  Atom+Function         Bfn.  Coefficient  Atom+Function  
  ----- ------------  ---------------      ----- ------------  ---------------
     8      1.169152  1 C  py                 4     -0.940544  1 C  py         

 Vector    7  Occ=0.000000D+00  E= 4.547758D-01
              MO Center= -5.9D-16,  3.5D-18,  3.5D-16, r^2= 2.2D+00
   Bfn.  Coefficient  Atom+Function         Bfn.  Coefficient  Atom+Function  
  ----- ------------  ---------------      ----- ------------  ---------------
     7      1.013975  1 C  px                 3     -0.781616  1 C  px         
     9     -0.607275  1 C  pz                 5      0.468114  1 C  pz         

 Vector    8  Occ=0.000000D+00  E= 4.547759D-01
              MO Center= -1.1D-16,  1.1D-17, -1.8D-16, r^2= 2.2D+00
   Bfn.  Coefficient  Atom+Function         Bfn.  Coefficient  Atom+Function  
  ----- ------------  ---------------      ----- ------------  ---------------
     9      1.013436  1 C  pz                 5     -0.781199  1 C  pz         
     7      0.606566  1 C  px                 3     -0.467567  1 C  px         

 Vector    9  Occ=0.000000D+00  E= 5.489087D-01
              MO Center=  6.6D-16,  3.5D-16, -1.1D-16, r^2= 1.9D+00
   Bfn.  Coefficient  Atom+Function         Bfn.  Coefficient  Atom+Function  
  ----- ------------  ---------------      ----- ------------  ---------------
     6     -1.669636  1 C  s                  2      1.545511  1 C  s          

 Vector   10  Occ=0.000000D+00  E= 1.645337D+00
              MO Center=  3.4D-17,  2.9D-16, -7.8D-18, r^2= 6.1D-01
   Bfn.  Coefficient  Atom+Function         Bfn.  Coefficient  Atom+Function  
  ----- ------------  ---------------      ----- ------------  ---------------
    11      1.471279  1 C  dxy               14     -0.911296  1 C  dyz        

 Vector   11  Occ=0.000000D+00  E= 1.645338D+00
              MO Center=  6.5D-18, -1.9D-17,  1.1D-17, r^2= 6.1D-01
   Bfn.  Coefficient  Atom+Function         Bfn.  Coefficient  Atom+Function  
  ----- ------------  ---------------      ----- ------------  ---------------
    14      1.468922  1 C  dyz               11      0.908294  1 C  dxy        

 Vector   12  Occ=0.000000D+00  E= 1.656903D+00
              MO Center=  3.8D-17,  4.5D-17, -2.1D-17, r^2= 6.1D-01
   Bfn.  Coefficient  Atom+Function         Bfn.  Coefficient  Atom+Function  
  ----- ------------  ---------------      ----- ------------  ---------------
    13      1.013798  1 C  dyy               10     -0.482881  1 C  dxx        
    15     -0.482641  1 C  dzz        

 Vector   13  Occ=0.000000D+00  E= 1.682965D+00
              MO Center=  3.1D-16, -2.1D-17,  4.4D-16, r^2= 6.1D-01
   Bfn.  Coefficient  Atom+Function         Bfn.  Coefficient  Atom+Function  
  ----- ------------  ---------------      ----- ------------  ---------------
    10      0.865452  1 C  dxx               15     -0.865306  1 C  dzz        

 Vector   14  Occ=0.000000D+00  E= 1.682965D+00
              MO Center= -1.5D-16, -2.8D-19,  1.4D-16, r^2= 6.1D-01
   Bfn.  Coefficient  Atom+Function         Bfn.  Coefficient  Atom+Function  
  ----- ------------  ---------------      ----- ------------  ---------------
    12      1.730758  1 C  dxz        

 Vector   15  Occ=0.000000D+00  E= 3.455249D+00
              MO Center= -4.7D-17,  5.8D-18,  3.5D-18, r^2= 6.9D-01
   Bfn.  Coefficient  Atom+Function         Bfn.  Coefficient  Atom+Function  
  ----- ------------  ---------------      ----- ------------  ---------------
     2      3.136875  1 C  s                 10     -1.744917  1 C  dxx        
    15     -1.744915  1 C  dzz               13     -1.731501  1 C  dyy        
     6      0.763267  1 C  s                  1     -0.394685  1 C  s          


                     DFT Final Beta Molecular Orbital Analysis
                     -----------------------------------------

 Vector    1  Occ=5.000000D-01  E=-1.185743D+01
              MO Center= -1.6D-18, -5.2D-18, -7.0D-18, r^2= 2.6D-02
   Bfn.  Coefficient  Atom+Function         Bfn.  Coefficient  Atom+Function  
  ----- ------------  ---------------      ----- ------------  ---------------
     1      1.009164  1 C  s          

 Vector    2  Occ=5.000000D-01  E=-6.061095D-01
              MO Center= -1.6D-16, -1.9D-16, -5.1D-18, r^2= 7.1D-01
   Bfn.  Coefficient  Atom+Function         Bfn.  Coefficient  Atom+Function  
  ----- ------------  ---------------      ----- ------------  ---------------
     2      0.777177  1 C  s                  6      0.497007  1 C  s          
     1     -0.236948  1 C  s          

 Vector    3  Occ=1.000000D+00  E=-3.107667D-01
              MO Center=  6.2D-17, -3.3D-17, -1.0D-16, r^2= 7.1D-01
   Bfn.  Coefficient  Atom+Function         Bfn.  Coefficient  Atom+Function  
  ----- ------------  ---------------      ----- ------------  ---------------
     3      0.690569  1 C  px                 5     -0.416688  1 C  pz         
     7      0.247617  1 C  px         

 Vector    4  Occ=1.000000D+00  E=-3.107666D-01
              MO Center=  7.4D-17, -2.4D-17,  5.1D-17, r^2= 7.1D-01
   Bfn.  Coefficient  Atom+Function         Bfn.  Coefficient  Atom+Function  
  ----- ------------  ---------------      ----- ------------  ---------------
     5      0.690204  1 C  pz                 3      0.416211  1 C  px         
     9      0.247486  1 C  pz         

 Vector    5  Occ=0.000000D+00  E=-2.089827D-01
              MO Center= -8.9D-18,  2.5D-16, -1.4D-17, r^2= 7.7D-01
   Bfn.  Coefficient  Atom+Function         Bfn.  Coefficient  Atom+Function  
  ----- ------------  ---------------      ----- ------------  ---------------
     4      0.770586  1 C  py                 8      0.333915  1 C  py         

 Vector    6  Occ=0.000000D+00  E= 4.442462D-01
              MO Center= -5.4D-17, -2.2D-15, -6.5D-17, r^2= 2.1D+00
   Bfn.  Coefficient  Atom+Function         Bfn.  Coefficient  Atom+Function  
  ----- ------------  ---------------      ----- ------------  ---------------
     8      1.169152  1 C  py                 4     -0.940544  1 C  py         

 Vector    7  Occ=0.000000D+00  E= 4.547758D-01
              MO Center= -1.9D-15,  1.4D-17,  1.2D-15, r^2= 2.2D+00
   Bfn.  Coefficient  Atom+Function         Bfn.  Coefficient  Atom+Function  
  ----- ------------  ---------------      ----- ------------  ---------------
     7      1.013975  1 C  px                 3     -0.781616  1 C  px         
     9     -0.607275  1 C  pz                 5      0.468114  1 C  pz         

 Vector    8  Occ=0.000000D+00  E= 4.547759D-01
              MO Center= -9.5D-18,  2.6D-18, -1.8D-17, r^2= 2.2D+00
   Bfn.  Coefficient  Atom+Function         Bfn.  Coefficient  Atom+Function  
  ----- ------------  ---------------      ----- ------------  ---------------
     9      1.013436  1 C  pz                 5     -0.781199  1 C  pz         
     7      0.606566  1 C  px                 3     -0.467567  1 C  px         

 Vector    9  Occ=0.000000D+00  E= 5.489087D-01
              MO Center=  2.0D-15,  2.2D-15, -1.0D-15, r^2= 1.9D+00
   Bfn.  Coefficient  Atom+Function         Bfn.  Coefficient  Atom+Function  
  ----- ------------  ---------------      ----- ------------  ---------------
     6     -1.669636  1 C  s                  2      1.545511  1 C  s          

 Vector   10  Occ=0.000000D+00  E= 1.645337D+00
              MO Center= -2.9D-17, -7.9D-17,  1.5D-17, r^2= 6.1D-01
   Bfn.  Coefficient  Atom+Function         Bfn.  Coefficient  Atom+Function  
  ----- ------------  ---------------      ----- ------------  ---------------
    11      1.471279  1 C  dxy               14     -0.911296  1 C  dyz        

 Vector   11  Occ=0.000000D+00  E= 1.645338D+00
              MO Center=  4.1D-18, -1.6D-17,  6.8D-18, r^2= 6.1D-01
   Bfn.  Coefficient  Atom+Function         Bfn.  Coefficient  Atom+Function  
  ----- ------------  ---------------      ----- ------------  ---------------
    14      1.468922  1 C  dyz               11      0.908294  1 C  dxy        

 Vector   12  Occ=0.000000D+00  E= 1.656903D+00
              MO Center=  7.9D-20, -2.1D-18, -1.7D-18, r^2= 6.1D-01
   Bfn.  Coefficient  Atom+Function         Bfn.  Coefficient  Atom+Function  
  ----- ------------  ---------------      ----- ------------  ---------------
    13      1.013798  1 C  dyy               10     -0.482881  1 C  dxx        
    15     -0.482641  1 C  dzz        

 Vector   13  Occ=0.000000D+00  E= 1.682965D+00
              MO Center= -1.7D-16,  2.4D-17, -6.8D-16, r^2= 6.1D-01
   Bfn.  Coefficient  Atom+Function         Bfn.  Coefficient  Atom+Function  
  ----- ------------  ---------------      ----- ------------  ---------------
    10      0.865452  1 C  dxx               15     -0.865306  1 C  dzz        

 Vector   14  Occ=0.000000D+00  E= 1.682965D+00
              MO Center=  3.3D-16, -5.5D-18, -1.1D-16, r^2= 6.1D-01
   Bfn.  Coefficient  Atom+Function         Bfn.  Coefficient  Atom+Function  
  ----- ------------  ---------------      ----- ------------  ---------------
    12      1.730758  1 C  dxz        

 Vector   15  Occ=0.000000D+00  E= 3.455249D+00
              MO Center= -7.8D-18, -3.7D-17,  8.6D-18, r^2= 6.9D-01
   Bfn.  Coefficient  Atom+Function         Bfn.  Coefficient  Atom+Function  
  ----- ------------  ---------------      ----- ------------  ---------------
     2      3.136875  1 C  s                 10     -1.744917  1 C  dxx        
    15     -1.744915  1 C  dzz               13     -1.731501  1 C  dyy        
     6      0.763267  1 C  s                  1     -0.394685  1 C  s          


   alpha - beta orbital overlaps 
   ----------------------------- 


   alpha      1      2      3      4      5      6      7      8      9     10
    beta      1      2      3      4      5      6      7      8      9     10
 overlap   1.000  1.000  1.000  1.000  1.000  1.000  1.000  1.000  1.000  1.000


   alpha     11     12     13     14     15
    beta     11     12     13     14     15
 overlap   1.000  1.000  1.000  1.000  1.000

     --------------------------
     Expectation value of S2:  
     --------------------------
      <S2> =      0.5000 (Exact =     0.0000)


 Task  times  cpu:        0.2s     wall:        0.6s


                                NWChem Input Module
                                -------------------


 Summary of allocated global arrays
-----------------------------------
  No active global arrays



                         GA Statistics for process    0
                         ------------------------------

       create   destroy   get      put      acc     scatter   gather  read&inc
calls:  392      392     1507      559      378        0        0        0     
number of processes/call 1.08e+00 1.11e+00 1.32e+00 0.00e+00 0.00e+00
bytes total:             1.49e+06 5.22e+05 6.80e+05 0.00e+00 0.00e+00 0.00e+00
bytes remote:            5.56e+04 2.86e+04 5.28e+04 0.00e+00 0.00e+00 0.00e+00
Max memory consumed for GA by this process: 113880 bytes

MA_summarize_allocated_blocks: starting scan ...
MA_summarize_allocated_blocks: scan completed: 0 heap blocks, 0 stack blocks
MA usage statistics:

	allocation statistics:
					      heap	     stack
					      ----	     -----
	current number of blocks	         0	         0
	maximum number of blocks	        22	        47
	current total bytes		         0	         0
	maximum total bytes		    305800	  22509960
	maximum total K-bytes		       306	     22510
	maximum total M-bytes		         1	        23


                                     CITATION
                                     --------
                Please cite the following reference when publishing
                           results obtained with NWChem:

                 M. Valiev, E.J. Bylaska, N. Govind, K. Kowalski,
              T.P. Straatsma, H.J.J. van Dam, D. Wang, J. Nieplocha,
                        E. Apra, T.L. Windus, W.A. de Jong
                 "NWChem: a comprehensive and scalable open-source
                  solution for large scale molecular simulations"
                      Comput. Phys. Commun. 181, 1477 (2010)
                           doi:10.1016/j.cpc.2010.04.018

                              AUTHORS & CONTRIBUTORS
                              ----------------------
          E. Apra, E. J. Bylaska, W. A. de Jong, N. Govind, K. Kowalski,
       T. P. Straatsma, M. Valiev, H. J. J. van Dam, D. Wang, T. L. Windus,
    J. Hammond, J. Autschbach, F. Aquino, S. Hirata, M. T. Hackler, K. Lopata,
      J. Mullin, P. Nichols, R. Peverati, Y. Zhao, P.-D. Fan, R. J. Harrison,
        M. Dupuis, D. M. A. Smith, J. Nieplocha, V. Tipparaju, M. Krishnan,
       B. E. Van Kuiken, A. Vazquez-Mayagoitia, L. Jensen, M. Swart, Q. Wu,
   T. Van Voorhis, A. A. Auer, M. Nooijen, L. D. Crosby, E. Brown, G. Cisneros,
      G. I. Fann, H. Fruchtl, J. Garza, K. Hirao, R. Kendall, J. A. Nichols,
        K. Tsemekhman, K. Wolinski, J. Anchell, D. Bernholdt, P. Borowski,
  T. Clark, D. Clerc, H. Dachsel, M. Deegan, K. Dyall, D. Elwood, E. Glendening,
         M. Gutowski, A. Hess, J. Jaffe, B. Johnson, J. Ju, R. Kobayashi,
     R. Kutteh, Z. Lin, R. Littlefield, X. Long, B. Meng, T. Nakajima, S. Niu,
      L. Pollack, M. Rosing, K. Glaesemann, G. Sandrone, M. Stave, H. Taylor,
                  G. Thomas, J. H. van Lenthe, A. Wong, Z. Zhang.

 Total times  cpu:        0.5s     wall:        2.5s
