All connections between all procs tested: SUCCESS
 argument  1 = ch3f_trans_cosmo.nw



============================== echo of input deck ==============================
echo
start ch3f_trans_cosmo

title ch3f_trans_cosmo

geometry noautoz units angstrom nocenter
symmetry c1
c +1.00000000  +3.00000000  +5.00000000
f +1.00000000  +3.00000000  +6.38300000
h +2.02800000  +3.00000000  +4.65000000
h +0.48600000  +3.89000000  +4.65000000
h +0.48600000  +2.11000000  +4.65000000
end

BASIS "ao basis" PRINT
* library 6-311G
END

charge 0

dft
  direct
  xc b3lyp
end

cosmo
 dielec 78
end

property
  shielding
end
task dft property
================================================================================


                                         
                                         


              Northwest Computational Chemistry Package (NWChem) 6.3
              ------------------------------------------------------


                    Environmental Molecular Sciences Laboratory
                       Pacific Northwest National Laboratory
                                Richland, WA 99352

                              Copyright (c) 1994-2013
                       Pacific Northwest National Laboratory
                            Battelle Memorial Institute

             NWChem is an open-source computational chemistry package
                        distributed under the terms of the
                      Educational Community License (ECL) 2.0
             A copy of the license is included with this distribution
                              in the LICENSE.TXT file

                                  ACKNOWLEDGMENT
                                  --------------

            This software and its documentation were developed at the
            EMSL at Pacific Northwest National Laboratory, a multiprogram
            national laboratory, operated for the U.S. Department of Energy
            by Battelle under Contract Number DE-AC05-76RL01830. Support
            for this work was provided by the Department of Energy Office
            of Biological and Environmental Research, Office of Basic
            Energy Sciences, and the Office of Advanced Scientific Computing.


           Job information
           ---------------

    hostname        = arcen
    program         = /home/d3y133/nwchem-dev/nwchem-ref/QA/../bin/LINUX64/nwchem
    date            = Wed Aug 28 15:55:45 2013

    compiled        = Wed_Aug_28_14:31:40_2013
    source          = /home/d3y133/nwchem-dev/nwchem-ref
    nwchem branch   = Development
    nwchem revision = 24360
    ga revision     = 10388
    input           = ch3f_trans_cosmo.nw
    prefix          = ch3f_trans_cosmo.
    data base       = /home/d3y133/nwchem-dev/nwchem-ref/QA/scratchdir/ch3f_trans_cosmo.db
    status          = startup
    nproc           =        4
    time left       =     -1s



           Memory information
           ------------------

    heap     =   13107201 doubles =    100.0 Mbytes
    stack    =   13107201 doubles =    100.0 Mbytes
    global   =   26214400 doubles =    200.0 Mbytes (distinct from heap & stack)
    total    =   52428802 doubles =    400.0 Mbytes
    verify   = yes
    hardfail = no 


           Directory information
           ---------------------

  0 permanent = /home/d3y133/nwchem-dev/nwchem-ref/QA/scratchdir
  0 scratch   = /home/d3y133/nwchem-dev/nwchem-ref/QA/scratchdir




                                NWChem Input Module
                                -------------------


                                 ch3f_trans_cosmo
                                 ----------------

 Scaling coordinates for geometry "geometry" by  1.889725989
 (inverse scale =  0.529177249)

 Turning off AUTOSYM since
 SYMMETRY directive was detected!



                             Geometry "geometry" -> ""
                             -------------------------

 Output coordinates in angstroms (scale by  1.889725989 to convert to a.u.)

  No.       Tag          Charge          X              Y              Z
 ---- ---------------- ---------- -------------- -------------- --------------
    1 c                    6.0000     1.00000000     3.00000000     5.00000000
    2 f                    9.0000     1.00000000     3.00000000     6.38300000
    3 h                    1.0000     2.02800000     3.00000000     4.65000000
    4 h                    1.0000     0.48600000     3.89000000     4.65000000
    5 h                    1.0000     0.48600000     2.11000000     4.65000000

      Atomic Mass 
      ----------- 

      c                 12.000000
      f                 18.998400
      h                  1.007825


 Effective nuclear repulsion energy (a.u.)      37.4174025949

            Nuclear Dipole moment (a.u.) 
            ----------------------------
        X                 Y               Z
 ---------------- ---------------- ----------------
    34.0150677944   102.0452033833   191.6125460640


            XYZ format geometry
            -------------------
     5
 geometry
 c                     1.00000000     3.00000000     5.00000000
 f                     1.00000000     3.00000000     6.38300000
 h                     2.02800000     3.00000000     4.65000000
 h                     0.48600000     3.89000000     4.65000000
 h                     0.48600000     2.11000000     4.65000000

 ==============================================================================
                                internuclear distances
 ------------------------------------------------------------------------------
       center one      |      center two      | atomic units |  angstroms
 ------------------------------------------------------------------------------
    2 f                |   1 c                |     2.61349  |     1.38300
    3 h                |   1 c                |     2.05214  |     1.08595
    4 h                |   1 c                |     2.05172  |     1.08572
    5 h                |   1 c                |     2.05172  |     1.08572
 ------------------------------------------------------------------------------
                         number of included internuclear distances:          4
 ==============================================================================



 ==============================================================================
                                 internuclear angles
 ------------------------------------------------------------------------------
        center 1       |       center 2       |       center 3       |  degrees
 ------------------------------------------------------------------------------
    2 f                |   1 c                |   3 h                |   108.80
    2 f                |   1 c                |   4 h                |   108.81
    2 f                |   1 c                |   5 h                |   108.81
    3 h                |   1 c                |   4 h                |   110.14
    3 h                |   1 c                |   5 h                |   110.14
    4 h                |   1 c                |   5 h                |   110.12
 ------------------------------------------------------------------------------
                            number of included internuclear angles:          6
 ==============================================================================



  library name resolved from: environment
  library file name is: </home/d3y133/nwchem-dev/nwchem-ref/QA/../src/basis/libraries/>
  


 Summary of "ao basis" -> "" (cartesian)
 ------------------------------------------------------------------------------
       Tag                 Description            Shells   Functions and Types
 ---------------- ------------------------------  ------  ---------------------
 *                           6-311G                   on all atoms 


                              NWChem Property Module
                              ----------------------


                                 ch3f_trans_cosmo

  itol2e modified to match energy
  convergence criterion.

                                 NWChem DFT Module
                                 -----------------


                                 ch3f_trans_cosmo


                      Basis "ao basis" -> "ao basis" (cartesian)
                      -----
  c (Carbon)
  ----------
            Exponent  Coefficients 
       -------------- ---------------------------------------------------------
  1 S  4.56324000E+03  0.001967
  1 S  6.82024000E+02  0.015231
  1 S  1.54973000E+02  0.076127
  1 S  4.44553000E+01  0.260801
  1 S  1.30290000E+01  0.616462
  1 S  1.82773000E+00  0.221006

  2 S  2.09642000E+01  0.114660
  2 S  4.80331000E+00  0.919999
  2 S  1.45933000E+00 -0.003031

  3 P  2.09642000E+01  0.040249
  3 P  4.80331000E+00  0.237594
  3 P  1.45933000E+00  0.815854

  4 S  4.83456000E-01  1.000000

  5 P  4.83456000E-01  1.000000

  6 S  1.45585000E-01  1.000000

  7 P  1.45585000E-01  1.000000

  f (Fluorine)
  ------------
            Exponent  Coefficients 
       -------------- ---------------------------------------------------------
  1 S  1.14271000E+04  0.001801
  1 S  1.72235000E+03  0.013742
  1 S  3.95746000E+02  0.068133
  1 S  1.15139000E+02  0.233325
  1 S  3.36026000E+01  0.589086
  1 S  4.91901000E+00  0.299505

  2 S  5.54441000E+01  0.114536
  2 S  1.26323000E+01  0.920512
  2 S  3.71756000E+00 -0.003378

  3 P  5.54441000E+01  0.035461
  3 P  1.26323000E+01  0.237451
  3 P  3.71756000E+00  0.820458

  4 S  1.16545000E+00  1.000000

  5 P  1.16545000E+00  1.000000

  6 S  3.21892000E-01  1.000000

  7 P  3.21892000E-01  1.000000

  h (Hydrogen)
  ------------
            Exponent  Coefficients 
       -------------- ---------------------------------------------------------
  1 S  3.38650000E+01  0.025494
  1 S  5.09479000E+00  0.190373
  1 S  1.15879000E+00  0.852161

  2 S  3.25840000E-01  1.000000

  3 S  1.02741000E-01  1.000000



 Summary of "ao basis" -> "ao basis" (cartesian)
 ------------------------------------------------------------------------------
       Tag                 Description            Shells   Functions and Types
 ---------------- ------------------------------  ------  ---------------------
 c                           6-311G                  7       13   4s3p
 f                           6-311G                  7       13   4s3p
 h                           6-311G                  3        3   3s



          ---------------
          -cosmo- solvent
          ---------------
 dielectric constant -eps-  =  78.00
 charge screening approach  =   2
 screen = (eps-1)/(eps    ) =   0.98718
 -lineq- algorithm          =   1
 -bem- low  level           =   2
 -bem- high level           =   4
 -bem- from -octahedral-
 solvent radius (ang.)      =   0.500
 atomic radii = 
 --------------
    1  6.000  2.000
    2  9.000  1.720
    3  1.000  1.300
    4  1.000  1.300
    5  1.000  1.300

 solvent accessible surface
 --------------------------

 ---------- ATOMIC COORDINATES (A.U.) ------------ VDWR(ANG.) --
     1    1.88972599    5.66917797    9.44862994     2.000
     2    1.88972599    5.66917797   12.06212099     1.720
     3    3.83236430    5.66917797    8.78722585     1.300
     4    0.91840683    7.35103410    8.78722585     1.300
     5    0.91840683    3.98732184    8.78722585     1.300
 number of segments per atom =         32
 number of   points per atom =        640
 atom (   nspa,  nppa )
 ----------------------
    1 (     26,   208 )     208
    2 (     24,   288 )     288
    3 (     14,   130 )     130
    4 (     13,   140 )     140
    5 (     13,   140 )     140
 number of -cosmo- surface points =       90
 molecular surface =     46.671 angstrom**2
 molecular volume  =     26.378 angstrom**3
 G(cav/disp)       =      1.093 kcal/mol
 ...... end of -cosmo- initialization ......


  Caching 1-el integrals 
  itol2e modified to match energy
  convergence criterion.

            General Information
            -------------------
          SCF calculation type: DFT
          Wavefunction type:  closed shell.
          No. of atoms     :     5
          No. of electrons :    18
           Alpha electrons :     9
            Beta electrons :     9
          Charge           :     0
          Spin multiplicity:     1
          Use of symmetry is: off; symmetry adaption is: off
          Maximum number of iterations:  30
          This is a Direct SCF calculation.
          AO basis - number of functions:    35
                     number of shells:    23
          Convergence on energy requested: 1.00D-07
          Convergence on density requested: 1.00D-05
          Convergence on gradient requested: 5.00D-04

              XC Information
              --------------
                         B3LYP Method XC Potential
                     Hartree-Fock (Exact) Exchange  0.200          
                        Slater Exchange Functional  0.800 local    
                    Becke 1988 Exchange Functional  0.720 non-local
              Lee-Yang-Parr Correlation Functional  0.810          
                  VWN I RPA Correlation Functional  0.190 local    

             Grid Information
             ----------------
          Grid used for XC integration:  fine      
          Radial quadrature: Mura-Knowles        
          Angular quadrature: Lebedev. 
          Tag              B.-S. Rad. Rad. Pts. Rad. Cut. Ang. Pts.
          ---              ---------- --------- --------- ---------
          c                   0.70       70           7.0       590
          f                   0.50       70           7.0       590
          h                   0.35       60           8.0       590
          Grid pruning is: on 
          Number of quadrature shells:   320
          Spatial weights used:  Erf1

          Convergence Information
          -----------------------
          Convergence aids based upon iterative change in 
          total energy or number of iterations. 
          Levelshifting, if invoked, occurs when the 
          HOMO/LUMO gap drops below (HL_TOL): 1.00D-02
          DIIS, if invoked, will attempt to extrapolate 
          using up to (NFOCK): 10 stored Fock matrices.

                    Damping( 0%)  Levelshifting(0.5)       DIIS
                  --------------- ------------------- ---------------
          dE  on:    start            ASAP                start   
          dE off:    2 iters         30 iters            30 iters 


      Screening Tolerance Information
      -------------------------------
          Density screening/tol_rho: 1.00D-11
          AO Gaussian exp screening on grid/accAOfunc:  16
          CD Gaussian exp screening on grid/accCDfunc:  20
          XC Gaussian exp screening on grid/accXCfunc:  20
          Schwarz screening/accCoul: 1.00D-08


      Superposition of Atomic Density Guess
      -------------------------------------

 Sum of atomic energies:        -138.57325452

      Non-variational initial energy
      ------------------------------

 Total energy =    -139.229769
 1-e energy   =    -264.952728
 2-e energy   =      88.305556
 HOMO         =      -0.441631
 LUMO         =       0.112239

   Time after variat. SCF:      0.1
   Time prior to 1st pass:      0.1

 Grid_pts file          = /home/d3y133/nwchem-dev/nwchem-ref/QA/scratchdir/ch3f_trans_cosmo.gridpts.0
 Record size in doubles =  12289        No. of grid_pts per rec  =   3070
 Max. records in memory =     18        Max. recs in file   =      1743


           Memory utilization after 1st SCF pass: 
           Heap Space remaining (MW):       12.88            12883683
          Stack Space remaining (MW):       13.11            13106861

   convergence    iter        energy       DeltaE   RMS-Dens  Diis-err    time
 ---------------- ----- ----------------- --------- --------- ---------  ------
     COSMO gas phase
 d= 0,ls=0.0,diis     1   -139.7045933844 -1.77D+02  1.78D-02  5.05D-01     0.4
 d= 0,ls=0.0,diis     2   -139.6932246819  1.14D-02  1.02D-02  6.68D-01     0.7
 d= 0,ls=0.0,diis     3   -139.7494357093 -5.62D-02  1.59D-03  3.42D-02     1.0
 d= 0,ls=0.0,diis     4   -139.7513770022 -1.94D-03  6.05D-04  1.59D-03     1.3
 d= 0,ls=0.0,diis     5   -139.7515473792 -1.70D-04  1.23D-04  7.02D-05     1.6
  Resetting Diis
 d= 0,ls=0.0,diis     6   -139.7515542172 -6.84D-06  5.14D-06  8.51D-08     1.9
 d= 0,ls=0.0,diis     7   -139.7515542265 -9.24D-09  3.97D-07  1.74D-10     2.2

           Memory utilization after 1st SCF pass: 
           Heap Space remaining (MW):       12.88            12883323
          Stack Space remaining (MW):       13.11            13106861

   convergence    iter        energy       DeltaE   RMS-Dens  Diis-err    time
 ---------------- ----- ----------------- --------- --------- ---------  ------
     COSMO solvation phase
 d= 0,ls=0.0,diis     1   -139.7564656011 -4.91D-03  2.58D-03  1.89D-03     2.6
 d= 0,ls=0.0,diis     2   -139.7569775742 -5.12D-04  4.88D-04  1.49D-03     2.9
 d= 0,ls=0.0,diis     3   -139.7570755331 -9.80D-05  1.48D-04  2.21D-04     3.3
 d= 0,ls=0.0,diis     4   -139.7570886992 -1.32D-05  4.51D-05  4.83D-06     3.6
 d= 0,ls=0.0,diis     5   -139.7570891122 -4.13D-07  1.53D-05  1.57D-06     4.0
 d= 0,ls=0.0,diis     6   -139.7570892958 -1.84D-07  6.75D-07  1.10D-09     4.3
 d= 0,ls=0.0,diis     7   -139.7570892968 -9.85D-10  4.87D-08  4.61D-12     4.6


         Total DFT energy =     -139.757089296773
      One electron energy =     -266.782669643032
           Coulomb energy =      106.562559077631
    Exchange-Corr. energy =      -17.042999430598
 Nuclear repulsion energy =       37.417402594906

 Numeric. integr. density =       18.000000076398

     Total iterative time =      4.6s


                  COSMO solvation results
                  -----------------------
  
                 gas phase energy =      -139.7515542265
                 sol phase energy =      -139.7570892968
 (electrostatic) solvation energy =         0.0055350703 (    3.47 kcal/mol)

                       DFT Final Molecular Orbital Analysis
                       ------------------------------------

 Vector    1  Occ=2.000000D+00  E=-2.464798D+01
              MO Center=  1.0D+00,  3.0D+00,  6.4D+00, r^2= 1.2D-02
   Bfn.  Coefficient  Atom+Function         Bfn.  Coefficient  Atom+Function  
  ----- ------------  ---------------      ----- ------------  ---------------
    14      0.547666  2 F  s                 15      0.471992  2 F  s          

 Vector    2  Occ=2.000000D+00  E=-1.023432D+01
              MO Center=  1.0D+00,  3.0D+00,  5.0D+00, r^2= 2.8D-02
   Bfn.  Coefficient  Atom+Function         Bfn.  Coefficient  Atom+Function  
  ----- ------------  ---------------      ----- ------------  ---------------
     1      0.562835  1 C  s                  2      0.464021  1 C  s          

 Vector    3  Occ=2.000000D+00  E=-1.196945D+00
              MO Center=  1.0D+00,  3.0D+00,  6.2D+00, r^2= 4.2D-01
   Bfn.  Coefficient  Atom+Function         Bfn.  Coefficient  Atom+Function  
  ----- ------------  ---------------      ----- ------------  ---------------
    19      0.575302  2 F  s                 23      0.461009  2 F  s          
    15     -0.194554  2 F  s          

 Vector    4  Occ=2.000000D+00  E=-7.014580D-01
              MO Center=  1.0D+00,  3.0D+00,  5.1D+00, r^2= 1.3D+00
   Bfn.  Coefficient  Atom+Function         Bfn.  Coefficient  Atom+Function  
  ----- ------------  ---------------      ----- ------------  ---------------
     6      0.466522  1 C  s                 10      0.311510  1 C  s          
    23     -0.221275  2 F  s                 19     -0.191619  2 F  s          
     2     -0.166939  1 C  s          

 Vector    5  Occ=2.000000D+00  E=-4.854957D-01
              MO Center=  9.6D-01,  3.0D+00,  5.9D+00, r^2= 1.3D+00
   Bfn.  Coefficient  Atom+Function         Bfn.  Coefficient  Atom+Function  
  ----- ------------  ---------------      ----- ------------  ---------------
    22      0.353252  2 F  pz                26      0.325465  2 F  pz         
    18      0.247536  2 F  pz                 9     -0.242974  1 C  pz         
     5     -0.154959  1 C  pz         

 Vector    6  Occ=2.000000D+00  E=-4.850061D-01
              MO Center=  8.9D-01,  3.0D+00,  5.5D+00, r^2= 1.4D+00
   Bfn.  Coefficient  Atom+Function         Bfn.  Coefficient  Atom+Function  
  ----- ------------  ---------------      ----- ------------  ---------------
    21      0.272978  2 F  py                 8      0.266922  1 C  py         
    25      0.244637  2 F  py                17      0.192158  2 F  py         
    12      0.172982  1 C  py                 4      0.168969  1 C  py         

 Vector    7  Occ=2.000000D+00  E=-4.849082D-01
              MO Center=  1.1D+00,  3.0D+00,  5.5D+00, r^2= 1.4D+00
   Bfn.  Coefficient  Atom+Function         Bfn.  Coefficient  Atom+Function  
  ----- ------------  ---------------      ----- ------------  ---------------
    20      0.271386  2 F  px                 7      0.265133  1 C  px         
    24      0.243178  2 F  px                16      0.191033  2 F  px         
    11      0.172165  1 C  px                 3      0.167754  1 C  px         

 Vector    8  Occ=2.000000D+00  E=-3.447479D-01
              MO Center=  8.7D-01,  3.0D+00,  5.7D+00, r^2= 1.5D+00
   Bfn.  Coefficient  Atom+Function         Bfn.  Coefficient  Atom+Function  
  ----- ------------  ---------------      ----- ------------  ---------------
    25      0.380320  2 F  py                21      0.356454  2 F  py         
    17      0.257775  2 F  py                 8     -0.203960  1 C  py         
    31     -0.193832  4 H  s                 34      0.193832  5 H  s          

 Vector    9  Occ=2.000000D+00  E=-3.446300D-01
              MO Center=  1.1D+00,  3.0D+00,  5.7D+00, r^2= 1.5D+00
   Bfn.  Coefficient  Atom+Function         Bfn.  Coefficient  Atom+Function  
  ----- ------------  ---------------      ----- ------------  ---------------
    24      0.380248  2 F  px                20      0.356276  2 F  px         
    16      0.257661  2 F  px                28     -0.223215  3 H  s          
     7     -0.204407  1 C  px         

 Vector   10  Occ=0.000000D+00  E= 6.044734D-02
              MO Center=  9.9D-01,  3.0D+00,  4.6D+00, r^2= 4.7D+00
   Bfn.  Coefficient  Atom+Function         Bfn.  Coefficient  Atom+Function  
  ----- ------------  ---------------      ----- ------------  ---------------
    10      1.821850  1 C  s                 32     -0.916755  4 H  s          
    35     -0.916755  5 H  s                 29     -0.907152  3 H  s          
    13     -0.498756  1 C  pz                 6      0.183584  1 C  s          

 Vector   11  Occ=0.000000D+00  E= 1.006005D-01
              MO Center=  1.0D+00,  3.0D+00,  5.0D+00, r^2= 2.3D+00
   Bfn.  Coefficient  Atom+Function         Bfn.  Coefficient  Atom+Function  
  ----- ------------  ---------------      ----- ------------  ---------------
    13      1.062505  1 C  pz                23     -0.827334  2 F  s          
    10      0.804904  1 C  s                 26      0.497904  2 F  pz         
     9      0.274195  1 C  pz                22      0.212163  2 F  pz         
     6      0.193295  1 C  s                 19     -0.169383  2 F  s          
     5      0.164452  1 C  pz                32     -0.164934  4 H  s          

 Vector   12  Occ=0.000000D+00  E= 1.191443D-01
              MO Center=  2.7D-01,  3.0D+00,  4.5D+00, r^2= 4.3D+00
   Bfn.  Coefficient  Atom+Function         Bfn.  Coefficient  Atom+Function  
  ----- ------------  ---------------      ----- ------------  ---------------
    32      1.719178  4 H  s                 35     -1.719176  5 H  s          
    12     -1.079024  1 C  py                 8     -0.254046  1 C  py         
     4     -0.176434  1 C  py         

 Vector   13  Occ=0.000000D+00  E= 1.194049D-01
              MO Center=  1.7D+00,  3.0D+00,  4.5D+00, r^2= 4.3D+00
   Bfn.  Coefficient  Atom+Function         Bfn.  Coefficient  Atom+Function  
  ----- ------------  ---------------      ----- ------------  ---------------
    29      1.988525  3 H  s                 11     -1.078140  1 C  px         
    32     -0.989113  4 H  s                 35     -0.989116  5 H  s          
     7     -0.253775  1 C  px                 3     -0.176353  1 C  px         

 Vector   14  Occ=0.000000D+00  E= 3.123144D-01
              MO Center=  1.2D+00,  3.0D+00,  5.0D+00, r^2= 2.9D+00
   Bfn.  Coefficient  Atom+Function         Bfn.  Coefficient  Atom+Function  
  ----- ------------  ---------------      ----- ------------  ---------------
    12      1.587505  1 C  py                31     -1.134251  4 H  s          
    34      1.134503  5 H  s                 25     -0.270252  2 F  py         
    32      0.176714  4 H  s                 35     -0.176752  5 H  s          

 Vector   15  Occ=0.000000D+00  E= 3.123164D-01
              MO Center=  7.8D-01,  3.0D+00,  5.0D+00, r^2= 2.9D+00
   Bfn.  Coefficient  Atom+Function         Bfn.  Coefficient  Atom+Function  
  ----- ------------  ---------------      ----- ------------  ---------------
    11      1.589626  1 C  px                28     -1.308769  3 H  s          
    31      0.656292  4 H  s                 34      0.655857  5 H  s          
    24     -0.270489  2 F  px                29      0.201729  3 H  s          

 Vector   16  Occ=0.000000D+00  E= 4.314671D-01
              MO Center=  1.0D+00,  3.0D+00,  5.0D+00, r^2= 2.0D+00
   Bfn.  Coefficient  Atom+Function         Bfn.  Coefficient  Atom+Function  
  ----- ------------  ---------------      ----- ------------  ---------------
    13      1.220816  1 C  pz                 9     -0.790730  1 C  pz         
     6     -0.517336  1 C  s                 28      0.413708  3 H  s          
    31      0.412834  4 H  s                 34      0.412834  5 H  s          
    10     -0.385681  1 C  s                 23     -0.307903  2 F  s          
     5     -0.269828  1 C  pz                22     -0.235457  2 F  pz         

 Vector   17  Occ=0.000000D+00  E= 4.829076D-01
              MO Center=  1.0D+00,  3.0D+00,  4.9D+00, r^2= 2.5D+00
   Bfn.  Coefficient  Atom+Function         Bfn.  Coefficient  Atom+Function  
  ----- ------------  ---------------      ----- ------------  ---------------
    10      1.803322  1 C  s                 28     -1.164081  3 H  s          
    31     -1.164445  4 H  s                 34     -1.164445  5 H  s          
     9     -0.472204  1 C  pz                23     -0.441663  2 F  s          
    32      0.258489  4 H  s                 35      0.258489  5 H  s          
    29      0.254278  3 H  s                 13      0.209949  1 C  pz         

 Vector   18  Occ=0.000000D+00  E= 5.642888D-01
              MO Center=  7.4D-01,  3.0D+00,  4.8D+00, r^2= 3.0D+00
   Bfn.  Coefficient  Atom+Function         Bfn.  Coefficient  Atom+Function  
  ----- ------------  ---------------      ----- ------------  ---------------
    12      1.918561  1 C  py                32     -1.676051  4 H  s          
    35      1.676053  5 H  s                  8     -1.045311  1 C  py         
    31      0.459368  4 H  s                 34     -0.459368  5 H  s          
     4     -0.273469  1 C  py         

 Vector   19  Occ=0.000000D+00  E= 5.643741D-01
              MO Center=  1.3D+00,  3.0D+00,  4.8D+00, r^2= 3.0D+00
   Bfn.  Coefficient  Atom+Function         Bfn.  Coefficient  Atom+Function  
  ----- ------------  ---------------      ----- ------------  ---------------
    29     -1.934710  3 H  s                 11      1.917759  1 C  px         
     7     -1.045199  1 C  px                32      0.967588  4 H  s          
    35      0.967585  5 H  s                 28      0.532493  3 H  s          
     3     -0.273510  1 C  px                31     -0.263865  4 H  s          
    34     -0.263865  5 H  s          


 center of mass
 --------------
 x =   1.88972599 y =   5.66917797 z =  10.84927025

 moments of inertia (a.u.)
 ------------------
          70.045742832072           0.000000000000           0.000000000000
           0.000000000000          70.049255463773           0.000000000000
           0.000000000000           0.000000000000          11.406609230869

     Multipole analysis of the density
     ---------------------------------

     L   x y z        total         alpha         beta         nuclear
     -   - - -        -----         -----         ----         -------
     0   0 0 0      0.000000     -9.000000     -9.000000     18.000000

     1   1 0 0      0.002907    -17.006080    -17.006080     34.015068
     1   0 1 0      0.000000    -51.022602    -51.022602    102.045203
     1   0 0 1     -0.983103    -96.297825    -96.297825    191.612546

     2   2 0 0     -8.687266    -39.313594    -39.313594     69.939923
     2   1 1 0      0.016481    -96.410496    -96.410496    192.837473
     2   1 0 1     -1.832656   -181.963932   -181.963932    362.095208
     2   0 2 0     -8.704928   -296.437313   -296.437313    584.169699
     2   0 1 1     -5.573386   -545.929505   -545.929505   1086.285624
     2   0 0 2    -30.194409  -1053.476467  -1053.476467   2076.758525


          -----------------------------------------
          Chemical Shielding Tensors (GIAO, in ppm)
          -----------------------------------------

                                NWChem CPHF Module
                                ------------------



          ---------------
          -cosmo- solvent
          ---------------
 dielectric constant -eps-  =  78.00
 charge screening approach  =   2
 screen = (eps-1)/(eps    ) =   0.98718
 -lineq- algorithm          =   1
 -bem- low  level           =   2
 -bem- high level           =   4
 -bem- from -octahedral-
 solvent radius (ang.)      =   0.500
 atomic radii = 
 --------------
    1  6.000  2.000
    2  9.000  1.720
    3  1.000  1.300
    4  1.000  1.300
    5  1.000  1.300

 solvent accessible surface
 --------------------------

 ---------- ATOMIC COORDINATES (A.U.) ------------ VDWR(ANG.) --
     1    1.88972599    5.66917797    9.44862994     2.000
     2    1.88972599    5.66917797   12.06212099     1.720
     3    3.83236430    5.66917797    8.78722585     1.300
     4    0.91840683    7.35103410    8.78722585     1.300
     5    0.91840683    3.98732184    8.78722585     1.300
 number of segments per atom =         32
 number of   points per atom =        640
 atom (   nspa,  nppa )
 ----------------------
    1 (     26,   208 )     208
    2 (     24,   288 )     288
    3 (     14,   130 )     130
    4 (     13,   140 )     140
    5 (     13,   140 )     140
 number of -cosmo- surface points =       90
 molecular surface =     46.671 angstrom**2
 molecular volume  =     26.378 angstrom**3
 G(cav/disp)       =      1.093 kcal/mol
 ...... end of -cosmo- initialization ......


  scftype          =     RHF 
  nclosed          =        9
  nopen            =        0
  variables        =      234
  # of vectors     =        3
  tolerance        = 0.10D-03
  level shift      = 0.00D+00
  max iterations   =       50
  max subspace     =       30

 SCF residual:   1.947001185750348E-007


Iterative solution of linear equations
  No. of variables      234
  No. of equations        3
  Maximum subspace       30
        Iterations       50
       Convergence  1.0D-04
        Start time      8.4


   iter   nsub   residual    time
   ----  ------  --------  ---------
     1      3    8.07D-01       9.2
     2      6    2.64D-02      10.0
     3      9    6.99D-04      10.8
     4     12    6.24D-05      11.6

 Wrote CPHF data to /home/d3y133/nwchem-dev/nwchem-ref/QA/scratchdir/ch3f_trans_cosmo.shieldcphf

 Calc. par tensor-> nonrel
      Atom:    1  C 
        Diamagnetic
    243.2924      0.0000      0.0136
      0.0000    243.3463      0.0000
      0.0136      0.0000    258.3927

        Paramagnetic
   -160.5519     -0.0009     -0.0158
     -0.0009   -160.6378      0.0007
     -0.0158      0.0007    -68.6681

        Total Shielding Tensor
     82.7405     -0.0009     -0.0022
     -0.0009     82.7086      0.0007
     -0.0022      0.0007    189.7246

           isotropic =     118.3912
          anisotropy =     107.0001

          Principal Components and Axis System
                 1           2           3
              189.7246     82.7406     82.7085

      1         0.0000      0.9996      0.0275
      2         0.0000     -0.0275      0.9996
      3         1.0000      0.0000      0.0000



      Atom:    2  F 
        Diamagnetic
    466.1058      0.0000      0.0046
      0.0000    466.1022      0.0000
      0.0046      0.0000    494.0060

        Paramagnetic
     29.2051      0.0051     -0.0067
      0.0051     29.6165      0.0000
     -0.0067      0.0000    -76.3418

        Total Shielding Tensor
    495.3109      0.0051     -0.0020
      0.0051    495.7187      0.0000
     -0.0020      0.0000    417.6642

           isotropic =     469.5646
          anisotropy =      39.2313

          Principal Components and Axis System
                 1           2           3
              495.7188    495.3108    417.6642

      1         0.0124      0.9999      0.0000
      2         0.9999     -0.0124      0.0000
      3         0.0000      0.0000      1.0000



      Atom:    3  H 
        Diamagnetic
     35.4565      0.0000     -6.1046
      0.0000     22.8645      0.0000
     -6.1046      0.0000     28.6607

        Paramagnetic
     -7.2557      0.0000      3.3297
      0.0000      2.3709      0.0000
      3.3297      0.0000      2.8204

        Total Shielding Tensor
     28.2008      0.0000     -2.7749
      0.0000     25.2355      0.0000
     -2.7749      0.0000     31.4811

           isotropic =      28.3058
          anisotropy =       7.1378

          Principal Components and Axis System
                 1           2           3
               33.0643     26.6176     25.2355

      1        -0.4956      0.8686      0.0000
      2         0.0000      0.0000      1.0000
      3         0.8686      0.4956      0.0000



      Atom:    4  H 
        Diamagnetic
     26.0570     -5.4453      3.0516
     -5.4453     32.3528     -5.2820
      3.0516     -5.2820     28.7168

        Paramagnetic
     -0.0455      4.1693     -1.6648
      4.1693     -4.8650      2.8864
     -1.6648      2.8864      2.8199

        Total Shielding Tensor
     26.0116     -1.2761      1.3868
     -1.2761     27.4878     -2.3956
      1.3868     -2.3956     31.5367

           isotropic =      28.3454
          anisotropy =       7.1411

          Principal Components and Axis System
                 1           2           3
               33.1061     26.6545     25.2755

      1         0.2468     -0.4333      0.8668
      2        -0.4270      0.7543      0.4987
      3         0.8699      0.4932     -0.0012



      Atom:    5  H 
        Diamagnetic
     26.0570      5.4453      3.0516
      5.4453     32.3528      5.2820
      3.0516      5.2820     28.7168

        Paramagnetic
     -0.0455     -4.1693     -1.6648
     -4.1693     -4.8650     -2.8864
     -1.6648     -2.8864      2.8199

        Total Shielding Tensor
     26.0115      1.2760      1.3868
      1.2760     27.4878      2.3956
      1.3868      2.3956     31.5367

           isotropic =      28.3453
          anisotropy =       7.1411

          Principal Components and Axis System
                 1           2           3
               33.1061     26.6545     25.2755

      1         0.2468      0.4333      0.8668
      2         0.4270      0.7543     -0.4987
      3         0.8699     -0.4932     -0.0012




 Task  times  cpu:       10.0s     wall:       10.8s
 Summary of allocated global arrays
-----------------------------------
  No active global arrays



                         GA Statistics for process    0
                         ------------------------------

       create   destroy   get      put      acc     scatter   gather  read&inc
calls:  685      685     2.32e+05 1798     9.98e+04  136        0      721     
number of processes/call 1.14e+00 1.75e+00 1.23e+00 2.31e+00 0.00e+00
bytes total:             2.69e+07 2.36e+06 1.74e+07 4.07e+05 0.00e+00 5.77e+03
bytes remote:            1.40e+07 6.18e+05 1.09e+07 -2.72e+05 0.00e+00 0.00e+00
Max memory consumed for GA by this process: 216800 bytes
MA_summarize_allocated_blocks: starting scan ...
MA_summarize_allocated_blocks: scan completed: 0 heap blocks, 0 stack blocks
MA usage statistics:

	allocation statistics:
					      heap	     stack
					      ----	     -----
	current number of blocks	         0	         0
	maximum number of blocks	        29	        48
	current total bytes		         0	         0
	maximum total bytes		   1790928	  22511376
	maximum total K-bytes		      1791	     22512
	maximum total M-bytes		         2	        23


                                NWChem Input Module
                                -------------------





                                     CITATION
                                     --------
                Please cite the following reference when publishing
                           results obtained with NWChem:

                 M. Valiev, E.J. Bylaska, N. Govind, K. Kowalski,
              T.P. Straatsma, H.J.J. van Dam, D. Wang, J. Nieplocha,
                        E. Apra, T.L. Windus, W.A. de Jong
                 "NWChem: a comprehensive and scalable open-source
                  solution for large scale molecular simulations"
                      Comput. Phys. Commun. 181, 1477 (2010)
                           doi:10.1016/j.cpc.2010.04.018

                              AUTHORS & CONTRIBUTORS
                              ----------------------
          E. Apra, E. J. Bylaska, W. A. de Jong, N. Govind, K. Kowalski,
       T. P. Straatsma, M. Valiev, H. J. J. van Dam, D. Wang, T. L. Windus,
        J. Hammond, J. Autschbach, K. Bhaskaran-Nair, J. Brabec, K. Lopata,
     F. Aquino, S. Hirata, M. T. Hackler, T. Risthaus, J. Mullin, P. Nichols,
      R. Peverati, J. Pittner, Y. Zhao, P.-D. Fan, R. J. Harrison, M. Dupuis,
     D. Silverstein, D. M. A. Smith, J. Nieplocha, V. Tipparaju, M. Krishnan,
       B. E. Van Kuiken, A. Vazquez-Mayagoitia, L. Jensen, M. Swart, Q. Wu,
   T. Van Voorhis, A. A. Auer, M. Nooijen,  L. D. Crosby, E. Brown, G. Cisneros,
      G. I. Fann, H. Fruchtl, J. Garza, K. Hirao, R. Kendall, J. A. Nichols,
   K. Tsemekhman, K. Wolinski, J. Anchell, D. Bernholdt, P. Borowski, T. Clark,
       D. Clerc, H. Dachsel, M. Deegan, K. Dyall, D. Elwood, E. Glendening,
    M. Gutowski, A. Hess, J. Jaffe, B. Johnson, J. Ju, R. Kobayashi, R. Kutteh,
    Z. Lin, R. Littlefield, X. Long, B. Meng, T. Nakajima, S. Niu, L. Pollack,
      M. Rosing, K. Glaesemann, G. Sandrone, M. Stave, H. Taylor, G. Thomas,
                       J. H. van Lenthe, A. Wong, Z. Zhang.

 Total times  cpu:       10.0s     wall:       11.9s
