 argument  1 = ch3f_trans_cosmo.nw



============================== echo of input deck ==============================
echo
start ch3f_trans_cosmo

title ch3f_trans_cosmo

geometry noautoz units angstrom nocenter
symmetry c1
c +1.00000000  +3.00000000  +5.00000000
f +1.00000000  +3.00000000  +6.38300000
h +2.02800000  +3.00000000  +4.65000000
h +0.48600000  +3.89000000  +4.65000000
h +0.48600000  +2.11000000  +4.65000000
end

BASIS "ao basis" PRINT
* library 6-311G
END

charge 0

dft
  direct
  xc b3lyp
end

cosmo
 dielec 78
end

property
  shielding
end
task dft property
================================================================================


                                         
                                         


             Northwest Computational Chemistry Package (NWChem) 6.1.1
             --------------------------------------------------------


                    Environmental Molecular Sciences Laboratory
                       Pacific Northwest National Laboratory
                                Richland, WA 99352

                              Copyright (c) 1994-2012
                       Pacific Northwest National Laboratory
                            Battelle Memorial Institute

             NWChem is an open-source computational chemistry package
                        distributed under the terms of the
                      Educational Community License (ECL) 2.0
             A copy of the license is included with this distribution
                              in the LICENSE.TXT file

                                  ACKNOWLEDGMENT
                                  --------------

            This software and its documentation were developed at the
            EMSL at Pacific Northwest National Laboratory, a multiprogram
            national laboratory, operated for the U.S. Department of Energy
            by Battelle under Contract Number DE-AC05-76RL01830. Support
            for this work was provided by the Department of Energy Office
            of Biological and Environmental Research, Office of Basic
            Energy Sciences, and the Office of Advanced Scientific Computing.


           Job information
           ---------------

    hostname        = orion
    program         = ../../../bin/LINUX64/nwchem
    date            = Thu May  2 07:09:04 2013

    compiled        = Thu_May_02_07:01:20_2013
    source          = /home/niri/nwchem/nwchem-trunk
    nwchem branch   = Development
    nwchem revision = 24145
    ga revision     = 10360
    input           = ch3f_trans_cosmo.nw
    prefix          = ch3f_trans_cosmo.
    data base       = ./ch3f_trans_cosmo.db
    status          = startup
    nproc           =        4
    time left       =     -1s



           Memory information
           ------------------

    heap     =   13107201 doubles =    100.0 Mbytes
    stack    =   13107201 doubles =    100.0 Mbytes
    global   =   26214400 doubles =    200.0 Mbytes (distinct from heap & stack)
    total    =   52428802 doubles =    400.0 Mbytes
    verify   = yes
    hardfail = no 


           Directory information
           ---------------------

  0 permanent = .
  0 scratch   = .




                                NWChem Input Module
                                -------------------


                                 ch3f_trans_cosmo
                                 ----------------

 Scaling coordinates for geometry "geometry" by  1.889725989
 (inverse scale =  0.529177249)

 Turning off AUTOSYM since
 SYMMETRY directive was detected!



                             Geometry "geometry" -> ""
                             -------------------------

 Output coordinates in angstroms (scale by  1.889725989 to convert to a.u.)

  No.       Tag          Charge          X              Y              Z
 ---- ---------------- ---------- -------------- -------------- --------------
    1 c                    6.0000     1.00000000     3.00000000     5.00000000
    2 f                    9.0000     1.00000000     3.00000000     6.38300000
    3 h                    1.0000     2.02800000     3.00000000     4.65000000
    4 h                    1.0000     0.48600000     3.89000000     4.65000000
    5 h                    1.0000     0.48600000     2.11000000     4.65000000

      Atomic Mass 
      ----------- 

      c                 12.000000
      f                 18.998400
      h                  1.007825


 Effective nuclear repulsion energy (a.u.)      37.4174025949

            Nuclear Dipole moment (a.u.) 
            ----------------------------
        X                 Y               Z
 ---------------- ---------------- ----------------
    34.0150677944   102.0452033833   191.6125460640


            XYZ format geometry
            -------------------
     5
 geometry
 c                     1.00000000     3.00000000     5.00000000
 f                     1.00000000     3.00000000     6.38300000
 h                     2.02800000     3.00000000     4.65000000
 h                     0.48600000     3.89000000     4.65000000
 h                     0.48600000     2.11000000     4.65000000

 ==============================================================================
                                internuclear distances
 ------------------------------------------------------------------------------
       center one      |      center two      | atomic units |  angstroms
 ------------------------------------------------------------------------------
    2 f                |   1 c                |     2.61349  |     1.38300
    3 h                |   1 c                |     2.05214  |     1.08595
    4 h                |   1 c                |     2.05172  |     1.08572
    5 h                |   1 c                |     2.05172  |     1.08572
 ------------------------------------------------------------------------------
                         number of included internuclear distances:          4
 ==============================================================================



 ==============================================================================
                                 internuclear angles
 ------------------------------------------------------------------------------
        center 1       |       center 2       |       center 3       |  degrees
 ------------------------------------------------------------------------------
    2 f                |   1 c                |   3 h                |   108.80
    2 f                |   1 c                |   4 h                |   108.81
    2 f                |   1 c                |   5 h                |   108.81
    3 h                |   1 c                |   4 h                |   110.14
    3 h                |   1 c                |   5 h                |   110.14
    4 h                |   1 c                |   5 h                |   110.12
 ------------------------------------------------------------------------------
                            number of included internuclear angles:          6
 ==============================================================================



  library name resolved from: environment
  library file name is: </home/niri/nwchem/nwchem-trunk/src/basis/libraries/>
  


 Summary of "ao basis" -> "" (cartesian)
 ------------------------------------------------------------------------------
       Tag                 Description            Shells   Functions and Types
 ---------------- ------------------------------  ------  ---------------------
 *                           6-311G                   on all atoms 


                              NWChem Property Module
                              ----------------------


                                 ch3f_trans_cosmo

  itol2e modified to match energy
  convergence criterion.

                                 NWChem DFT Module
                                 -----------------


                                 ch3f_trans_cosmo


                      Basis "ao basis" -> "ao basis" (cartesian)
                      -----
  c (Carbon)
  ----------
            Exponent  Coefficients 
       -------------- ---------------------------------------------------------
  1 S  4.56324000E+03  0.001967
  1 S  6.82024000E+02  0.015231
  1 S  1.54973000E+02  0.076127
  1 S  4.44553000E+01  0.260801
  1 S  1.30290000E+01  0.616462
  1 S  1.82773000E+00  0.221006

  2 S  2.09642000E+01  0.114660
  2 S  4.80331000E+00  0.919999
  2 S  1.45933000E+00 -0.003031

  3 P  2.09642000E+01  0.040249
  3 P  4.80331000E+00  0.237594
  3 P  1.45933000E+00  0.815854

  4 S  4.83456000E-01  1.000000

  5 P  4.83456000E-01  1.000000

  6 S  1.45585000E-01  1.000000

  7 P  1.45585000E-01  1.000000

  f (Fluorine)
  ------------
            Exponent  Coefficients 
       -------------- ---------------------------------------------------------
  1 S  1.14271000E+04  0.001801
  1 S  1.72235000E+03  0.013742
  1 S  3.95746000E+02  0.068133
  1 S  1.15139000E+02  0.233325
  1 S  3.36026000E+01  0.589086
  1 S  4.91901000E+00  0.299505

  2 S  5.54441000E+01  0.114536
  2 S  1.26323000E+01  0.920512
  2 S  3.71756000E+00 -0.003378

  3 P  5.54441000E+01  0.035461
  3 P  1.26323000E+01  0.237451
  3 P  3.71756000E+00  0.820458

  4 S  1.16545000E+00  1.000000

  5 P  1.16545000E+00  1.000000

  6 S  3.21892000E-01  1.000000

  7 P  3.21892000E-01  1.000000

  h (Hydrogen)
  ------------
            Exponent  Coefficients 
       -------------- ---------------------------------------------------------
  1 S  3.38650000E+01  0.025494
  1 S  5.09479000E+00  0.190373
  1 S  1.15879000E+00  0.852161

  2 S  3.25840000E-01  1.000000

  3 S  1.02741000E-01  1.000000



 Summary of "ao basis" -> "ao basis" (cartesian)
 ------------------------------------------------------------------------------
       Tag                 Description            Shells   Functions and Types
 ---------------- ------------------------------  ------  ---------------------
 c                           6-311G                  7       13   4s3p
 f                           6-311G                  7       13   4s3p
 h                           6-311G                  3        3   3s



          ---------------
          -cosmo- solvent
          ---------------
 dielectric constant -eps-  =  78.00
 charge screening approach  =   1
 screen = (eps-1)/(eps    ) =   0.98718
 -lineq- algorithm          =   1
 -bem- low  level           =   2
 -bem- high level           =   3
 -bem- from -octahedral-
 solvent radius (ang.)      =   0.500
 atomic radii = 
 --------------
    1  6.000  2.000
    2  9.000  1.720
    3  1.000  1.300
    4  1.000  1.300
    5  1.000  1.300

 solvent accessible surface
 --------------------------

 ---------- ATOMIC COORDINATES (A.U.) ------------ VDWR(ANG.) --
     1    1.88972599    5.66917797    9.44862994     2.000
     2    1.88972599    5.66917797   12.06212099     1.720
     3    3.83236430    5.66917797    8.78722585     1.300
     4    0.91840683    7.35103410    8.78722585     1.300
     5    0.91840683    3.98732184    8.78722585     1.300
 number of segments per atom =         32
 number of   points per atom =        128
 atom (   nspa,  nppa )
 ----------------------
    1 (     18,    46 )      46
    2 (     16,    64 )      64
    3 (     12,    32 )      32
    4 (     11,    34 )      34
    5 (     11,    34 )      34
 number of -cosmo- surface points =       68
 molecular surface =     53.244 angstrom**2
 molecular volume  =     29.890 angstrom**3
 G(cav/disp)       =      1.126 kcal/mol
 ...... end of -cosmo- initialization ......


  Caching 1-el integrals 
  itol2e modified to match energy
  convergence criterion.

            General Information
            -------------------
          SCF calculation type: DFT
          Wavefunction type:  closed shell.
          No. of atoms     :     5
          No. of electrons :    18
           Alpha electrons :     9
            Beta electrons :     9
          Charge           :     0
          Spin multiplicity:     1
          Use of symmetry is: off; symmetry adaption is: off
          Maximum number of iterations:  30
          This is a Direct SCF calculation.
          AO basis - number of functions:    35
                     number of shells:    23
          Convergence on energy requested: 1.00D-07
          Convergence on density requested: 1.00D-05
          Convergence on gradient requested: 5.00D-04

              XC Information
              --------------
                         B3LYP Method XC Potential
                     Hartree-Fock (Exact) Exchange  0.200          
                        Slater Exchange Functional  0.800 local    
                    Becke 1988 Exchange Functional  0.720 non-local
              Lee-Yang-Parr Correlation Functional  0.810          
                  VWN I RPA Correlation Functional  0.190 local    

             Grid Information
             ----------------
          Grid used for XC integration:  fine      
          Radial quadrature: Mura-Knowles        
          Angular quadrature: Lebedev. 
          Tag              B.-S. Rad. Rad. Pts. Rad. Cut. Ang. Pts.
          ---              ---------- --------- --------- ---------
          c                   0.70       70           7.0       590
          f                   0.50       70           7.0       590
          h                   0.35       60           8.0       590
          Grid pruning is: on 
          Number of quadrature shells:   320
          Spatial weights used:  Erf1

          Convergence Information
          -----------------------
          Convergence aids based upon iterative change in 
          total energy or number of iterations. 
          Levelshifting, if invoked, occurs when the 
          HOMO/LUMO gap drops below (HL_TOL): 1.00D-02
          DIIS, if invoked, will attempt to extrapolate 
          using up to (NFOCK): 10 stored Fock matrices.

                    Damping( 0%)  Levelshifting(0.5)       DIIS
                  --------------- ------------------- ---------------
          dE  on:    start            ASAP                start   
          dE off:    2 iters         30 iters            30 iters 


      Screening Tolerance Information
      -------------------------------
          Density screening/tol_rho: 1.00D-11
          AO Gaussian exp screening on grid/accAOfunc:  16
          CD Gaussian exp screening on grid/accCDfunc:  20
          XC Gaussian exp screening on grid/accXCfunc:  20
          Schwarz screening/accCoul: 1.00D-08


      Superposition of Atomic Density Guess
      -------------------------------------

 Sum of atomic energies:        -138.57325452

      Non-variational initial energy
      ------------------------------

 Total energy =    -139.229769
 1-e energy   =    -264.952728
 2-e energy   =      88.305556
 HOMO         =      -0.441631
 LUMO         =       0.112239

   Time after variat. SCF:      0.1
   Time prior to 1st pass:      0.1

 Grid_pts file          = ./ch3f_trans_cosmo.gridpts.0
 Record size in doubles =  12289        No. of grid_pts per rec  =   3070
 Max. records in memory =     18        Max. recs in file   =     20164

 Grid integrated density:      17.999997891460
 Requested integration accuracy:   0.10E-06

           Memory utilization after 1st SCF pass: 
           Heap Space remaining (MW):       12.88            12883771
          Stack Space remaining (MW):       13.11            13106861

   convergence    iter        energy       DeltaE   RMS-Dens  Diis-err    time
 ---------------- ----- ----------------- --------- --------- ---------  ------
     COSMO gas phase
 d= 0,ls=0.0,diis     1   -139.7045925577 -1.77D+02  1.78D-02  5.05D-01     0.5
 Grid integrated density:      17.999997938066
 Requested integration accuracy:   0.10E-06
 d= 0,ls=0.0,diis     2   -139.6932238079  1.14D-02  1.02D-02  6.68D-01     0.9
 d= 0,ls=0.0,diis     3   -139.7494357039 -5.62D-02  1.59D-03  3.42D-02     1.2
 d= 0,ls=0.0,diis     4   -139.7513769874 -1.94D-03  6.05D-04  1.59D-03     1.6
 d= 0,ls=0.0,diis     5   -139.7515473668 -1.70D-04  1.23D-04  7.02D-05     2.0
  Resetting Diis
 d= 0,ls=0.0,diis     6   -139.7515542046 -6.84D-06  5.14D-06  8.51D-08     2.3
 d= 0,ls=0.0,diis     7   -139.7515542138 -9.24D-09  3.97D-07  1.74D-10     2.7

           Memory utilization after 1st SCF pass: 
           Heap Space remaining (MW):       12.88            12883477
          Stack Space remaining (MW):       13.11            13106861

   convergence    iter        energy       DeltaE   RMS-Dens  Diis-err    time
 ---------------- ----- ----------------- --------- --------- ---------  ------
     COSMO solvation phase
 d= 0,ls=0.0,diis     1   -139.7564685473 -4.91D-03  2.64D-03  1.98D-03     3.1
 d= 0,ls=0.0,diis     2   -139.7570061199 -5.38D-04  4.96D-04  1.56D-03     3.5
 d= 0,ls=0.0,diis     3   -139.7571084596 -1.02D-04  1.52D-04  2.29D-04     3.8
 d= 0,ls=0.0,diis     4   -139.7571221782 -1.37D-05  4.58D-05  4.97D-06     4.2
 d= 0,ls=0.0,diis     5   -139.7571225997 -4.21D-07  1.56D-05  1.64D-06     4.6
 d= 0,ls=0.0,diis     6   -139.7571227921 -1.92D-07  6.78D-07  1.18D-09     5.0
 d= 0,ls=0.0,diis     7   -139.7571227927 -5.76D-10  4.90D-08  5.07D-12     5.4


         Total DFT energy =     -139.757122792684
      One electron energy =     -266.760482474248
           Coulomb energy =      106.564725868268
    Exchange-Corr. energy =      -17.043245766170
 Nuclear repulsion energy =       37.417402594906

 Numeric. integr. density =       18.000000045763

     Total iterative time =      5.3s


                  COSMO solvation results
                  -----------------------
  
                 gas phase energy =      -139.7515542138
                 sol phase energy =      -139.7571227927
 (electrostatic) solvation energy =         0.0055685788 (    3.49 kcal/mol)

                       DFT Final Molecular Orbital Analysis
                       ------------------------------------

 Vector    1  Occ=2.000000D+00  E=-2.464670D+01
              MO Center=  1.0D+00,  3.0D+00,  6.4D+00, r^2= 1.2D-02
   Bfn.  Coefficient  Atom+Function         Bfn.  Coefficient  Atom+Function  
  ----- ------------  ---------------      ----- ------------  ---------------
    14      0.547666  2 F  s                 15      0.471992  2 F  s          

 Vector    2  Occ=2.000000D+00  E=-1.023266D+01
              MO Center=  1.0D+00,  3.0D+00,  5.0D+00, r^2= 2.8D-02
   Bfn.  Coefficient  Atom+Function         Bfn.  Coefficient  Atom+Function  
  ----- ------------  ---------------      ----- ------------  ---------------
     1      0.562836  1 C  s                  2      0.464022  1 C  s          

 Vector    3  Occ=2.000000D+00  E=-1.195662D+00
              MO Center=  1.0D+00,  3.0D+00,  6.2D+00, r^2= 4.2D-01
   Bfn.  Coefficient  Atom+Function         Bfn.  Coefficient  Atom+Function  
  ----- ------------  ---------------      ----- ------------  ---------------
    19      0.575338  2 F  s                 23      0.461120  2 F  s          
    15     -0.194572  2 F  s          

 Vector    4  Occ=2.000000D+00  E=-6.998006D-01
              MO Center=  1.0D+00,  3.0D+00,  5.1D+00, r^2= 1.3D+00
   Bfn.  Coefficient  Atom+Function         Bfn.  Coefficient  Atom+Function  
  ----- ------------  ---------------      ----- ------------  ---------------
     6      0.466561  1 C  s                 10      0.310951  1 C  s          
    23     -0.221377  2 F  s                 19     -0.191589  2 F  s          
     2     -0.166932  1 C  s          

 Vector    5  Occ=2.000000D+00  E=-4.841252D-01
              MO Center=  9.8D-01,  3.0D+00,  5.9D+00, r^2= 1.3D+00
   Bfn.  Coefficient  Atom+Function         Bfn.  Coefficient  Atom+Function  
  ----- ------------  ---------------      ----- ------------  ---------------
    22      0.355278  2 F  pz                26      0.327691  2 F  pz         
    18      0.248978  2 F  pz                 9     -0.244220  1 C  pz         
     5     -0.155856  1 C  pz         

 Vector    6  Occ=2.000000D+00  E=-4.834583D-01
              MO Center=  8.9D-01,  3.0D+00,  5.5D+00, r^2= 1.4D+00
   Bfn.  Coefficient  Atom+Function         Bfn.  Coefficient  Atom+Function  
  ----- ------------  ---------------      ----- ------------  ---------------
    21      0.273753  2 F  py                 8      0.266490  1 C  py         
    25      0.245590  2 F  py                17      0.192738  2 F  py         
    12      0.172980  1 C  py                 4      0.168697  1 C  py         

 Vector    7  Occ=2.000000D+00  E=-4.834523D-01
              MO Center=  1.1D+00,  3.0D+00,  5.5D+00, r^2= 1.4D+00
   Bfn.  Coefficient  Atom+Function         Bfn.  Coefficient  Atom+Function  
  ----- ------------  ---------------      ----- ------------  ---------------
    20      0.273486  2 F  px                 7      0.266299  1 C  px         
    24      0.245349  2 F  px                16      0.192549  2 F  px         
    11      0.172622  1 C  px                 3      0.168548  1 C  px         

 Vector    8  Occ=2.000000D+00  E=-3.432812D-01
              MO Center=  1.1D+00,  3.0D+00,  5.7D+00, r^2= 1.5D+00
   Bfn.  Coefficient  Atom+Function         Bfn.  Coefficient  Atom+Function  
  ----- ------------  ---------------      ----- ------------  ---------------
    24      0.379896  2 F  px                20      0.355852  2 F  px         
    16      0.257362  2 F  px                28     -0.223900  3 H  s          
     7     -0.204689  1 C  px         

 Vector    9  Occ=2.000000D+00  E=-3.432756D-01
              MO Center=  8.7D-01,  3.0D+00,  5.7D+00, r^2= 1.5D+00
   Bfn.  Coefficient  Atom+Function         Bfn.  Coefficient  Atom+Function  
  ----- ------------  ---------------      ----- ------------  ---------------
    25      0.379864  2 F  py                21      0.355807  2 F  py         
    17      0.257331  2 F  py                 8     -0.204761  1 C  py         
    31     -0.193867  4 H  s                 34      0.193910  5 H  s          

 Vector   10  Occ=0.000000D+00  E= 6.244533D-02
              MO Center=  1.0D+00,  3.0D+00,  4.6D+00, r^2= 4.7D+00
   Bfn.  Coefficient  Atom+Function         Bfn.  Coefficient  Atom+Function  
  ----- ------------  ---------------      ----- ------------  ---------------
    10      1.817492  1 C  s                 29     -0.913661  3 H  s          
    32     -0.911961  4 H  s                 35     -0.911961  5 H  s          
    13     -0.504847  1 C  pz                 6      0.183283  1 C  s          

 Vector   11  Occ=0.000000D+00  E= 1.024614D-01
              MO Center=  1.0D+00,  3.0D+00,  5.0D+00, r^2= 2.3D+00
   Bfn.  Coefficient  Atom+Function         Bfn.  Coefficient  Atom+Function  
  ----- ------------  ---------------      ----- ------------  ---------------
    13      1.058473  1 C  pz                23     -0.826638  2 F  s          
    10      0.817422  1 C  s                 26      0.498502  2 F  pz         
     9      0.274556  1 C  pz                22      0.212092  2 F  pz         
     6      0.194232  1 C  s                 19     -0.169600  2 F  s          
    32     -0.169159  4 H  s                 35     -0.169159  5 H  s          

 Vector   12  Occ=0.000000D+00  E= 1.212470D-01
              MO Center=  1.7D+00,  3.0D+00,  4.5D+00, r^2= 4.3D+00
   Bfn.  Coefficient  Atom+Function         Bfn.  Coefficient  Atom+Function  
  ----- ------------  ---------------      ----- ------------  ---------------
    29      1.983657  3 H  s                 11     -1.078085  1 C  px         
    32     -0.992276  4 H  s                 35     -0.992273  5 H  s          
     7     -0.254422  1 C  px                 3     -0.176488  1 C  px         

 Vector   13  Occ=0.000000D+00  E= 1.213471D-01
              MO Center=  2.7D-01,  3.0D+00,  4.5D+00, r^2= 4.3D+00
   Bfn.  Coefficient  Atom+Function         Bfn.  Coefficient  Atom+Function  
  ----- ------------  ---------------      ----- ------------  ---------------
    32      1.718474  4 H  s                 35     -1.718476  5 H  s          
    12     -1.079283  1 C  py                 8     -0.254352  1 C  py         
     4     -0.176472  1 C  py         

 Vector   14  Occ=0.000000D+00  E= 3.140054D-01
              MO Center=  1.2D+00,  3.0D+00,  5.0D+00, r^2= 2.9D+00
   Bfn.  Coefficient  Atom+Function         Bfn.  Coefficient  Atom+Function  
  ----- ------------  ---------------      ----- ------------  ---------------
    12      1.587685  1 C  py                31     -1.134116  4 H  s          
    34      1.134116  5 H  s                 25     -0.270016  2 F  py         
    32      0.176984  4 H  s                 35     -0.176984  5 H  s          

 Vector   15  Occ=0.000000D+00  E= 3.142512D-01
              MO Center=  7.8D-01,  3.0D+00,  5.0D+00, r^2= 2.9D+00
   Bfn.  Coefficient  Atom+Function         Bfn.  Coefficient  Atom+Function  
  ----- ------------  ---------------      ----- ------------  ---------------
    11      1.587365  1 C  px                28     -1.311030  3 H  s          
    31      0.654096  4 H  s                 34      0.654096  5 H  s          
    24     -0.269973  2 F  px                29      0.204365  3 H  s          

 Vector   16  Occ=0.000000D+00  E= 4.333688D-01
              MO Center=  1.0D+00,  3.0D+00,  5.0D+00, r^2= 2.0D+00
   Bfn.  Coefficient  Atom+Function         Bfn.  Coefficient  Atom+Function  
  ----- ------------  ---------------      ----- ------------  ---------------
    13      1.221900  1 C  pz                 9     -0.791867  1 C  pz         
     6     -0.518050  1 C  s                 28      0.410159  3 H  s          
    31      0.407710  4 H  s                 34      0.407710  5 H  s          
    10     -0.372767  1 C  s                 23     -0.310720  2 F  s          
     5     -0.270134  1 C  pz                22     -0.235487  2 F  pz         

 Vector   17  Occ=0.000000D+00  E= 4.845898D-01
              MO Center=  1.0D+00,  3.0D+00,  4.9D+00, r^2= 2.5D+00
   Bfn.  Coefficient  Atom+Function         Bfn.  Coefficient  Atom+Function  
  ----- ------------  ---------------      ----- ------------  ---------------
    10      1.803328  1 C  s                 28     -1.163852  3 H  s          
    31     -1.166704  4 H  s                 34     -1.166704  5 H  s          
     9     -0.469549  1 C  pz                23     -0.439792  2 F  s          
    29      0.257282  3 H  s                 32      0.257541  4 H  s          
    35      0.257541  5 H  s                  6      0.206230  1 C  s          

 Vector   18  Occ=0.000000D+00  E= 5.661358D-01
              MO Center=  7.4D-01,  3.0D+00,  4.8D+00, r^2= 3.0D+00
   Bfn.  Coefficient  Atom+Function         Bfn.  Coefficient  Atom+Function  
  ----- ------------  ---------------      ----- ------------  ---------------
    12      1.918098  1 C  py                32     -1.676754  4 H  s          
    35      1.676754  5 H  s                  8     -1.045171  1 C  py         
    31      0.459899  4 H  s                 34     -0.459898  5 H  s          
     4     -0.273433  1 C  py         

 Vector   19  Occ=0.000000D+00  E= 5.661719D-01
              MO Center=  1.3D+00,  3.0D+00,  4.8D+00, r^2= 3.0D+00
   Bfn.  Coefficient  Atom+Function         Bfn.  Coefficient  Atom+Function  
  ----- ------------  ---------------      ----- ------------  ---------------
    29     -1.936119  3 H  s                 11      1.919380  1 C  px         
     7     -1.045074  1 C  px                32      0.967441  4 H  s          
    35      0.967442  5 H  s                 28      0.529532  3 H  s          
     3     -0.273433  1 C  px                31     -0.265365  4 H  s          
    34     -0.265365  5 H  s          


 center of mass
 --------------
 x =   1.88972599 y =   5.66917797 z =  10.84927025

 moments of inertia (a.u.)
 ------------------
          70.045742832072           0.000000000000           0.000000000000
           0.000000000000          70.049255463773           0.000000000000
           0.000000000000           0.000000000000          11.406609230869

     Multipole analysis of the density
     ---------------------------------

     L   x y z        total         alpha         beta         nuclear
     -   - - -        -----         -----         ----         -------
     0   0 0 0      0.000000     -9.000000     -9.000000     18.000000

     1   1 0 0     -0.000945    -17.008007    -17.008007     34.015068
     1   0 1 0      0.000000    -51.022602    -51.022602    102.045203
     1   0 0 1     -0.986720    -96.299633    -96.299633    191.612546

     2   2 0 0     -8.703316    -39.321619    -39.321619     69.939923
     2   1 1 0     -0.005359    -96.421416    -96.421416    192.837473
     2   1 0 1     -1.874395   -181.984801   -181.984801    362.095208
     2   0 2 0     -8.700197   -296.434948   -296.434948    584.169699
     2   0 1 1     -5.593891   -545.939758   -545.939758   1086.285624
     2   0 0 2    -30.268020  -1053.513273  -1053.513273   2076.758525

 switch_skip_cphf= F
 switch_nmrcs_analysis= F

          -----------------------------------------
          Chemical Shielding Tensors (GIAO, in ppm)
          -----------------------------------------

(j,k)(  1)=(     0.00000000,    -0.20000000)
(j,k)(  2)=(     0.00000000,    -0.20000000)
(j,k)(  3)=(     0.00000000,    -0.20000000)
(j,k)(  4)=(     0.00000000,    -0.20000000)
(j,k)(  5)=(     0.00000000,    -0.20000000)
(j,k)(  6)=(     0.00000000,    -0.20000000)
(j,k)(  7)=(     0.00000000,    -0.20000000)
(j,k)(  8)=(     0.00000000,    -0.20000000)
(j,k)(  9)=(     0.00000000,    -0.20000000)
(j,k)( 10)=(     0.00000000,    -0.20000000)
(j,k)( 11)=(     0.00000000,    -0.20000000)
(j,k)( 12)=(     0.00000000,    -0.20000000)
 nat_slc=                    5
atomnr(  1)=    1
atomnr(  2)=    2
atomnr(  3)=    3
atomnr(  4)=    4
atomnr(  5)=    5
                                NWChem CPHF Module
                                ------------------



          ---------------
          -cosmo- solvent
          ---------------
 dielectric constant -eps-  =  78.00
 charge screening approach  =   1
 screen = (eps-1)/(eps    ) =   0.98718
 -lineq- algorithm          =   1
 -bem- low  level           =   2
 -bem- high level           =   3
 -bem- from -octahedral-
 solvent radius (ang.)      =   0.500
 atomic radii = 
 --------------
    1  6.000  2.000
    2  9.000  1.720
    3  1.000  1.300
    4  1.000  1.300
    5  1.000  1.300

 solvent accessible surface
 --------------------------

 ---------- ATOMIC COORDINATES (A.U.) ------------ VDWR(ANG.) --
     1    1.88972599    5.66917797    9.44862994     2.000
     2    1.88972599    5.66917797   12.06212099     1.720
     3    3.83236430    5.66917797    8.78722585     1.300
     4    0.91840683    7.35103410    8.78722585     1.300
     5    0.91840683    3.98732184    8.78722585     1.300
 number of segments per atom =         32
 number of   points per atom =        128
 atom (   nspa,  nppa )
 ----------------------
    1 (     18,    46 )      46
    2 (     16,    64 )      64
    3 (     12,    32 )      32
    4 (     11,    34 )      34
    5 (     11,    34 )      34
 number of -cosmo- surface points =       68
 molecular surface =     53.244 angstrom**2
 molecular volume  =     29.890 angstrom**3
 G(cav/disp)       =      1.126 kcal/mol
 ...... end of -cosmo- initialization ......


  scftype          =     RHF 
  nclosed          =        9
  nopen            =        0
  variables        =      234
  # of vectors     =        3
  tolerance        = 0.10D-03
  level shift      = 0.00D+00
  max iterations   =       50
  max subspace     =       30

 SCF residual:   2.014995315436190E-007


Iterative solution of linear equations
  No. of variables      234
  No. of equations        3
  Maximum subspace       30
        Iterations       50
       Convergence  1.0D-04
        Start time     10.8


   iter   nsub   residual    time
   ----  ------  --------  ---------
     1      3    8.11D-01      12.4
     2      6    2.64D-02      14.1
     3      9    6.96D-04      15.8
     4     12    6.33D-05      17.4

 Wrote CPHF data to ./ch3f_trans_cosmo.shieldcphf

 Calc. par tensor-> nonrel
      Atom:    1  C 
        Diamagnetic
    243.3032      0.0000     -0.0069
      0.0000    243.2929      0.0000
     -0.0069      0.0000    258.4078

        Paramagnetic
   -160.7250     -0.0009     -0.0684
     -0.0009   -160.7259      0.0007
     -0.0684      0.0007    -68.7758

        Total Shielding Tensor
     82.5781     -0.0009     -0.0753
     -0.0009     82.5670      0.0007
     -0.0753      0.0007    189.6320

           isotropic =     118.2591
          anisotropy =     107.0595

          Principal Components and Axis System
                 1           2           3
              189.6321     82.5782     82.5669

      1        -0.0007      0.9968      0.0799
      2         0.0000     -0.0799      0.9968
      3         1.0000      0.0007      0.0001



      Atom:    2  F 
        Diamagnetic
    466.1659      0.0000     -0.0028
      0.0000    466.1627      0.0000
     -0.0028      0.0000    493.9912

        Paramagnetic
     29.5200      0.0052     -0.0221
      0.0052     29.3218      0.0001
     -0.0221      0.0001    -76.1418

        Total Shielding Tensor
    495.6859      0.0052     -0.0249
      0.0052    495.4845      0.0001
     -0.0249      0.0001    417.8494

           isotropic =     469.6733
          anisotropy =      39.0191

          Principal Components and Axis System
                 1           2           3
              495.6860    495.4843    417.8494

      1         0.9997     -0.0256      0.0003
      2         0.0256      0.9997      0.0000
      3        -0.0003      0.0000      1.0000



      Atom:    3  H 
        Diamagnetic
     35.4771      0.0000     -6.1007
      0.0000     22.8990      0.0000
     -6.1007      0.0000     28.7006

        Paramagnetic
     -7.2698      0.0000      3.3317
      0.0000      2.3610      0.0000
      3.3317      0.0000      2.8252

        Total Shielding Tensor
     28.2073      0.0000     -2.7691
      0.0000     25.2600      0.0000
     -2.7691      0.0000     31.5258

           isotropic =      28.3310
          anisotropy =       7.1455

          Principal Components and Axis System
                 1           2           3
               33.0947     26.6384     25.2600

      1        -0.4929      0.8701      0.0000
      2         0.0000      0.0000      1.0000
      3         0.8701      0.4929      0.0000



      Atom:    4  H 
        Diamagnetic
     26.0474     -5.4479      3.0506
     -5.4479     32.3337     -5.2839
      3.0506     -5.2839     28.7057

        Paramagnetic
     -0.0482      4.1727     -1.6662
      4.1727     -4.8626      2.8863
     -1.6662      2.8863      2.8179

        Total Shielding Tensor
     25.9992     -1.2752      1.3844
     -1.2752     27.4711     -2.3976
      1.3844     -2.3976     31.5236

           isotropic =      28.3313
          anisotropy =       7.1420

          Principal Components and Axis System
                 1           2           3
               33.0926     26.6384     25.2628

      1         0.2466     -0.4351      0.8660
      2        -0.4270      0.7534      0.5001
      3         0.8700      0.4931      0.0000



      Atom:    5  H 
        Diamagnetic
     26.0474      5.4479      3.0506
      5.4479     32.3337      5.2839
      3.0506      5.2839     28.7057

        Paramagnetic
     -0.0482     -4.1727     -1.6662
     -4.1727     -4.8627     -2.8863
     -1.6662     -2.8863      2.8180

        Total Shielding Tensor
     25.9991      1.2752      1.3844
      1.2752     27.4711      2.3976
      1.3844      2.3976     31.5237

           isotropic =      28.3313
          anisotropy =       7.1420

          Principal Components and Axis System
                 1           2           3
               33.0926     26.6384     25.2628

      1         0.2466      0.4351      0.8660
      2         0.4270      0.7534     -0.5001
      3         0.8700     -0.4930      0.0000




 Task  times  cpu:       14.6s     wall:       18.1s


                                NWChem Input Module
                                -------------------


 Summary of allocated global arrays
-----------------------------------
  No active global arrays



                         GA Statistics for process    0
                         ------------------------------

       create   destroy   get      put      acc     scatter   gather  read&inc
calls:  734      734     2.45e+05 1811     1.09e+05  136        0     1223     
number of processes/call 1.01e+00 1.74e+00 1.06e+00 2.31e+00 0.00e+00
bytes total:             3.17e+07 2.51e+06 2.01e+07 4.07e+05 0.00e+00 9.78e+03
bytes remote:            5.19e+06 6.18e+05 5.39e+06 -2.72e+05 0.00e+00 0.00e+00
Max memory consumed for GA by this process: 216800 bytes

MA_summarize_allocated_blocks: starting scan ...
MA_summarize_allocated_blocks: scan completed: 0 heap blocks, 0 stack blocks
MA usage statistics:

	allocation statistics:
					      heap	     stack
					      ----	     -----
	current number of blocks	         0	         0
	maximum number of blocks	        29	        47
	current total bytes		         0	         0
	maximum total bytes		   1789520	  22511376
	maximum total K-bytes		      1790	     22512
	maximum total M-bytes		         2	        23


                                     CITATION
                                     --------
                Please cite the following reference when publishing
                           results obtained with NWChem:

                 M. Valiev, E.J. Bylaska, N. Govind, K. Kowalski,
              T.P. Straatsma, H.J.J. van Dam, D. Wang, J. Nieplocha,
                        E. Apra, T.L. Windus, W.A. de Jong
                 "NWChem: a comprehensive and scalable open-source
                  solution for large scale molecular simulations"
                      Comput. Phys. Commun. 181, 1477 (2010)
                           doi:10.1016/j.cpc.2010.04.018

                              AUTHORS & CONTRIBUTORS
                              ----------------------
          E. Apra, E. J. Bylaska, W. A. de Jong, N. Govind, K. Kowalski,
       T. P. Straatsma, M. Valiev, H. J. J. van Dam, D. Wang, T. L. Windus,
        J. Hammond, J. Autschbach, K. Bhaskaran-Nair, J. Brabec, K. Lopata,
     F. Aquino, S. Hirata, M. T. Hackler, J. Mullin, P. Nichols, R. Peverati,
    J. Pittner, Y. Zhao, P.-D. Fan, R. J. Harrison, M. Dupuis, D. Silverstein,
    D. M. A. Smith, J. Nieplocha, V. Tipparaju, M. Krishnan, B. E. Van Kuiken,
        A. Vazquez-Mayagoitia, L. Jensen, M. Swart, Q. Wu, T. Van Voorhis,
     A. A. Auer, M. Nooijen, L. D. Crosby, E. Brown, G. Cisneros, G. I. Fann,
     H. Fruchtl, J. Garza, K. Hirao, R. Kendall, J. A. Nichols, K. Tsemekhman,
      K. Wolinski, J. Anchell, D. Bernholdt, P. Borowski, T. Clark, D. Clerc,
      H. Dachsel, M. Deegan, K. Dyall, D. Elwood, E. Glendening, M. Gutowski,
      A. Hess, J. Jaffe, B. Johnson, J. Ju, R. Kobayashi, R. Kutteh, Z. Lin,
   R. Littlefield, X. Long, B. Meng, T. Nakajima, S. Niu, L. Pollack, M. Rosing,
   K. Glaesemann, G. Sandrone, M. Stave, H. Taylor, G. Thomas, J. H. van Lenthe,
                                A. Wong, Z. Zhang.

 Total times  cpu:       14.6s     wall:       18.3s
