 argument  1 = /sequim/edo/nwchem-dm3d/QA/tests/ch2_props4_bp/ch2_props4_bp.nw
  NWChem w/ OpenMP: maximum threads =    1



============================== echo of input deck ==============================
echo

start ch2_props4_bp

title ch2_props4_bp


geometry noautoz units angstrom nocenter
symmetry c1
 C     -0.00589147     +0.04720885     +0.01050160
 H     +0.69831687     +0.86392831     -0.10575361
 H     -1.02419158     -0.06390043     +0.36725854
end

basis
"*" library 6-311G*
end

charge 0

property
 efieldgradZ4
 gshift
 hyperfine
 shielding
end

relativistic
 zora on
 zora:cutoff_NMR 1d-8
 zora:cutoff 1d-30
end

set dft:tol_rho 1d-30
set int:acc_std 1d-32
set int:cando_txs f
set dft:job_grid_acc 1d-20

dft
 odft
 mult 3
 grid xfine
 direct
 xc becke88 perdew86
 convergence energy 1e-8
end

task dft property
================================================================================


                                         
                                         


             Northwest Computational Chemistry Package (NWChem) 7.2.0
             --------------------------------------------------------


                    Environmental Molecular Sciences Laboratory
                       Pacific Northwest National Laboratory
                                Richland, WA 99352

                              Copyright (c) 1994-2022
                       Pacific Northwest National Laboratory
                            Battelle Memorial Institute

             NWChem is an open-source computational chemistry package
                        distributed under the terms of the
                      Educational Community License (ECL) 2.0
             A copy of the license is included with this distribution
                              in the LICENSE.TXT file

                                  ACKNOWLEDGMENT
                                  --------------

            This software and its documentation were developed at the
            EMSL at Pacific Northwest National Laboratory, a multiprogram
            national laboratory, operated for the U.S. Department of Energy
            by Battelle under Contract Number DE-AC05-76RL01830. Support
            for this work was provided by the Department of Energy Office
            of Biological and Environmental Research, Office of Basic
            Energy Sciences, and the Office of Advanced Scientific Computing.


           Job information
           ---------------

    hostname        = s9.emsl.pnl.gov
    program         = /opt/nwchem/bin/nwchem
    date            = Wed Jul 19 16:11:01 2023

    compiled        = Wed_Jul_19_22:10:26_2023
    source          = /nwchem
    nwchem branch   = 7.2.0
    nwchem revision = v7.2.0-beta1-603-g9eba058b4f
    ga revision     = 5.8.0
    use scalapack   = T
    input           = /sequim/edo/nwchem-dm3d/QA/tests/ch2_props4_bp/ch2_props4_bp.nw
    prefix          = ch2_props4_bp.
    data base       = ./ch2_props4_bp.db
    status          = startup
    nproc           =      105
    time left       =     -1s



           Memory information
           ------------------

    heap     =  123668904 doubles =    943.5 Mbytes
    stack    =  123668903 doubles =    943.5 Mbytes
    global   =   70667946 doubles =    539.2 Mbytes (distinct from heap & stack)
    total    =  318005753 doubles =   2426.2 Mbytes
    verify   = yes
    hardfail = no 


           Directory information
           ---------------------

  0 permanent = .
  0 scratch   = /big_scratch




                                NWChem Input Module
                                -------------------


                                   ch2_props4_bp
                                   -------------

 Scaling coordinates for geometry "geometry" by  1.889725989
 (inverse scale =  0.529177249)

 Turning off AUTOSYM since
 SYMMETRY directive was detected!



                             Geometry "geometry" -> ""
                             -------------------------

 Output coordinates in angstroms (scale by  1.889725989 to convert to a.u.)

  No.       Tag          Charge          X              Y              Z
 ---- ---------------- ---------- -------------- -------------- --------------
    1 C                    6.0000    -0.00589147     0.04720885     0.01050160
    2 H                    1.0000     0.69831687     0.86392831    -0.10575361
    3 H                    1.0000    -1.02419158    -0.06390043     0.36725854

      Atomic Mass 
      ----------- 

      C                 12.000000
      H                  1.007825


 Effective nuclear repulsion energy (a.u.)       6.1173376527

            Nuclear Dipole moment (a.u.) 
            ----------------------------
        X                 Y               Z
 ---------------- ---------------- ----------------
    -0.6826134923     2.0471042208     0.6132435410


            XYZ format geometry
            -------------------
     3
 geometry
 C                    -0.00589147     0.04720885     0.01050160
 H                     0.69831687     0.86392831    -0.10575361
 H                    -1.02419158    -0.06390043     0.36725854

 ==============================================================================
                                internuclear distances
 ------------------------------------------------------------------------------
       center one      |      center two      | atomic units |  angstroms
 ------------------------------------------------------------------------------
    2 H                |   1 C                |     2.04968  |     1.08465
    3 H                |   1 C                |     2.04977  |     1.08469
 ------------------------------------------------------------------------------
                         number of included internuclear distances:          2
 ==============================================================================



 ==============================================================================
                                 internuclear angles
 ------------------------------------------------------------------------------
        center 1       |       center 2       |       center 3       |  degrees
 ------------------------------------------------------------------------------
    2 H                |   1 C                |   3 H                |   136.21
 ------------------------------------------------------------------------------
                            number of included internuclear angles:          1
 ==============================================================================



  warning:::::::::::::: from_environment
  NWCHEM_BASIS_LIBRARY set to: </cluster/apps/nwchem/nwchem/src/basis/libraries/>
  but file does not exist !
  using .nwchemrc or compiled library


 Summary of "ao basis" -> "" (cartesian)
 ------------------------------------------------------------------------------
       Tag                 Description            Shells   Functions and Types
 ---------------- ------------------------------  ------  ---------------------
 *                          6-311G*                   on all atoms 


  perdew86 is a nonlocal functional; adding perdew81 local functional. 
                              NWChem Property Module
                              ----------------------


                                   ch2_props4_bp

  itol2e modified to match energy
  convergence criterion.

                                 NWChem DFT Module
                                 -----------------


                                   ch2_props4_bp


                      Basis "ao basis" -> "ao basis" (cartesian)
                      -----
  C (Carbon)
  ----------
            Exponent  Coefficients 
       -------------- ---------------------------------------------------------
  1 S  4.56324000E+03  0.001967
  1 S  6.82024000E+02  0.015231
  1 S  1.54973000E+02  0.076127
  1 S  4.44553000E+01  0.260801
  1 S  1.30290000E+01  0.616462
  1 S  1.82773000E+00  0.221006

  2 S  2.09642000E+01  0.114660
  2 S  4.80331000E+00  0.919999
  2 S  1.45933000E+00 -0.003031

  3 P  2.09642000E+01  0.040249
  3 P  4.80331000E+00  0.237594
  3 P  1.45933000E+00  0.815854

  4 S  4.83456000E-01  1.000000

  5 P  4.83456000E-01  1.000000

  6 S  1.45585000E-01  1.000000

  7 P  1.45585000E-01  1.000000

  8 D  6.26000000E-01  1.000000

  H (Hydrogen)
  ------------
            Exponent  Coefficients 
       -------------- ---------------------------------------------------------
  1 S  3.38650000E+01  0.025494
  1 S  5.09479000E+00  0.190373
  1 S  1.15879000E+00  0.852161

  2 S  3.25840000E-01  1.000000

  3 S  1.02741000E-01  1.000000



 Summary of "ao basis" -> "ao basis" (cartesian)
 ------------------------------------------------------------------------------
       Tag                 Description            Shells   Functions and Types
 ---------------- ------------------------------  ------  ---------------------
 C                          6-311G*                  8       19   4s3p1d
 H                          6-311G*                  3        3   3s




 Summary of "ao basis" -> "ao basis" (cartesian)
 ------------------------------------------------------------------------------
       Tag                 Description            Shells   Functions and Types
 ---------------- ------------------------------  ------  ---------------------
 C                          6-311G*                  8       19   4s3p1d
 H                          6-311G*                  3        3   3s



int_init: setting std/high accuracies to  1.0D-32  1.0D-64
  int_init: cando_txs set to always be  F
  Caching 1-el integrals 

            General Information
            -------------------
          SCF calculation type: DFT
          Wavefunction type:  spin polarized.
          No. of atoms     :     3
          No. of electrons :     8
           Alpha electrons :     5
            Beta electrons :     3
          Charge           :     0
          Spin multiplicity:     3
          Use of symmetry is: off; symmetry adaption is: off
          Maximum number of iterations:  50
          This is a Direct SCF calculation.
          AO basis - number of functions:    25
                     number of shells:    14
          Convergence on energy requested:  1.00D-08
          Convergence on density requested:  1.00D-05
          Convergence on gradient requested:  5.00D-04

              XC Information
              --------------
                    Becke 1988 Exchange Functional  1.000          
                Perdew 1981 Correlation Functional  1.000 local    
                Perdew 1986 Correlation Functional  1.000 non-local

             Grid Information
             ----------------
          Grid used for XC integration:  xfine     
          Radial quadrature: Mura-Knowles        
          Angular quadrature: Lebedev. 
          Tag              B.-S. Rad. Rad. Pts. Rad. Cut. Ang. Pts.
          ---              ---------- --------- --------- ---------
          C                   0.70      100          10.0      1454
          H                   0.35      100          12.0      1202
          Grid pruning is: on 
          Number of quadrature shells:   300
          Spatial weights used:  Erf1

          Convergence Information
          -----------------------
          Convergence aids based upon iterative change in 
          total energy or number of iterations. 
          Levelshifting, if invoked, occurs when the 
          HOMO/LUMO gap drops below (HL_TOL):  1.00D-02
          DIIS, if invoked, will attempt to extrapolate 
          using up to (NFOCK): 10 stored Fock matrices.

                    Damping( 0%)  Levelshifting(0.5)       DIIS
                  --------------- ------------------- ---------------
          dE  on:    start            ASAP                start   
          dE off:    2 iters         50 iters            50 iters 


      Screening Tolerance Information
      -------------------------------
          Density screening/tol_rho:  1.00D-30
          AO Gaussian exp screening on grid/accAOfunc:  18
          CD Gaussian exp screening on grid/accCDfunc:  20
          XC Gaussian exp screening on grid/accXCfunc:  20
          Schwarz screening/accCoul:  1.00D-09

 dft: using ZORA

      Superposition of Atomic Density Guess
      -------------------------------------

 Sum of atomic energies:         -38.66817135
          Performing ZORA calculations
          ----------------------------


 Read atomic ZORA corrections from ./ch2_props4_bp.zora_sf

 dft_zora_read: failed to open./ch2_props4_bp.zora_sf
       Generating atomic ZORA corrections
       ----------------------------------

 In dft_scf:: zora:Knucl= F

 Grid_pts file          = /big_scratch/ch2_props4_bp.gridpts.000
 Record size in doubles =  12289        No. of grid_pts per rec  =   3070
 Max. records in memory =      3        Max. recs in file   =   9649999

 Grid integrated density:       8.000000002321
 Requested integration accuracy:   0.10E-19

 Wrote atomic ZORA corrections to ./ch2_props4_bp.zora_sf


      Superposition of Atomic Density Guess
      -------------------------------------

 Sum of atomic energies:         -38.66817135

      Non-variational initial energy
      ------------------------------

 Total energy =     -38.729281
 1-e energy   =     -63.148455
 2-e energy   =      18.301837
 HOMO         =      -0.184236
 LUMO         =      -0.135421

  WARNING: movecs_in_org=atomic not equal to movecs_in=./ch2_props4_bp.movecs
   Time after variat. SCF:      2.1
   Time prior to 1st pass:      2.1
 Grid integrated density:       7.999999969163
 Requested integration accuracy:   0.10E-19

           Memory utilization after 1st SCF pass: 
           Heap Space remaining (MW):       74.23            74231520
          Stack Space remaining (MW):      123.67           123667260

   convergence    iter        energy       DeltaE   RMS-Dens  Diis-err    time
 ---------------- ----- ----------------- --------- --------- ---------  ------
 d= 0,ls=0.0,diis     1    -39.1543661100 -4.53D+01  8.93D-03  6.65D-02     2.3
                                                     4.51D-03  5.41D-02
 Grid integrated density:       7.999999983602
 Requested integration accuracy:   0.10E-19
 d= 0,ls=0.0,diis     2    -39.1708741598 -1.65D-02  4.75D-03  1.39D-02     2.6
                                                     3.23D-03  9.49D-03
 Grid integrated density:       8.000000000120
 Requested integration accuracy:   0.10E-19
 d= 0,ls=0.0,diis     3    -39.1749883587 -4.11D-03  2.14D-03  5.85D-03     2.7
                                                     1.04D-03  2.67D-03
 Grid integrated density:       8.000000000005
 Requested integration accuracy:   0.10E-19
 d= 0,ls=0.0,diis     4    -39.1772952617 -2.31D-03  1.22D-04  2.22D-05     2.9
                                                     1.93D-04  4.18D-05
 Grid integrated density:       8.000000000034
 Requested integration accuracy:   0.10E-19
 d= 0,ls=0.0,diis     5    -39.1773173130 -2.21D-05  5.54D-05  2.78D-06     3.1
                                                     3.35D-05  9.18D-07
 Grid integrated density:       8.000000000036
 Requested integration accuracy:   0.10E-19
  Resetting Diis
 d= 0,ls=0.0,diis     6    -39.1773186737 -1.36D-06  9.94D-06  5.07D-08     3.5
                                                     7.78D-06  3.49D-08
 Grid integrated density:       8.000000000037
 Requested integration accuracy:   0.10E-19
 d= 0,ls=0.0,diis     7    -39.1773187165 -4.28D-08  6.47D-07  2.46D-10     3.8
                                                     8.58D-07  5.40D-10
 Grid integrated density:       8.000000000037
 Requested integration accuracy:   0.10E-19
 d= 0,ls=0.0,diis     8    -39.1773187168 -3.50D-10  3.59D-07  5.15D-11     4.0
                                                     1.04D-07  1.23D-11

      Commencing ZORA Property Calculations
      -------------------------------------

 Grid integrated density:       8.000000002321
 Requested integration accuracy:   0.10E-19
dia1(k,t,iat1,ispin)=(  1,  1,  1,  1)=(   147.47336128,   147.47336128) ppm
dia1(k,t,iat1,ispin)=(  1,  1,  1,  2)=(   116.74175316,   264.21511444) ppm
dia1(k,t,iat1,ispin)=(  1,  2,  1,  1)=(     2.43696040,     2.43696040) ppm
dia1(k,t,iat1,ispin)=(  1,  2,  1,  2)=(     0.25884489,     2.69580529) ppm
dia1(k,t,iat1,ispin)=(  1,  3,  1,  1)=(    -1.85525649,    -1.85525649) ppm
dia1(k,t,iat1,ispin)=(  1,  3,  1,  2)=(    -0.15433551,    -2.00959200) ppm
dia1(k,t,iat1,ispin)=(  2,  1,  1,  1)=(     2.43692202,     2.43692202) ppm
dia1(k,t,iat1,ispin)=(  2,  1,  1,  2)=(     0.25885743,     2.69577944) ppm
dia1(k,t,iat1,ispin)=(  2,  2,  1,  1)=(   144.61055280,   144.61055280) ppm
dia1(k,t,iat1,ispin)=(  2,  2,  1,  2)=(   116.41333245,   261.02388525) ppm
dia1(k,t,iat1,ispin)=(  2,  3,  1,  1)=(    -0.31529942,    -0.31529942) ppm
dia1(k,t,iat1,ispin)=(  2,  3,  1,  2)=(    -0.05817142,    -0.37347084) ppm
dia1(k,t,iat1,ispin)=(  3,  1,  1,  1)=(    -1.85526326,    -1.85526326) ppm
dia1(k,t,iat1,ispin)=(  3,  1,  1,  2)=(    -0.15433330,    -2.00959656) ppm
dia1(k,t,iat1,ispin)=(  3,  2,  1,  1)=(    -0.31531360,    -0.31531360) ppm
dia1(k,t,iat1,ispin)=(  3,  2,  1,  2)=(    -0.05816679,    -0.37348039) ppm
dia1(k,t,iat1,ispin)=(  3,  3,  1,  1)=(   141.92094400,   141.92094400) ppm
dia1(k,t,iat1,ispin)=(  3,  3,  1,  2)=(   116.24745129,   258.16839528) ppm
(dia2,par1)(k,t,iat1,spin)=(  1,  1,  1,  1)=(    -0.97406759,    -0.97406759,    -0.00743832,    -0.00743832) ppm
(dia2,par1)(k,t,iat1,spin)=(  1,  1,  1,  2)=(    -0.10426365,    -1.07833124,     0.06296928,     0.05553096) ppm
(dia2,par1)(k,t,iat1,spin)=(  2,  1,  1,  1)=(     0.23402975,     0.23402975,     0.00354879,     0.00354879) ppm
(dia2,par1)(k,t,iat1,spin)=(  2,  1,  1,  2)=(     0.63226936,     0.86629911,    -0.03004230,    -0.02649351) ppm
(dia2,par1)(k,t,iat1,spin)=(  3,  1,  1,  1)=(    -0.31492393,    -0.31492393,    -0.02012612,    -0.02012612) ppm
(dia2,par1)(k,t,iat1,spin)=(  3,  1,  1,  2)=(    -0.19908298,    -0.51400691,     0.17037830,     0.15025218) ppm
(dia2,par1)(k,t,iat1,spin)=(  1,  2,  1,  1)=(     0.23406813,     0.23406813,     0.00354878,     0.00354878) ppm
(dia2,par1)(k,t,iat1,spin)=(  1,  2,  1,  2)=(     0.63225682,     0.86632496,    -0.03004229,    -0.02649351) ppm
(dia2,par1)(k,t,iat1,spin)=(  2,  2,  1,  1)=(    -1.17123456,    -1.17123456,    -0.00169311,    -0.00169311) ppm
(dia2,par1)(k,t,iat1,spin)=(  2,  2,  1,  2)=(    -1.00754449,    -2.17877905,     0.01433301,     0.01263991) ppm
(dia2,par1)(k,t,iat1,spin)=(  3,  2,  1,  1)=(     0.04866218,     0.04866218,     0.00960206,     0.00960206) ppm
(dia2,par1)(k,t,iat1,spin)=(  3,  2,  1,  2)=(    -0.24477465,    -0.19611247,    -0.08128654,    -0.07168448) ppm
(dia2,par1)(k,t,iat1,spin)=(  1,  3,  1,  1)=(    -0.31491716,    -0.31491716,    -0.02012614,    -0.02012614) ppm
(dia2,par1)(k,t,iat1,spin)=(  1,  3,  1,  2)=(    -0.19908519,    -0.51400235,     0.17037832,     0.15025218) ppm
(dia2,par1)(k,t,iat1,spin)=(  2,  3,  1,  1)=(     0.04867636,     0.04867636,     0.00960209,     0.00960209) ppm
(dia2,par1)(k,t,iat1,spin)=(  2,  3,  1,  2)=(    -0.24477928,    -0.19610292,    -0.08128657,    -0.07168448) ppm
(dia2,par1)(k,t,iat1,spin)=(  3,  3,  1,  1)=(    -1.81285161,    -1.81285161,    -0.05445599,    -0.05445599) ppm
(dia2,par1)(k,t,iat1,spin)=(  3,  3,  1,  2)=(    -0.91416432,    -2.72701593,     0.46099889,     0.40654290) ppm
 Grid integrated density:       8.000000002321
 Requested integration accuracy:   0.10E-19
dia1(k,t,iat1,ispin)=(  1,  1,  2,  1)=(    16.13139662,    16.13139662) ppm
dia1(k,t,iat1,ispin)=(  1,  1,  2,  2)=(    10.87548068,    27.00687729) ppm
dia1(k,t,iat1,ispin)=(  1,  2,  2,  1)=(     6.19338257,     6.19338257) ppm
dia1(k,t,iat1,ispin)=(  1,  2,  2,  2)=(     3.91297524,    10.10635781) ppm
dia1(k,t,iat1,ispin)=(  1,  3,  2,  1)=(    -1.20271427,    -1.20271427) ppm
dia1(k,t,iat1,ispin)=(  1,  3,  2,  2)=(    -0.38456616,    -1.58728043) ppm
dia1(k,t,iat1,ispin)=(  2,  1,  2,  1)=(     6.13733992,     6.13733992) ppm
dia1(k,t,iat1,ispin)=(  2,  1,  2,  2)=(     3.74818540,     9.88552532) ppm
dia1(k,t,iat1,ispin)=(  2,  2,  2,  1)=(    17.00293382,    17.00293382) ppm
dia1(k,t,iat1,ispin)=(  2,  2,  2,  2)=(    12.66557645,    29.66851027) ppm
dia1(k,t,iat1,ispin)=(  2,  3,  2,  1)=(    -1.01976940,    -1.01976940) ppm
dia1(k,t,iat1,ispin)=(  2,  3,  2,  2)=(    -0.55697923,    -1.57674863) ppm
dia1(k,t,iat1,ispin)=(  3,  1,  2,  1)=(    -1.21259610,    -1.21259610) ppm
dia1(k,t,iat1,ispin)=(  3,  1,  2,  2)=(    -0.41362305,    -1.62621915) ppm
dia1(k,t,iat1,ispin)=(  3,  2,  2,  1)=(    -1.04048192,    -1.04048192) ppm
dia1(k,t,iat1,ispin)=(  3,  2,  2,  2)=(    -0.61788310,    -1.65836502) ppm
dia1(k,t,iat1,ispin)=(  3,  3,  2,  1)=(    10.18703205,    10.18703205) ppm
dia1(k,t,iat1,ispin)=(  3,  3,  2,  2)=(     8.01200650,    18.19903855) ppm
(dia2,par1)(k,t,iat1,spin)=(  1,  1,  2,  1)=(     1.55107332,     1.55107332,    -0.00306443,    -0.00306443) ppm
(dia2,par1)(k,t,iat1,spin)=(  1,  1,  2,  2)=(     2.11107734,     3.66215066,     0.00321185,     0.00014741) ppm
(dia2,par1)(k,t,iat1,spin)=(  2,  1,  2,  1)=(    -1.41318859,    -1.41318859,     0.00146202,     0.00146202) ppm
(dia2,par1)(k,t,iat1,spin)=(  2,  1,  2,  2)=(    -1.76746958,    -3.18065817,    -0.00153235,    -0.00007033) ppm
(dia2,par1)(k,t,iat1,spin)=(  3,  1,  2,  1)=(     0.32561754,     0.32561754,    -0.00829155,    -0.00829155) ppm
(dia2,par1)(k,t,iat1,spin)=(  3,  1,  2,  2)=(     0.17972683,     0.50534437,     0.00869041,     0.00039886) ppm
(dia2,par1)(k,t,iat1,spin)=(  1,  2,  2,  1)=(    -1.76844529,    -1.76844529,     0.00146202,     0.00146202) ppm
(dia2,par1)(k,t,iat1,spin)=(  1,  2,  2,  2)=(    -1.51035272,    -3.27879800,    -0.00153235,    -0.00007033) ppm
(dia2,par1)(k,t,iat1,spin)=(  2,  2,  2,  1)=(     1.49038554,     1.49038554,    -0.00069752,    -0.00069752) ppm
(dia2,par1)(k,t,iat1,spin)=(  2,  2,  2,  2)=(     1.29944716,     2.78983271,     0.00073108,     0.00003355) ppm
(dia2,par1)(k,t,iat1,spin)=(  3,  2,  2,  1)=(     0.36865580,     0.36865580,     0.00395585,     0.00395585) ppm
(dia2,par1)(k,t,iat1,spin)=(  3,  2,  2,  2)=(     0.18065713,     0.54931293,    -0.00414615,    -0.00019030) ppm
(dia2,par1)(k,t,iat1,spin)=(  1,  3,  2,  1)=(     0.26297620,     0.26297620,    -0.00829155,    -0.00829155) ppm
(dia2,par1)(k,t,iat1,spin)=(  1,  3,  2,  2)=(     0.22506347,     0.48803967,     0.00869041,     0.00039886) ppm
(dia2,par1)(k,t,iat1,spin)=(  2,  3,  2,  1)=(     0.23735823,     0.23735823,     0.00395585,     0.00395585) ppm
(dia2,par1)(k,t,iat1,spin)=(  2,  3,  2,  2)=(     0.27568369,     0.51304191,    -0.00414615,    -0.00019030) ppm
(dia2,par1)(k,t,iat1,spin)=(  3,  3,  2,  1)=(     3.05099377,     3.05099377,    -0.02243474,    -0.02243474) ppm
(dia2,par1)(k,t,iat1,spin)=(  3,  3,  2,  2)=(     3.40605116,     6.45704493,     0.02351396,     0.00107922) ppm
 Grid integrated density:       8.000000002321
 Requested integration accuracy:   0.10E-19
dia1(k,t,iat1,ispin)=(  1,  1,  3,  1)=(    21.33579062,    21.33579062) ppm
dia1(k,t,iat1,ispin)=(  1,  1,  3,  2)=(    14.85579886,    36.19158948) ppm
dia1(k,t,iat1,ispin)=(  1,  2,  3,  1)=(     1.69126733,     1.69126733) ppm
dia1(k,t,iat1,ispin)=(  1,  2,  3,  2)=(     0.34807813,     2.03934546) ppm
dia1(k,t,iat1,ispin)=(  1,  3,  3,  1)=(    -3.92024151,    -3.92024151) ppm
dia1(k,t,iat1,ispin)=(  1,  3,  3,  2)=(    -2.48433876,    -6.40458027) ppm
dia1(k,t,iat1,ispin)=(  2,  1,  3,  1)=(     1.74728898,     1.74728898) ppm
dia1(k,t,iat1,ispin)=(  2,  1,  3,  2)=(     0.51286847,     2.26015745) ppm
dia1(k,t,iat1,ispin)=(  2,  2,  3,  1)=(    10.70211948,    10.70211948) ppm
dia1(k,t,iat1,ispin)=(  2,  2,  3,  2)=(     7.84718909,    18.54930857) ppm
dia1(k,t,iat1,ispin)=(  2,  3,  3,  1)=(    -0.50817232,    -0.50817232) ppm
dia1(k,t,iat1,ispin)=(  2,  3,  3,  2)=(    -0.21080933,    -0.71898165) ppm
dia1(k,t,iat1,ispin)=(  3,  1,  3,  1)=(    -3.91036338,    -3.91036338) ppm
dia1(k,t,iat1,ispin)=(  3,  1,  3,  2)=(    -2.45528178,    -6.36564516) ppm
dia1(k,t,iat1,ispin)=(  3,  2,  3,  1)=(    -0.48746755,    -0.48746755) ppm
dia1(k,t,iat1,ispin)=(  3,  2,  3,  2)=(    -0.14990529,    -0.63737284) ppm
dia1(k,t,iat1,ispin)=(  3,  3,  3,  1)=(    11.28101166,    11.28101166) ppm
dia1(k,t,iat1,ispin)=(  3,  3,  3,  2)=(     8.84876825,    20.12977991) ppm
(dia2,par1)(k,t,iat1,spin)=(  1,  1,  3,  1)=(     0.28749891,     0.28749891,    -0.00239324,    -0.00239324) ppm
(dia2,par1)(k,t,iat1,spin)=(  1,  1,  3,  2)=(     0.39353365,     0.68103256,     0.00250855,     0.00011532) ppm
(dia2,par1)(k,t,iat1,spin)=(  2,  1,  3,  1)=(    -0.68925192,    -0.68925192,     0.00114180,     0.00114180) ppm
(dia2,par1)(k,t,iat1,spin)=(  2,  1,  3,  2)=(    -0.04342760,    -0.73267952,    -0.00119682,    -0.00005502) ppm
(dia2,par1)(k,t,iat1,spin)=(  3,  1,  3,  1)=(     0.92026160,     0.92026160,    -0.00647547,    -0.00647547) ppm
(dia2,par1)(k,t,iat1,spin)=(  3,  1,  3,  2)=(     1.11849855,     2.03876015,     0.00678748,     0.00031202) ppm
(dia2,par1)(k,t,iat1,spin)=(  1,  2,  3,  1)=(    -0.33397020,    -0.33397020,     0.00114180,     0.00114180) ppm
(dia2,par1)(k,t,iat1,spin)=(  1,  2,  3,  2)=(    -0.30054090,    -0.63451110,    -0.00119682,    -0.00005502) ppm
(dia2,par1)(k,t,iat1,spin)=(  2,  2,  3,  1)=(     3.01966163,     3.01966163,    -0.00054475,    -0.00054475) ppm
(dia2,par1)(k,t,iat1,spin)=(  2,  2,  3,  2)=(     3.37815460,     6.39781623,     0.00057099,     0.00002625) ppm
(dia2,par1)(k,t,iat1,spin)=(  3,  2,  3,  1)=(     0.10814964,     0.10814964,     0.00308941,     0.00308941) ppm
(dia2,par1)(k,t,iat1,spin)=(  3,  2,  3,  2)=(     0.10006184,     0.20821147,    -0.00323827,    -0.00014886) ppm
(dia2,par1)(k,t,iat1,spin)=(  1,  3,  3,  1)=(     0.98290735,     0.98290735,    -0.00647547,    -0.00647547) ppm
(dia2,par1)(k,t,iat1,spin)=(  1,  3,  3,  2)=(     1.07316254,     2.05606989,     0.00678749,     0.00031202) ppm
(dia2,par1)(k,t,iat1,spin)=(  2,  3,  3,  1)=(     0.23945645,     0.23945645,     0.00308941,     0.00308941) ppm
(dia2,par1)(k,t,iat1,spin)=(  2,  3,  3,  2)=(     0.00503661,     0.24449306,    -0.00323827,    -0.00014886) ppm
(dia2,par1)(k,t,iat1,spin)=(  3,  3,  3,  1)=(     2.78527790,     2.78527790,    -0.01752092,    -0.01752092) ppm
(dia2,par1)(k,t,iat1,spin)=(  3,  3,  3,  2)=(     3.04487900,     5.83015689,     0.01836515,     0.00084423) ppm
 Grid integrated density:       8.000000002321
 Requested integration accuracy:   0.10E-19

 Wrote ZORA NMR data to ./ch2_props4_bp.zora_nmrcs

 In get_NMRHFine_ZORA:: zora:Knucl= F
 dft_zora_Hypefine: ofinite= F
 nat_slc=                    3
In dft_zora_Hyperfine:: atomnr(  1)=    1
In dft_zora_Hyperfine:: atomnr(  2)=    2
In dft_zora_Hyperfine:: atomnr(  3)=    3
 starting at time       8.10s
CHECK:(atom,ofinite,atmass,zetanucl_slc)=(   1,F,    12.00000000,                 680775029.28673279)
 Grid integrated density:       8.000000002321
 Requested integration accuracy:   0.10E-19
gFCSD(  1,  1,  1)=     2.17323449
gFCSD(  1,  1,  2)=    -0.62877373
gFCSD(  1,  1,  3)=     0.39755983
gFCSD(  1,  2,  1)=    -0.62877373
gFCSD(  1,  2,  2)=     2.95803517
gFCSD(  1,  2,  3)=     0.12819797
gFCSD(  1,  3,  1)=     0.39755983
gFCSD(  1,  3,  2)=     0.12819797
gFCSD(  1,  3,  3)=     3.42458390
 starting at time       8.24s
CHECK:(atom,ofinite,atmass,zetanucl_slc)=(   2,F,     1.00782500,                2118265472.55233502)
 Grid integrated density:       8.000000002321
 Requested integration accuracy:   0.10E-19
gFCSD(  2,  1,  1)=    -0.04568894
gFCSD(  2,  1,  2)=     0.11347723
gFCSD(  2,  1,  3)=    -0.01135614
gFCSD(  2,  2,  1)=     0.11347723
gFCSD(  2,  2,  2)=    -0.01958604
gFCSD(  2,  2,  3)=    -0.02237325
gFCSD(  2,  3,  1)=    -0.01135614
gFCSD(  2,  3,  2)=    -0.02237325
gFCSD(  2,  3,  3)=    -0.13030299
 starting at time       8.38s
CHECK:(atom,ofinite,atmass,zetanucl_slc)=(   3,F,     1.00782500,                2118265472.55233502)
 Grid integrated density:       8.000000002321
 Requested integration accuracy:   0.10E-19
gFCSD(  3,  1,  1)=     0.05849120
gFCSD(  3,  1,  2)=     0.02449220
gFCSD(  3,  1,  3)=    -0.06554927
gFCSD(  3,  2,  1)=     0.02449220
gFCSD(  3,  2,  2)=    -0.14567754
gFCSD(  3,  2,  3)=    -0.01171823
gFCSD(  3,  3,  1)=    -0.06554927
gFCSD(  3,  3,  2)=    -0.01171823
gFCSD(  3,  3,  3)=    -0.10839320
 Grid integrated density:       8.000000002321
 Requested integration accuracy:   0.10E-19

 Wrote ZORA NMR data to ./ch2_props4_bp.zora_nmrhyp

(nogshift,skip_gshiftAOev,done_Fji)=( 0,F,T)
In dft_zora_EPR:: slc_spinpolAO=  0
 WARNING: SLC A-B contrib
 In dft_zora_EPR:: zora:Knucl= F
 Grid integrated density:       8.000000002321
 Requested integration accuracy:   0.10E-19
(q1,-q2,q1-q2,q3,dia2,dia1,dia2+dia1)(  1,  1)=(  0.00027733, -0.00010772,  0.00016960, -0.00163961, -0.00147000, -0.01274029, -0.01421029)
(q1,-q2,q1-q2,q3,dia2,dia1,dia2+dia1)(  1,  2)=(  0.00051407,  0.00005139,  0.00056546, -0.00135717, -0.00079171,  0.00328413,  0.00249242)
(q1,-q2,q1-q2,q3,dia2,dia1,dia2+dia1)(  1,  3)=(  0.00014240, -0.00029147, -0.00014907,  0.00000831, -0.00014075, -0.00260584, -0.00274659)
(q1,-q2,q1-q2,q3,dia2,dia1,dia2+dia1)(  2,  1)=(  0.00051404,  0.00005139,  0.00056544, -0.00135722, -0.00079178,  0.00328421,  0.00249243)
(q1,-q2,q1-q2,q3,dia2,dia1,dia2+dia1)(  2,  2)=( -0.00063022, -0.00002452, -0.00065474,  0.00053776, -0.00011699, -0.01653824, -0.01665523)
(q1,-q2,q1-q2,q3,dia2,dia1,dia2+dia1)(  2,  3)=( -0.00037470,  0.00013906, -0.00023564,  0.00076740,  0.00053175, -0.00036397,  0.00016778)
(q1,-q2,q1-q2,q3,dia2,dia1,dia2+dia1)(  3,  1)=(  0.00014240, -0.00029147, -0.00014907,  0.00000831, -0.00014076, -0.00260583, -0.00274659)
(q1,-q2,q1-q2,q3,dia2,dia1,dia2+dia1)(  3,  2)=( -0.00037471,  0.00013906, -0.00023565,  0.00076738,  0.00053173, -0.00036394,  0.00016779)
(q1,-q2,q1-q2,q3,dia2,dia1,dia2+dia1)(  3,  3)=(  0.00029867, -0.00078864, -0.00048996, -0.00083737, -0.00132734, -0.02045894, -0.02178628)

 Wrote ZORA NMR data to ./ch2_props4_bp.zora_nmrgshift


 Wrote ZORA NMR data to ./ch2_props4_bp.zora_nmrgshift_AB

 ==> nlist=                    3
xyz_EFG( 1)=(    -0.01113326,     0.08921179,     0.01984515)
 Grid integrated density:       8.000000002321
 Requested integration accuracy:   0.10E-19
zora-efg(  4,  1,  1,  1,  1)=(    -0.17402520,    -0.17402520)
zora-efg(  4,  1,  1,  2,  1)=(     0.50510194,     0.33107674)
 Grid integrated density:       8.000000002321
 Requested integration accuracy:   0.10E-19
zora-efg(  4,  1,  2,  1,  2)=(    -0.00688260,    -0.00688260)
zora-efg(  4,  1,  2,  2,  2)=(    -0.11303040,    -0.11991301)
 Grid integrated density:       8.000000002321
 Requested integration accuracy:   0.10E-19
zora-efg(  4,  1,  3,  1,  3)=(     0.18090780,     0.18090780)
zora-efg(  4,  1,  3,  2,  3)=(    -0.39207153,    -0.21116373)
 Grid integrated density:       8.000000002321
 Requested integration accuracy:   0.10E-19
zora-efg(  4,  1,  4,  1,  4)=(    -0.14671298,    -0.14671298)
zora-efg(  4,  1,  4,  2,  4)=(     0.48244084,     0.33572786)
 Grid integrated density:       8.000000002321
 Requested integration accuracy:   0.10E-19
zora-efg(  4,  1,  5,  1,  5)=(     0.12093799,     0.12093799)
zora-efg(  4,  1,  5,  2,  5)=(    -0.27686244,    -0.15592444)
 Grid integrated density:       8.000000002321
 Requested integration accuracy:   0.10E-19
zora-efg(  4,  1,  6,  1,  6)=(     0.01365365,     0.01365365)
zora-efg(  4,  1,  6,  2,  6)=(    -0.11462166,    -0.10096800)
xyz_EFG( 2)=(     1.31962754,     1.63258778,    -0.19984535)
 Grid integrated density:       8.000000002321
 Requested integration accuracy:   0.10E-19
zora-efg(  4,  2,  1,  1,  7)=(     0.08881724,     0.08881724)
zora-efg(  4,  2,  1,  2,  7)=(     0.06931169,     0.15812893)
 Grid integrated density:       8.000000002321
 Requested integration accuracy:   0.10E-19
zora-efg(  4,  2,  2,  1,  8)=(     0.20927900,     0.20927900)
zora-efg(  4,  2,  2,  2,  8)=(     0.16367078,     0.37294979)
 Grid integrated density:       8.000000002321
 Requested integration accuracy:   0.10E-19
zora-efg(  4,  2,  3,  1,  9)=(    -0.29809625,    -0.29809625)
zora-efg(  4,  2,  3,  2,  9)=(    -0.23298247,    -0.53107872)
 Grid integrated density:       8.000000002321
 Requested integration accuracy:   0.10E-19
zora-efg(  4,  2,  4,  1, 10)=(     0.46331450,     0.46331450)
zora-efg(  4,  2,  4,  2, 10)=(     0.34982984,     0.81314434)
 Grid integrated density:       8.000000002321
 Requested integration accuracy:   0.10E-19
zora-efg(  4,  2,  5,  1, 11)=(    -0.06496074,    -0.06496074)
zora-efg(  4,  2,  5,  2, 11)=(    -0.05360395,    -0.11856470)
 Grid integrated density:       8.000000002321
 Requested integration accuracy:   0.10E-19
zora-efg(  4,  2,  6,  1, 12)=(    -0.08002489,    -0.08002489)
zora-efg(  4,  2,  6,  2, 12)=(    -0.05765038,    -0.13767527)
xyz_EFG( 3)=(    -1.93544145,    -0.12075430,     0.69401801)
 Grid integrated density:       8.000000002321
 Requested integration accuracy:   0.10E-19
zora-efg(  4,  3,  1,  1, 13)=(     0.51586277,     0.51586277)
zora-efg(  4,  3,  1,  2, 13)=(     0.39217141,     0.90803418)
 Grid integrated density:       8.000000002321
 Requested integration accuracy:   0.10E-19
zora-efg(  4,  3,  2,  1, 14)=(    -0.30759170,    -0.30759170)
zora-efg(  4,  3,  2,  2, 14)=(    -0.22710272,    -0.53469442)
 Grid integrated density:       8.000000002321
 Requested integration accuracy:   0.10E-19
zora-efg(  4,  3,  3,  1, 15)=(    -0.20827107,    -0.20827107)
zora-efg(  4,  3,  3,  2, 15)=(    -0.16506869,    -0.37333975)
 Grid integrated density:       8.000000002321
 Requested integration accuracy:   0.10E-19
zora-efg(  4,  3,  4,  1, 16)=(     0.09853661,     0.09853661)
zora-efg(  4,  3,  4,  2, 16)=(     0.07404297,     0.17257958)
 Grid integrated density:       8.000000002321
 Requested integration accuracy:   0.10E-19
zora-efg(  4,  3,  5,  1, 17)=(    -0.28710157,    -0.28710157)
zora-efg(  4,  3,  5,  2, 17)=(    -0.22154869,    -0.50865025)
 Grid integrated density:       8.000000002321
 Requested integration accuracy:   0.10E-19
zora-efg(  4,  3,  6,  1, 18)=(    -0.03635098,    -0.03635098)
zora-efg(  4,  3,  6,  2, 18)=(    -0.02463143,    -0.06098240)
xyz_EFG( 1)=(    -0.01113326,     0.08921179,     0.01984515)
 Grid integrated density:       8.000000002321
 Requested integration accuracy:   0.10E-19
zora-efg(  3,  1,  1,  1, 19)=(     0.00004142,     0.00004142)
zora-efg(  3,  1,  1,  2, 19)=(    -0.00003578,     0.00000564)
 Grid integrated density:       8.000000002321
 Requested integration accuracy:   0.10E-19
zora-efg(  3,  1,  2,  1, 20)=(    -0.00000180,    -0.00000180)
zora-efg(  3,  1,  2,  2, 20)=(     0.00001070,     0.00000890)
 Grid integrated density:       8.000000002321
 Requested integration accuracy:   0.10E-19
zora-efg(  3,  1,  3,  1, 21)=(    -0.00003962,    -0.00003962)
zora-efg(  3,  1,  3,  2, 21)=(     0.00002508,    -0.00001454)
 Grid integrated density:       8.000000002321
 Requested integration accuracy:   0.10E-19
zora-efg(  3,  1,  4,  1, 22)=(     0.00003638,     0.00003638)
zora-efg(  3,  1,  4,  2, 22)=(    -0.00003532,     0.00000106)
 Grid integrated density:       8.000000002321
 Requested integration accuracy:   0.10E-19
zora-efg(  3,  1,  5,  1, 23)=(    -0.00002687,    -0.00002687)
zora-efg(  3,  1,  5,  2, 23)=(     0.00001811,    -0.00000876)
 Grid integrated density:       8.000000002321
 Requested integration accuracy:   0.10E-19
zora-efg(  3,  1,  6,  1, 24)=(    -0.00000519,    -0.00000519)
zora-efg(  3,  1,  6,  2, 24)=(     0.00000964,     0.00000445)
xyz_EFG( 2)=(     1.31962754,     1.63258778,    -0.19984535)
 Grid integrated density:       8.000000002321
 Requested integration accuracy:   0.10E-19
zora-efg(  3,  2,  1,  1, 25)=(     0.00001474,     0.00001474)
zora-efg(  3,  2,  1,  2, 25)=(     0.00001434,     0.00002907)
 Grid integrated density:       8.000000002321
 Requested integration accuracy:   0.10E-19
zora-efg(  3,  2,  2,  1, 26)=(     0.00004082,     0.00004082)
zora-efg(  3,  2,  2,  2, 26)=(     0.00003554,     0.00007636)
 Grid integrated density:       8.000000002321
 Requested integration accuracy:   0.10E-19
zora-efg(  3,  2,  3,  1, 27)=(    -0.00005555,    -0.00005555)
zora-efg(  3,  2,  3,  2, 27)=(    -0.00004988,    -0.00010543)
 Grid integrated density:       8.000000002321
 Requested integration accuracy:   0.10E-19
zora-efg(  3,  2,  4,  1, 28)=(     0.00008423,     0.00008423)
zora-efg(  3,  2,  4,  2, 28)=(     0.00007582,     0.00016005)
 Grid integrated density:       8.000000002321
 Requested integration accuracy:   0.10E-19
zora-efg(  3,  2,  5,  1, 29)=(    -0.00001185,    -0.00001185)
zora-efg(  3,  2,  5,  2, 29)=(    -0.00001105,    -0.00002290)
 Grid integrated density:       8.000000002321
 Requested integration accuracy:   0.10E-19
zora-efg(  3,  2,  6,  1, 30)=(    -0.00001379,    -0.00001379)
zora-efg(  3,  2,  6,  2, 30)=(    -0.00001263,    -0.00002643)
xyz_EFG( 3)=(    -1.93544145,    -0.12075430,     0.69401801)
 Grid integrated density:       8.000000002321
 Requested integration accuracy:   0.10E-19
zora-efg(  3,  3,  1,  1, 31)=(     0.00009451,     0.00009451)
zora-efg(  3,  3,  1,  2, 31)=(     0.00008487,     0.00017938)
 Grid integrated density:       8.000000002321
 Requested integration accuracy:   0.10E-19
zora-efg(  3,  3,  2,  1, 32)=(    -0.00005574,    -0.00005574)
zora-efg(  3,  3,  2,  2, 32)=(    -0.00004983,    -0.00010556)
 Grid integrated density:       8.000000002321
 Requested integration accuracy:   0.10E-19
zora-efg(  3,  3,  3,  1, 33)=(    -0.00003877,    -0.00003877)
zora-efg(  3,  3,  3,  2, 33)=(    -0.00003504,    -0.00007381)
 Grid integrated density:       8.000000002321
 Requested integration accuracy:   0.10E-19
zora-efg(  3,  3,  4,  1, 34)=(     0.00001608,     0.00001608)
zora-efg(  3,  3,  4,  2, 34)=(     0.00001558,     0.00003165)
 Grid integrated density:       8.000000002321
 Requested integration accuracy:   0.10E-19
zora-efg(  3,  3,  5,  1, 35)=(    -0.00005334,    -0.00005334)
zora-efg(  3,  3,  5,  2, 35)=(    -0.00004774,    -0.00010108)
 Grid integrated density:       8.000000002321
 Requested integration accuracy:   0.10E-19
zora-efg(  3,  3,  6,  1, 36)=(    -0.00000563,    -0.00000563)
zora-efg(  3,  3,  6,  2, 36)=(    -0.00000542,    -0.00001105)

 Wrote ZORA EFGZ4 data to ./ch2_props4_bp.zora_efgz4



         Total DFT energy =      -39.177318716816
      One electron energy =      -63.920913267343
           Coulomb energy =       24.708987888286
    Exchange-Corr. energy =       -6.082730990463
 Nuclear repulsion energy =        6.117337652705

       Scaling correction =        0.008526241094

 Numeric. integr. density =        8.000000000037

     Total iterative time =     14.8s



                    DFT Final Alpha Molecular Orbital Analysis
                    ------------------------------------------

 Vector    1  Occ=1.000000D+00  E=-9.948336D+00
              MO Center= -5.9D-03,  4.7D-02,  1.0D-02, r^2= 2.8D-02
   Bfn.  Coefficient  Atom+Function         Bfn.  Coefficient  Atom+Function  
  ----- ------------  ---------------      ----- ------------  ---------------
     1      0.565788  1 C  s                  2      0.455976  1 C  s          
     6      0.026947  1 C  s          

 Vector    2  Occ=1.000000D+00  E=-6.135660D-01
              MO Center= -7.4D-02,  2.0D-01,  6.2D-02, r^2= 9.2D-01
   Bfn.  Coefficient  Atom+Function         Bfn.  Coefficient  Atom+Function  
  ----- ------------  ---------------      ----- ------------  ---------------
     6      0.507918  1 C  s                 10      0.364956  1 C  s          
     2     -0.179595  1 C  s                  1     -0.116622  1 C  s          
    20      0.106226  2 H  s                 23      0.106213  3 H  s          
    21      0.096613  2 H  s                 24      0.096605  3 H  s          
     8      0.042385  1 C  py                 4      0.025109  1 C  py         

 Vector    3  Occ=1.000000D+00  E=-4.135267D-01
              MO Center= -8.3D-02,  2.2D-01,  7.0D-02, r^2= 1.2D+00
   Bfn.  Coefficient  Atom+Function         Bfn.  Coefficient  Atom+Function  
  ----- ------------  ---------------      ----- ------------  ---------------
     7      0.277217  1 C  px                21      0.190319  2 H  s          
    24     -0.190328  3 H  s                  3      0.181612  1 C  px         
    20      0.153684  2 H  s                 23     -0.153687  3 H  s          
     8      0.149328  1 C  py                11      0.149852  1 C  px         
     4      0.097830  1 C  py                12      0.080720  1 C  py         

 Vector    4  Occ=1.000000D+00  E=-2.368516D-01
              MO Center=  6.4D-02, -1.1D-01, -4.3D-02, r^2= 1.1D+00
   Bfn.  Coefficient  Atom+Function         Bfn.  Coefficient  Atom+Function  
  ----- ------------  ---------------      ----- ------------  ---------------
    12      0.363957  1 C  py                 8      0.348625  1 C  py         
    10     -0.272254  1 C  s                  4      0.230119  1 C  py         
     6     -0.165256  1 C  s                 11     -0.161986  1 C  px         
     7     -0.155163  1 C  px                13      0.124043  1 C  pz         
     9      0.118818  1 C  pz                 3     -0.102418  1 C  px         

 Vector    5  Occ=1.000000D+00  E=-2.058854D-01
              MO Center= -7.7D-03,  5.1D-02,  1.2D-02, r^2= 1.1D+00
   Bfn.  Coefficient  Atom+Function         Bfn.  Coefficient  Atom+Function  
  ----- ------------  ---------------      ----- ------------  ---------------
    13      0.457742  1 C  pz                 9      0.397339  1 C  pz         
     5      0.261014  1 C  pz                11      0.169175  1 C  px         
     7      0.146851  1 C  px                 3      0.096467  1 C  px         
    12     -0.080712  1 C  py                 8     -0.070062  1 C  py         
     4     -0.046024  1 C  py         

 Vector    6  Occ=0.000000D+00  E= 3.771693D-02
              MO Center= -1.8D-01,  4.5D-01,  1.5D-01, r^2= 4.2D+00
   Bfn.  Coefficient  Atom+Function         Bfn.  Coefficient  Atom+Function  
  ----- ------------  ---------------      ----- ------------  ---------------
    10      1.658717  1 C  s                 22     -1.155286  2 H  s          
    25     -1.155429  3 H  s                 12      0.366831  1 C  py         
     6      0.289162  1 C  s                 11     -0.163338  1 C  px         
    21     -0.163584  2 H  s                 24     -0.163608  3 H  s          
    13      0.125049  1 C  pz                 8      0.108351  1 C  py         

 Vector    7  Occ=0.000000D+00  E= 1.001819D-01
              MO Center= -2.6D-01,  6.1D-01,  2.0D-01, r^2= 4.8D+00
   Bfn.  Coefficient  Atom+Function         Bfn.  Coefficient  Atom+Function  
  ----- ------------  ---------------      ----- ------------  ---------------
    22      1.678820  2 H  s                 25     -1.678560  3 H  s          
    11     -0.964044  1 C  px                12     -0.519312  1 C  py         
    13      0.264727  1 C  pz                 7     -0.227155  1 C  px         
     3     -0.152957  1 C  px                 8     -0.122359  1 C  py         
     4     -0.082393  1 C  py                21      0.078392  2 H  s          

 Vector    8  Occ=0.000000D+00  E= 2.318717D-01
              MO Center= -2.7D-01,  6.4D-01,  2.1D-01, r^2= 2.3D+00
   Bfn.  Coefficient  Atom+Function         Bfn.  Coefficient  Atom+Function  
  ----- ------------  ---------------      ----- ------------  ---------------
    21      1.061150  2 H  s                 24      1.061222  3 H  s          
    10     -0.957262  1 C  s                 12     -0.472420  1 C  py         
    22     -0.441732  2 H  s                 25     -0.441985  3 H  s          
    11      0.210211  1 C  px                13     -0.160991  1 C  pz         
    20      0.115900  2 H  s                 23      0.115911  3 H  s          

 Vector    9  Occ=0.000000D+00  E= 3.313412D-01
              MO Center=  1.4D-01, -2.9D-01, -1.0D-01, r^2= 2.6D+00
   Bfn.  Coefficient  Atom+Function         Bfn.  Coefficient  Atom+Function  
  ----- ------------  ---------------      ----- ------------  ---------------
    11      1.713333  1 C  px                21     -1.264440  2 H  s          
    24      1.264326  3 H  s                 12      0.923058  1 C  py         
    13     -0.470462  1 C  pz                22     -0.172471  2 H  s          
    25      0.172340  3 H  s                 20     -0.068210  2 H  s          
    23      0.068207  3 H  s                 15     -0.062141  1 C  dxy        

 Vector   10  Occ=0.000000D+00  E= 3.607839D-01
              MO Center=  1.8D-01, -3.7D-01, -1.3D-01, r^2= 2.1D+00
   Bfn.  Coefficient  Atom+Function         Bfn.  Coefficient  Atom+Function  
  ----- ------------  ---------------      ----- ------------  ---------------
    12      0.944971  1 C  py                 8     -0.733489  1 C  py         
    10     -0.509095  1 C  s                 11     -0.420768  1 C  px         
     6      0.343371  1 C  s                  7      0.326449  1 C  px         
    13      0.322134  1 C  pz                 9     -0.249985  1 C  pz         
     4     -0.219348  1 C  py                21      0.105126  2 H  s          

 Vector   11  Occ=0.000000D+00  E= 3.609097D-01
              MO Center= -5.9D-03,  4.7D-02,  1.0D-02, r^2= 2.4D+00
   Bfn.  Coefficient  Atom+Function         Bfn.  Coefficient  Atom+Function  
  ----- ------------  ---------------      ----- ------------  ---------------
    13      1.075302  1 C  pz                 9     -0.797421  1 C  pz         
    11      0.397415  1 C  px                 7     -0.294715  1 C  px         
     5     -0.240147  1 C  pz                12     -0.189605  1 C  py         
     8      0.140607  1 C  py                 3     -0.088755  1 C  px         
     4      0.042344  1 C  py         

 Vector   12  Occ=0.000000D+00  E= 5.434462D-01
              MO Center= -1.0D-01,  2.6D-01,  8.4D-02, r^2= 3.2D+00
   Bfn.  Coefficient  Atom+Function         Bfn.  Coefficient  Atom+Function  
  ----- ------------  ---------------      ----- ------------  ---------------
    11      1.736306  1 C  px                22     -1.703118  2 H  s          
    25      1.704560  3 H  s                 12      0.934870  1 C  py         
     7     -0.908127  1 C  px                 8     -0.489007  1 C  py         
    13     -0.476870  1 C  pz                21      0.429328  2 H  s          
    24     -0.429439  3 H  s                  9      0.249405  1 C  pz         

 Vector   13  Occ=0.000000D+00  E= 5.569227D-01
              MO Center= -1.7D-01,  4.2D-01,  1.4D-01, r^2= 3.2D+00
   Bfn.  Coefficient  Atom+Function         Bfn.  Coefficient  Atom+Function  
  ----- ------------  ---------------      ----- ------------  ---------------
    10      3.765666  1 C  s                  6     -1.617528  1 C  s          
    22     -1.367322  2 H  s                 25     -1.365353  3 H  s          
    12      0.585678  1 C  py                19     -0.283481  1 C  dzz        
    17     -0.276270  1 C  dyy               14     -0.269203  1 C  dxx        
    11     -0.259495  1 C  px                 8     -0.253571  1 C  py         

 Vector   14  Occ=0.000000D+00  E= 1.175686D+00
              MO Center= -5.9D-03,  4.7D-02,  1.1D-02, r^2= 7.8D-01
   Bfn.  Coefficient  Atom+Function         Bfn.  Coefficient  Atom+Function  
  ----- ------------  ---------------      ----- ------------  ---------------
    16      1.232420  1 C  dxz               18      0.805319  1 C  dyz        
    14      0.506931  1 C  dxx               19     -0.376642  1 C  dzz        
    17     -0.130289  1 C  dyy               15      0.031235  1 C  dxy        

 Vector   15  Occ=0.000000D+00  E= 1.205398D+00
              MO Center= -5.2D-03,  4.6D-02,  9.9D-03, r^2= 7.9D-01
   Bfn.  Coefficient  Atom+Function         Bfn.  Coefficient  Atom+Function  
  ----- ------------  ---------------      ----- ------------  ---------------
    18     -0.762176  1 C  dyz               15      0.720812  1 C  dxy        
    17     -0.658955  1 C  dyy               16      0.609698  1 C  dxz        
    19      0.567019  1 C  dzz               14      0.093990  1 C  dxx        
    10      0.060457  1 C  s                 21     -0.060259  2 H  s          
    24     -0.060271  3 H  s                 12      0.028679  1 C  py         

 Vector   16  Occ=0.000000D+00  E= 1.208479D+00
              MO Center= -5.2D-03,  4.6D-02,  1.0D-02, r^2= 7.8D-01
   Bfn.  Coefficient  Atom+Function         Bfn.  Coefficient  Atom+Function  
  ----- ------------  ---------------      ----- ------------  ---------------
    18      1.314037  1 C  dyz               15      0.626430  1 C  dxy        
    19      0.476509  1 C  dzz               16     -0.446191  1 C  dxz        
    17     -0.246515  1 C  dyy               14     -0.229993  1 C  dxx        

 Vector   17  Occ=0.000000D+00  E= 1.405005D+00
              MO Center= -1.0D-01,  2.6D-01,  8.3D-02, r^2= 1.6D+00
   Bfn.  Coefficient  Atom+Function         Bfn.  Coefficient  Atom+Function  
  ----- ------------  ---------------      ----- ------------  ---------------
    21      1.306896  2 H  s                 24      1.307396  3 H  s          
    15     -1.131745  1 C  dxy               10     -0.819828  1 C  s          
    16      0.783382  1 C  dxz               14     -0.674502  1 C  dxx        
    19      0.527432  1 C  dzz               20     -0.316370  2 H  s          
    23     -0.316449  3 H  s                 12     -0.299886  1 C  py         

 Vector   18  Occ=0.000000D+00  E= 1.422402D+00
              MO Center=  1.3D-03,  3.1D-02,  5.0D-03, r^2= 1.4D+00
   Bfn.  Coefficient  Atom+Function         Bfn.  Coefficient  Atom+Function  
  ----- ------------  ---------------      ----- ------------  ---------------
    21      1.245554  2 H  s                 24     -1.244850  3 H  s          
    15     -1.086921  1 C  dxy               11     -1.010568  1 C  px         
    17     -0.769910  1 C  dyy               16     -0.661646  1 C  dxz        
    14      0.635986  1 C  dxx               12     -0.544457  1 C  py         
    13      0.277488  1 C  pz                20     -0.196101  2 H  s          

 Vector   19  Occ=0.000000D+00  E= 2.138846D+00
              MO Center= -1.4D-01,  3.6D-01,  1.2D-01, r^2= 1.7D+00
   Bfn.  Coefficient  Atom+Function         Bfn.  Coefficient  Atom+Function  
  ----- ------------  ---------------      ----- ------------  ---------------
    21      1.248244  2 H  s                 24     -1.248552  3 H  s          
    20     -0.924868  2 H  s                 23      0.925129  3 H  s          
    22     -0.794617  2 H  s                 25      0.794797  3 H  s          
     7     -0.691835  1 C  px                 3      0.523644  1 C  px         
     8     -0.372587  1 C  py                11      0.318990  1 C  px         

 Vector   20  Occ=0.000000D+00  E= 2.250464D+00
              MO Center= -1.0D-01,  2.6D-01,  8.3D-02, r^2= 1.5D+00
   Bfn.  Coefficient  Atom+Function         Bfn.  Coefficient  Atom+Function  
  ----- ------------  ---------------      ----- ------------  ---------------
    21      0.944741  2 H  s                 24      0.944480  3 H  s          
    20     -0.905282  2 H  s                 23     -0.905056  3 H  s          
    10      0.844988  1 C  s                 19     -0.575960  1 C  dzz        
    22     -0.576740  2 H  s                 25     -0.576536  3 H  s          
     8     -0.563914  1 C  py                15      0.562104  1 C  dxy        

 Vector   21  Occ=0.000000D+00  E= 2.467508D+00
              MO Center= -4.7D-03,  4.5D-02,  9.6D-03, r^2= 8.0D-01
   Bfn.  Coefficient  Atom+Function         Bfn.  Coefficient  Atom+Function  
  ----- ------------  ---------------      ----- ------------  ---------------
     9      1.355237  1 C  pz                 5     -1.207548  1 C  pz         
    13     -0.551812  1 C  pz                 7      0.500875  1 C  px         
     3     -0.446292  1 C  px                 8     -0.238965  1 C  py         
     4      0.212923  1 C  py                11     -0.203942  1 C  px         
    12      0.097299  1 C  py         

 Vector   22  Occ=0.000000D+00  E= 2.513970D+00
              MO Center=  1.0D-01, -1.9D-01, -7.2D-02, r^2= 8.6D-01
   Bfn.  Coefficient  Atom+Function         Bfn.  Coefficient  Atom+Function  
  ----- ------------  ---------------      ----- ------------  ---------------
     8      1.053057  1 C  py                 4     -0.938475  1 C  py         
     6      0.906233  1 C  s                 10      0.880993  1 C  s          
    19     -0.778672  1 C  dzz               17     -0.693369  1 C  dyy        
    14     -0.544890  1 C  dxx                7     -0.468713  1 C  px         
     3      0.417721  1 C  px                12     -0.380450  1 C  py         

 Vector   23  Occ=0.000000D+00  E= 2.860478D+00
              MO Center= -1.0D-01,  2.7D-01,  8.6D-02, r^2= 9.5D-01
   Bfn.  Coefficient  Atom+Function         Bfn.  Coefficient  Atom+Function  
  ----- ------------  ---------------      ----- ------------  ---------------
    10      1.879668  1 C  s                  6      1.817816  1 C  s          
    14     -1.517522  1 C  dxx               17     -1.315487  1 C  dyy        
    19     -1.189589  1 C  dzz                8     -0.567284  1 C  py         
     2     -0.537736  1 C  s                 20      0.524193  2 H  s          
    23      0.524459  3 H  s                  4      0.423694  1 C  py         

 Vector   24  Occ=0.000000D+00  E= 2.942011D+00
              MO Center= -4.6D-02,  1.4D-01,  4.1D-02, r^2= 8.8D-01
   Bfn.  Coefficient  Atom+Function         Bfn.  Coefficient  Atom+Function  
  ----- ------------  ---------------      ----- ------------  ---------------
     7      1.418165  1 C  px                 3     -1.048423  1 C  px         
    11     -0.903474  1 C  px                 8      0.764095  1 C  py         
    20     -0.660416  2 H  s                 23      0.660100  3 H  s          
     4     -0.564870  1 C  py                12     -0.486767  1 C  py         
     9     -0.389402  1 C  pz                22      0.381027  2 H  s          

 Vector   25  Occ=0.000000D+00  E= 2.588604D+01
              MO Center= -6.3D-03,  4.8D-02,  1.1D-02, r^2= 1.4D-01
   Bfn.  Coefficient  Atom+Function         Bfn.  Coefficient  Atom+Function  
  ----- ------------  ---------------      ----- ------------  ---------------
     2      2.547061  1 C  s                  1     -2.105357  1 C  s          
     6     -1.122477  1 C  s                 10     -0.619415  1 C  s          
    14      0.608694  1 C  dxx               17      0.593175  1 C  dyy        
    19      0.583358  1 C  dzz               22      0.161628  2 H  s          
    25      0.161611  3 H  s                 12     -0.051135  1 C  py         


                     DFT Final Beta Molecular Orbital Analysis
                     -----------------------------------------

 Vector    1  Occ=1.000000D+00  E=-9.920883D+00
              MO Center= -5.9D-03,  4.7D-02,  1.1D-02, r^2= 2.8D-02
   Bfn.  Coefficient  Atom+Function         Bfn.  Coefficient  Atom+Function  
  ----- ------------  ---------------      ----- ------------  ---------------
     1      0.567120  1 C  s                  2      0.456695  1 C  s          

 Vector    2  Occ=1.000000D+00  E=-5.506317D-01
              MO Center= -1.0D-01,  2.6D-01,  8.4D-02, r^2= 9.8D-01
   Bfn.  Coefficient  Atom+Function         Bfn.  Coefficient  Atom+Function  
  ----- ------------  ---------------      ----- ------------  ---------------
     6      0.443711  1 C  s                 10      0.308260  1 C  s          
     2     -0.162318  1 C  s                 21      0.133278  2 H  s          
    24      0.133265  3 H  s                 20      0.119538  2 H  s          
    23      0.119521  3 H  s                  1     -0.107567  1 C  s          
     8      0.072556  1 C  py                15      0.048000  1 C  dxy        

 Vector    3  Occ=1.000000D+00  E=-3.945742D-01
              MO Center= -9.3D-02,  2.4D-01,  7.7D-02, r^2= 1.3D+00
   Bfn.  Coefficient  Atom+Function         Bfn.  Coefficient  Atom+Function  
  ----- ------------  ---------------      ----- ------------  ---------------
     7      0.255499  1 C  px                21      0.214422  2 H  s          
    24     -0.214438  3 H  s                  3      0.173086  1 C  px         
    20      0.160853  2 H  s                 23     -0.160860  3 H  s          
     8      0.137624  1 C  py                11      0.125191  1 C  px         
    22      0.097840  2 H  s                 25     -0.097849  3 H  s          

 Vector    4  Occ=0.000000D+00  E=-1.100769D-01
              MO Center=  9.3D-02, -1.8D-01, -6.6D-02, r^2= 1.3D+00
   Bfn.  Coefficient  Atom+Function         Bfn.  Coefficient  Atom+Function  
  ----- ------------  ---------------      ----- ------------  ---------------
    12      0.441368  1 C  py                10     -0.388410  1 C  s          
     8      0.269614  1 C  py                 4      0.205744  1 C  py         
    11     -0.196432  1 C  px                 6     -0.168023  1 C  s          
    13      0.150424  1 C  pz                 7     -0.119995  1 C  px         
    21      0.097471  2 H  s                 24      0.097477  3 H  s          

 Vector    5  Occ=0.000000D+00  E=-8.574801D-02
              MO Center= -1.3D-02,  6.3D-02,  1.6D-02, r^2= 1.3D+00
   Bfn.  Coefficient  Atom+Function         Bfn.  Coefficient  Atom+Function  
  ----- ------------  ---------------      ----- ------------  ---------------
    13      0.556197  1 C  pz                 9      0.320995  1 C  pz         
     5      0.237089  1 C  pz                11      0.205562  1 C  px         
     7      0.118635  1 C  px                12     -0.098072  1 C  py         
     3      0.087624  1 C  px                 8     -0.056600  1 C  py         
     4     -0.041805  1 C  py                18      0.035330  1 C  dyz        

 Vector    6  Occ=0.000000D+00  E= 5.671645D-02
              MO Center= -1.9D-01,  4.6D-01,  1.5D-01, r^2= 4.4D+00
   Bfn.  Coefficient  Atom+Function         Bfn.  Coefficient  Atom+Function  
  ----- ------------  ---------------      ----- ------------  ---------------
    10      1.789882  1 C  s                 22     -1.219963  2 H  s          
    25     -1.220106  3 H  s                 12      0.379757  1 C  py         
     6      0.240479  1 C  s                 11     -0.169088  1 C  px         
    13      0.129454  1 C  pz                21     -0.126033  2 H  s          
    24     -0.126045  3 H  s                  8      0.107698  1 C  py         

 Vector    7  Occ=0.000000D+00  E= 1.105479D-01
              MO Center= -2.6D-01,  6.2D-01,  2.1D-01, r^2= 4.9D+00
   Bfn.  Coefficient  Atom+Function         Bfn.  Coefficient  Atom+Function  
  ----- ------------  ---------------      ----- ------------  ---------------
    22      1.716330  2 H  s                 25     -1.716078  3 H  s          
    11     -0.957618  1 C  px                12     -0.515849  1 C  py         
    13      0.262963  1 C  pz                 7     -0.207689  1 C  px         
     3     -0.148597  1 C  px                 8     -0.111874  1 C  py         
     4     -0.080044  1 C  py                 9      0.057032  1 C  pz         

 Vector    8  Occ=0.000000D+00  E= 2.629601D-01
              MO Center= -2.7D-01,  6.4D-01,  2.1D-01, r^2= 2.3D+00
   Bfn.  Coefficient  Atom+Function         Bfn.  Coefficient  Atom+Function  
  ----- ------------  ---------------      ----- ------------  ---------------
    21      1.080188  2 H  s                 24      1.080297  3 H  s          
    10     -0.934246  1 C  s                 12     -0.467641  1 C  py         
    22     -0.438654  2 H  s                 25     -0.438881  3 H  s          
    11      0.208117  1 C  px                13     -0.159375  1 C  pz         
    20      0.119059  2 H  s                 23      0.119072  3 H  s          

 Vector    9  Occ=0.000000D+00  E= 3.628865D-01
              MO Center=  1.5D-01, -3.0D-01, -1.1D-01, r^2= 2.5D+00
   Bfn.  Coefficient  Atom+Function         Bfn.  Coefficient  Atom+Function  
  ----- ------------  ---------------      ----- ------------  ---------------
    11      1.762883  1 C  px                21     -1.276045  2 H  s          
    24      1.275888  3 H  s                 12      0.949697  1 C  py         
    13     -0.484078  1 C  pz                22     -0.234078  2 H  s          
    25      0.233963  3 H  s                 20     -0.068033  2 H  s          
    23      0.068025  3 H  s                  7      0.065475  1 C  px         

 Vector   10  Occ=0.000000D+00  E= 4.512163D-01
              MO Center= -6.5D-03,  4.9D-02,  1.1D-02, r^2= 2.2D+00
   Bfn.  Coefficient  Atom+Function         Bfn.  Coefficient  Atom+Function  
  ----- ------------  ---------------      ----- ------------  ---------------
    13      1.034841  1 C  pz                 9     -0.848288  1 C  pz         
    11      0.382462  1 C  px                 7     -0.313515  1 C  px         
     5     -0.247767  1 C  pz                12     -0.182470  1 C  py         
     8      0.149576  1 C  py                 3     -0.091571  1 C  px         
     4      0.043688  1 C  py         

 Vector   11  Occ=0.000000D+00  E= 4.537888D-01
              MO Center=  1.4D-01, -2.9D-01, -1.0D-01, r^2= 2.0D+00
   Bfn.  Coefficient  Atom+Function         Bfn.  Coefficient  Atom+Function  
  ----- ------------  ---------------      ----- ------------  ---------------
    12      0.965709  1 C  py                 8     -0.794318  1 C  py         
    11     -0.429910  1 C  px                 7      0.353533  1 C  px         
    13      0.329169  1 C  pz                 9     -0.270720  1 C  pz         
     4     -0.230640  1 C  py                 6      0.208318  1 C  s          
    22     -0.181249  2 H  s                 25     -0.181308  3 H  s          

 Vector   12  Occ=0.000000D+00  E= 5.683794D-01
              MO Center= -9.7D-02,  2.5D-01,  8.0D-02, r^2= 3.1D+00
   Bfn.  Coefficient  Atom+Function         Bfn.  Coefficient  Atom+Function  
  ----- ------------  ---------------      ----- ------------  ---------------
    11      1.698988  1 C  px                22     -1.660955  2 H  s          
    25      1.661377  3 H  s                  7     -0.927831  1 C  px         
    12      0.915057  1 C  py                 8     -0.499757  1 C  py         
    13     -0.466571  1 C  pz                21      0.448026  2 H  s          
    24     -0.447993  3 H  s                  9      0.254792  1 C  pz         

 Vector   13  Occ=0.000000D+00  E= 6.061364D-01
              MO Center= -1.4D-01,  3.6D-01,  1.2D-01, r^2= 3.1D+00
   Bfn.  Coefficient  Atom+Function         Bfn.  Coefficient  Atom+Function  
  ----- ------------  ---------------      ----- ------------  ---------------
    10      3.749463  1 C  s                  6     -1.639525  1 C  s          
    22     -1.306089  2 H  s                 25     -1.305369  3 H  s          
    12      0.500294  1 C  py                14     -0.311449  1 C  dxx        
    17     -0.296336  1 C  dyy               19     -0.287078  1 C  dzz        
    11     -0.222278  1 C  px                 8     -0.192892  1 C  py         

 Vector   14  Occ=0.000000D+00  E= 1.249490D+00
              MO Center= -5.9D-03,  4.7D-02,  1.1D-02, r^2= 7.8D-01
   Bfn.  Coefficient  Atom+Function         Bfn.  Coefficient  Atom+Function  
  ----- ------------  ---------------      ----- ------------  ---------------
    16      1.232433  1 C  dxz               18      0.805282  1 C  dyz        
    14      0.506937  1 C  dxx               19     -0.376655  1 C  dzz        
    17     -0.130282  1 C  dyy               15      0.031218  1 C  dxy        

 Vector   15  Occ=0.000000D+00  E= 1.346447D+00
              MO Center= -2.5D-03,  4.0D-02,  7.9D-03, r^2= 8.1D-01
   Bfn.  Coefficient  Atom+Function         Bfn.  Coefficient  Atom+Function  
  ----- ------------  ---------------      ----- ------------  ---------------
    15      0.866048  1 C  dxy               18     -0.780372  1 C  dyz        
    17     -0.654989  1 C  dyy               16      0.498088  1 C  dxz        
    19      0.489395  1 C  dzz               21     -0.240680  2 H  s          
    24     -0.240698  3 H  s                 10      0.189474  1 C  s          
    14      0.182984  1 C  dxx               12      0.066133  1 C  py         

 Vector   16  Occ=0.000000D+00  E= 1.355670D+00
              MO Center= -5.3D-04,  3.5D-02,  6.4D-03, r^2= 7.8D-01
   Bfn.  Coefficient  Atom+Function         Bfn.  Coefficient  Atom+Function  
  ----- ------------  ---------------      ----- ------------  ---------------
    18      1.313273  1 C  dyz               15      0.626056  1 C  dxy        
    19      0.476213  1 C  dzz               16     -0.445890  1 C  dxz        
    17     -0.246372  1 C  dyy               14     -0.229842  1 C  dxx        
     5     -0.030847  1 C  pz         

 Vector   17  Occ=0.000000D+00  E= 1.461544D+00
              MO Center= -1.0D-01,  2.6D-01,  8.3D-02, r^2= 1.6D+00
   Bfn.  Coefficient  Atom+Function         Bfn.  Coefficient  Atom+Function  
  ----- ------------  ---------------      ----- ------------  ---------------
    21      1.305492  2 H  s                 24      1.305906  3 H  s          
    15     -0.996880  1 C  dxy               16      0.840479  1 C  dxz        
    10     -0.817277  1 C  s                 14     -0.646618  1 C  dxx        
    19      0.580162  1 C  dzz               20     -0.355811  2 H  s          
    23     -0.355888  3 H  s                 12     -0.287325  1 C  py         

 Vector   18  Occ=0.000000D+00  E= 1.479086D+00
              MO Center=  3.1D-03,  2.7D-02,  3.7D-03, r^2= 1.4D+00
   Bfn.  Coefficient  Atom+Function         Bfn.  Coefficient  Atom+Function  
  ----- ------------  ---------------      ----- ------------  ---------------
    21      1.256423  2 H  s                 24     -1.255822  3 H  s          
    15     -1.077357  1 C  dxy               11     -1.000035  1 C  px         
    17     -0.763194  1 C  dyy               16     -0.655884  1 C  dxz        
    14      0.630457  1 C  dxx               12     -0.538766  1 C  py         
    13      0.274599  1 C  pz                20     -0.227629  2 H  s          

 Vector   19  Occ=0.000000D+00  E= 2.153520D+00
              MO Center= -1.4D-01,  3.5D-01,  1.1D-01, r^2= 1.7D+00
   Bfn.  Coefficient  Atom+Function         Bfn.  Coefficient  Atom+Function  
  ----- ------------  ---------------      ----- ------------  ---------------
    21      1.221055  2 H  s                 24     -1.221346  3 H  s          
    20     -0.924248  2 H  s                 23      0.924500  3 H  s          
    22     -0.785576  2 H  s                 25      0.785745  3 H  s          
     7     -0.670152  1 C  px                 3      0.513534  1 C  px         
     8     -0.360918  1 C  py                15      0.331322  1 C  dxy        

 Vector   20  Occ=0.000000D+00  E= 2.282807D+00
              MO Center= -9.8D-02,  2.5D-01,  8.1D-02, r^2= 1.5D+00
   Bfn.  Coefficient  Atom+Function         Bfn.  Coefficient  Atom+Function  
  ----- ------------  ---------------      ----- ------------  ---------------
    20     -0.920818  2 H  s                 21      0.924583  2 H  s          
    23     -0.920602  3 H  s                 24      0.924347  3 H  s          
    10      0.876746  1 C  s                 19     -0.621538  1 C  dzz        
    15      0.615587  1 C  dxy               22     -0.572049  2 H  s          
    25     -0.571853  3 H  s                  8     -0.477924  1 C  py         

 Vector   21  Occ=0.000000D+00  E= 2.584326D+00
              MO Center= -3.5D-03,  4.2D-02,  8.7D-03, r^2= 7.7D-01
   Bfn.  Coefficient  Atom+Function         Bfn.  Coefficient  Atom+Function  
  ----- ------------  ---------------      ----- ------------  ---------------
     9      1.344578  1 C  pz                 5     -1.210595  1 C  pz         
    13     -0.538627  1 C  pz                 7      0.496936  1 C  px         
     3     -0.447418  1 C  px                 8     -0.237085  1 C  py         
     4      0.213460  1 C  py                11     -0.199068  1 C  px         
    12      0.094974  1 C  py         

 Vector   22  Occ=0.000000D+00  E= 2.638687D+00
              MO Center=  9.7D-02, -1.8D-01, -6.9D-02, r^2= 8.0D-01
   Bfn.  Coefficient  Atom+Function         Bfn.  Coefficient  Atom+Function  
  ----- ------------  ---------------      ----- ------------  ---------------
     8      1.110689  1 C  py                 4     -0.992291  1 C  py         
     6      0.793560  1 C  s                 10      0.703149  1 C  s          
    19     -0.671245  1 C  dzz               17     -0.594225  1 C  dyy        
     7     -0.494371  1 C  px                 3      0.441678  1 C  px         
    14     -0.440658  1 C  dxx               12     -0.403978  1 C  py         

 Vector   23  Occ=0.000000D+00  E= 2.934858D+00
              MO Center= -9.5D-02,  2.5D-01,  7.9D-02, r^2= 9.5D-01
   Bfn.  Coefficient  Atom+Function         Bfn.  Coefficient  Atom+Function  
  ----- ------------  ---------------      ----- ------------  ---------------
    10      1.909233  1 C  s                  6      1.892101  1 C  s          
    14     -1.546560  1 C  dxx               17     -1.356739  1 C  dyy        
    19     -1.239652  1 C  dzz                2     -0.556949  1 C  s          
     8     -0.513265  1 C  py                20      0.484941  2 H  s          
    23      0.485487  3 H  s                 22     -0.415097  2 H  s          

 Vector   24  Occ=0.000000D+00  E= 2.975847D+00
              MO Center= -4.5D-02,  1.4D-01,  4.1D-02, r^2= 8.7D-01
   Bfn.  Coefficient  Atom+Function         Bfn.  Coefficient  Atom+Function  
  ----- ------------  ---------------      ----- ------------  ---------------
     7      1.422736  1 C  px                 3     -1.054124  1 C  px         
    11     -0.898815  1 C  px                 8      0.766691  1 C  py         
    20     -0.650372  2 H  s                 23      0.649856  3 H  s          
     4     -0.568037  1 C  py                12     -0.484342  1 C  py         
     9     -0.390633  1 C  pz                22      0.384292  2 H  s          

 Vector   25  Occ=0.000000D+00  E= 2.593458D+01
              MO Center= -6.3D-03,  4.8D-02,  1.1D-02, r^2= 1.4D-01
   Bfn.  Coefficient  Atom+Function         Bfn.  Coefficient  Atom+Function  
  ----- ------------  ---------------      ----- ------------  ---------------
     2      2.548008  1 C  s                  1     -2.104832  1 C  s          
     6     -1.125885  1 C  s                 10     -0.619261  1 C  s          
    14      0.610160  1 C  dxx               17      0.594248  1 C  dyy        
    19      0.584238  1 C  dzz               22      0.161600  2 H  s          
    25      0.161583  3 H  s                 12     -0.051154  1 C  py         


   alpha - beta orbital overlaps 
   ----------------------------- 


   alpha      1      2      3      4      5      6      7      8      9     10
    beta      1      2      3      4      5      6      7      8      9     11
 overlap   1.000  0.994  0.999  0.991  0.995  0.997  0.998  0.998  0.999  0.991


   alpha     11     12     13     14     15     16     17     18     19     20
    beta     10     12     13     14     15     16     17     18     19     20
 overlap   0.995  0.999  0.994  1.000  0.990  1.000  0.989  0.999  0.999  0.997


   alpha     21     22     23     24     25
    beta     21     22     23     24     25
 overlap   1.000  0.996  0.998  1.000  1.000

     --------------------------
     Expectation value of S2:  
     --------------------------
      <S2> =      2.0057 (Exact =     2.0000)


 center of mass
 --------------
 x =  -0.05381355 y =   0.18509345 z =   0.05252566

 moments of inertia (a.u.)
 ------------------
           2.807967633785          -2.534492470381           1.582561809270
          -2.534492470381           5.982926667838           0.528296823286
           1.582561809270           0.528296823286           7.807417870267

     Multipole analysis of the density
     ---------------------------------

     L   x y z        total         alpha         beta         nuclear
     -   - - -        -----         -----         ----         -------
     0   0 0 0     -0.000000     -5.000000     -3.000000      8.000000

     1   1 0 0     -0.102997      0.200507      0.379109     -0.682613
     1   0 1 0      0.231422     -0.771397     -1.044285      2.047104
     1   0 0 1      0.078872     -0.210123     -0.324249      0.613244

     2   2 0 0     -4.683138     -5.986654     -4.184578      5.488094
     2   1 1 0      0.571702     -0.584065     -1.226394      2.382161
     2   1 0 1     -0.427993      0.382712      0.797573     -1.608278
     2   0 2 0     -5.340467     -5.321626     -2.746518      2.727677
     2   0 1 1     -0.074910      0.101400      0.223138     -0.399448
     2   0 0 2     -5.968961     -4.796047     -1.696875      0.523962


               ZORA NMR Hyperfine
               ------------------


            Hyperfine Tensor (in au)
            ------------------------


int_init: setting std/high accuracies to  1.0D-32  1.0D-64
  int_init: cando_txs set to always be  F
nat_slc=   3
 In hnd_hyperfine_zora:: atomnr(  1)=    1
 In hnd_hyperfine_zora:: atomnr(  2)=    2
 In hnd_hyperfine_zora:: atomnr(  3)=    3
(con,gnu,isonr,const_hfine)(  1,  1)=(    95.52131600,     1.40482200, 13,   134.19044619)
(con,gnu,isonr,const_hfine)(  2,  2)=(    95.52131600,     5.58568920,  1,   533.55238316)
(con,gnu,isonr,const_hfine)(  3,  3)=(    95.52131600,     5.58568920,  1,   533.55238316)

 Read ZORA NMR data from ./ch2_props4_bp.zora_nmrhyp

                                NWChem CPHF Module
                                ------------------



int_init: setting std/high accuracies to  1.0D-32  1.0D-64
  int_init: cando_txs set to always be  F
  scftype          =     UHF 
  nalpha           =        5
  nbeta            =        3
  variables        =      166
  # of vectors     =        3
  tolerance        = 0.10D-03
  level shift      = 0.00D+00
  max iterations   =       50
  max subspace     =       30

 Grid integrated density:       8.000000000037
 Requested integration accuracy:   0.10E-19
 SCF residual:    8.6975540715804542E-006


Iterative solution of linear equations
  No. of variables      166
  No. of equations        3
  Maximum subspace       30
        Iterations       50
       Convergence  1.0D-04
        Start time     17.7


   iter   nsub   residual    time
   ----  ------  --------  ---------
     1      3    6.77D-10      18.4

 Wrote CPHF data to ./ch2_props4_bp.zora_hypcphf


int_init: setting std/high accuracies to  1.0D-32  1.0D-64
  int_init: cando_txs set to always be  F
NATOMS=  3
NW:(dia,par,dia+par)(1,1,1)=(     1.08661725     -0.00000000      1.08661725 )
NW:(dia,par,dia+par)(1,2,1)=(    -0.31438686     -0.00000000     -0.31438686 )
NW:(dia,par,dia+par)(1,3,1)=(     0.19877991     -0.00000000      0.19877991 )
NW:(dia,par,dia+par)(2,1,1)=(    -0.31438686     -0.00000000     -0.31438686 )
NW:(dia,par,dia+par)(2,2,1)=(     1.47901758     -0.00000000      1.47901758 )
NW:(dia,par,dia+par)(2,3,1)=(     0.06409899     -0.00000000      0.06409899 )
NW:(dia,par,dia+par)(3,1,1)=(     0.19877991     -0.00000000      0.19877991 )
NW:(dia,par,dia+par)(3,2,1)=(     0.06409899     -0.00000000      0.06409899 )
NW:(dia,par,dia+par)(3,3,1)=(     1.71229195     -0.00000000      1.71229195 )
NW:(dia,par,dia+par)(1,1,2)=(    -0.02284447     -0.00000000     -0.02284447 )
NW:(dia,par,dia+par)(1,2,2)=(     0.05673862     -0.00000000      0.05673862 )
NW:(dia,par,dia+par)(1,3,2)=(    -0.00567807     -0.00000000     -0.00567807 )
NW:(dia,par,dia+par)(2,1,2)=(     0.05673862     -0.00000000      0.05673862 )
NW:(dia,par,dia+par)(2,2,2)=(    -0.00979302     -0.00000000     -0.00979302 )
NW:(dia,par,dia+par)(2,3,2)=(    -0.01118663     -0.00000000     -0.01118663 )
NW:(dia,par,dia+par)(3,1,2)=(    -0.00567807     -0.00000000     -0.00567807 )
NW:(dia,par,dia+par)(3,2,2)=(    -0.01118663     -0.00000000     -0.01118663 )
NW:(dia,par,dia+par)(3,3,2)=(    -0.06515149     -0.00000000     -0.06515149 )
NW:(dia,par,dia+par)(1,1,3)=(     0.02924560     -0.00000000      0.02924560 )
NW:(dia,par,dia+par)(1,2,3)=(     0.01224610     -0.00000000      0.01224610 )
NW:(dia,par,dia+par)(1,3,3)=(    -0.03277464     -0.00000000     -0.03277464 )
NW:(dia,par,dia+par)(2,1,3)=(     0.01224610     -0.00000000      0.01224610 )
NW:(dia,par,dia+par)(2,2,3)=(    -0.07283877     -0.00000000     -0.07283877 )
NW:(dia,par,dia+par)(2,3,3)=(    -0.00585911     -0.00000000     -0.00585911 )
NW:(dia,par,dia+par)(3,1,3)=(    -0.03277464     -0.00000000     -0.03277464 )
NW:(dia,par,dia+par)(3,2,3)=(    -0.00585911     -0.00000000     -0.00585911 )
NW:(dia,par,dia+par)(3,3,3)=(    -0.05419660     -0.00000000     -0.05419660 )
      Atom:    1  C 

 ----- A-tensor in atomic units ----         ------------- A (MHz) ------------

 FC, SD terms:
  isotropic    A(au)      1.4260                           A(MHz)    191.3523
      1.0866     -0.3144      0.1988           145.8137    -42.1877     26.6744
     -0.3144      1.4790      0.0641           -42.1877    198.4700      8.6015
      0.1988      0.0641      1.7123            26.6744      8.6015    229.7732

 PSO-Spin-Orbit terms:
  isotropic    A(au)     -0.0000                           A(MHz)     -0.0000
     -0.0000     -0.0000     -0.0000            -0.0000     -0.0000     -0.0000
     -0.0000     -0.0000     -0.0000            -0.0000     -0.0000     -0.0000
     -0.0000     -0.0000     -0.0000            -0.0000     -0.0000     -0.0000

 Total hyperfine coupling tensor:
  isotropic    A(au)      1.4260                           A(MHz)    191.3523
      1.0866     -0.3144      0.1988           145.8137    -42.1877     26.6744
     -0.3144      1.4790      0.0641           -42.1877    198.4700      8.6015
      0.1988      0.0641      1.7123            26.6744      8.6015    229.7732

 In principal axis representation: total span,skew and asymm
        span        skew       asymm               span        skew       asymm
      0.9118     -0.7068      2.2328           122.3508    -94.8444    299.6256

 Principal Components and Axis System
        1           2           3                 1           2           3
      0.8627      1.6408      1.7745           115.7642    220.1777    238.1150

1     0.8557     -0.3882      0.3420
2     0.4610      0.8723     -0.1632
3    -0.2350      0.2973      0.9254



      Atom:    2  H 

 ----- A-tensor in atomic units ----         ------------- A (MHz) ------------

 FC, SD terms:
  isotropic    A(au)     -0.0326                           A(MHz)    -17.3918
     -0.0228      0.0567     -0.0057           -12.1887     30.2730     -3.0295
      0.0567     -0.0098     -0.0112            30.2730     -5.2251     -5.9687
     -0.0057     -0.0112     -0.0652            -3.0295     -5.9687    -34.7617

 PSO-Spin-Orbit terms:
[...]
        0.111956      -0.163176       0.980224
       -0.327059       0.925417       0.191407
  

int_init: setting std/high accuracies to  1.0D-32  1.0D-64
  int_init: cando_txs set to always be  F

          --------------------------
          Z4-Electric field gradient
          --------------------------

 1 a.u. = 0.324123 10**(16) esu/cm**3  ( or statvolts/cm**2 ) = 0.97174 10**(22) v/m**2 

 nat_slc=                    3
In hnd_efgmap_z4:: atomnr(  1)=    1
In hnd_efgmap_z4:: atomnr(  2)=    2
In hnd_efgmap_z4:: atomnr(  3)=    3

 Read ZORA EFGZ4 data from ./ch2_props4_bp.zora_efgz4

Atom(  1,  1)=(    -0.01113326,     0.08921179,     0.01984515)
Atom(  2,  2)=(     1.31962754,     1.63258778,    -0.19984535)
Atom(  3,  3)=(    -1.93544145,    -0.12075430,     0.69401801)
====> Electronic contribution to EFG in molecular frame (a.u.)
                     XX            YY            ZZ            XY            XZ            YZ
                ----------------------------------------------------------------------------------
  ANALYT(C )=(   0.33107684,  -0.11991304,  -0.21116380,   0.33572795,  -0.15592449,  -0.10096802)
  NUMERI(C )=(   0.33107674,  -0.11991301,  -0.21116373,   0.33572786,  -0.15592444,  -0.10096800)
  ANALYT(H )=(   0.15812894,   0.37294978,  -0.53107872,   0.81314433,  -0.11856470,  -0.13767527)
  NUMERI(H )=(   0.15812893,   0.37294979,  -0.53107872,   0.81314434,  -0.11856470,  -0.13767527)
  ANALYT(H )=(   0.90803417,  -0.53469442,  -0.37333975,   0.17257958,  -0.50865025,  -0.06098240)
  NUMERI(H )=(   0.90803418,  -0.53469442,  -0.37333975,   0.17257958,  -0.50865025,  -0.06098240)
Atom(  1,  1)=(    -0.01113326,     0.08921179,     0.01984515)
Atom(  2,  2)=(     1.31962754,     1.63258778,    -0.19984535)
Atom(  3,  3)=(    -1.93544145,    -0.12075430,     0.69401801)
====> Electronic contribution to EFG in molecular frame (a.u.)
                     XX            YY            ZZ            XY            XZ            YZ
                ----------------------------------------------------------------------------------
EFG-elec(C )=(   0.33107083,  -0.11991111,  -0.21115972,   0.33572197,  -0.15592152,  -0.10096633)
EFG-rhoS(C )=(   0.00000564,   0.00000890,  -0.00001454,   0.00000106,  -0.00000876,   0.00000445)
EFG-tot (C )=(   0.33107647,  -0.11990221,  -0.21117426,   0.33572303,  -0.15593028,  -0.10096188)
EFG-elec(H )=(   0.15809943,   0.37287436,  -0.53097379,   0.81298470,  -0.11854176,  -0.13764875)
EFG-rhoS(H )=(   0.00002907,   0.00007636,  -0.00010543,   0.00016005,  -0.00002290,  -0.00002643)
EFG-tot (H )=(   0.15812851,   0.37295072,  -0.53107923,   0.81314475,  -0.11856465,  -0.13767517)
EFG-elec(H )=(   0.90785543,  -0.53458920,  -0.37326623,   0.17254743,  -0.50854968,  -0.06097114)
EFG-rhoS(H )=(   0.00017938,  -0.00010556,  -0.00007381,   0.00003165,  -0.00010108,  -0.00001105)
EFG-tot (H )=(   0.90803481,  -0.53469477,  -0.37334004,   0.17257909,  -0.50865076,  -0.06098219)

 ------------------------------------------------------------
   Atom      X         Y         Z
 ------------------------------------------------------------
    1 C   -0.01113   0.08921   0.01985
 ------------------------------------------------------------

 Electric field gradient in molecular frame (a.u.)
         XX             YY             ZZ             XY             XZ             YZ
 ------------------------------------------------------------------------------------------
        0.109460      -0.088844      -0.020616       0.131907      -0.024129      -0.061109

 Principal components (a.u.) and orientation 
 of principal axis w.r.t. absolute frame                      Asymmetry parameter eta
 --------------------------------------------------------------------------------------
        0.187149      -0.168390      -0.018759                       0.799533

        0.855721      -0.388282       0.342020
        0.461008       0.872264      -0.163176
       -0.234974       0.297307       0.925417
  

 ------------------------------------------------------------
   Atom      X         Y         Z
 ------------------------------------------------------------
    2 H    1.31963   1.63259  -0.19985
 ------------------------------------------------------------

 Electric field gradient in molecular frame (a.u.)
         XX             YY             ZZ             XY             XZ             YZ
 ------------------------------------------------------------------------------------------
       -0.047976      -0.108865       0.156840      -0.230264       0.037860       0.036932

 Principal components (a.u.) and orientation 
 of principal axis w.r.t. absolute frame                      Asymmetry parameter eta
 --------------------------------------------------------------------------------------
       -0.316562       0.164320       0.152241                       0.038157

        0.655816       0.342020       0.672999
        0.746759      -0.163176      -0.644767
       -0.110706       0.925417      -0.362420
  

 ------------------------------------------------------------
   Atom      X         Y         Z
 ------------------------------------------------------------
    3 H   -1.93544  -0.12075   0.69402
 ------------------------------------------------------------

 Electric field gradient in molecular frame (a.u.)
         XX             YY             ZZ             XY             XZ             YZ
 ------------------------------------------------------------------------------------------
       -0.259057       0.146647       0.112410      -0.049911       0.147657       0.015338

 Principal components (a.u.) and orientation 
 of principal axis w.r.t. absolute frame                      Asymmetry parameter eta
 --------------------------------------------------------------------------------------
       -0.316477       0.164277       0.152200                       0.038161

        0.938349       0.342020      -0.050239
        0.111958      -0.163176       0.980224
       -0.327059       0.925417       0.191408
  

            Scalar ZORA NMR Shielding
            -------------------------


          -----------------------------------------
          Chemical Shielding Tensors (GIAO, in ppm)
          -----------------------------------------


int_init: setting std/high accuracies to  1.0D-32  1.0D-64
  int_init: cando_txs set to always be  F

 Read ZORA NMR data from ./ch2_props4_bp.zora_nmrcs

 Grid integrated density:       8.000000000037
 Requested integration accuracy:   0.10E-19
                                NWChem CPHF Module
                                ------------------



int_init: setting std/high accuracies to  1.0D-32  1.0D-64
  int_init: cando_txs set to always be  F
  scftype          =     UHF 
  nalpha           =        5
  nbeta            =        3
  variables        =      166
  # of vectors     =        3
  tolerance        = 0.10D-03
  level shift      = 0.00D+00
  max iterations   =       50
  max subspace     =       30

 Grid integrated density:       8.000000000037
 Requested integration accuracy:   0.10E-19
 SCF residual:    8.6975540712359913E-006


Iterative solution of linear equations
  No. of variables      166
  No. of equations        3
  Maximum subspace       30
        Iterations       50
       Convergence  1.0D-04
        Start time     20.1


   iter   nsub   residual    time
   ----  ------  --------  ---------
     1      3    7.05D-06      20.7

 Wrote CPHF data to ./ch2_props4_bp.shieldcphf


int_init: setting std/high accuracies to  1.0D-32  1.0D-64
  int_init: cando_txs set to always be  F
 Calc. par tensor-> zora
      Atom:    1  C 
        Diamagnetic
    263.1368      3.5621     -2.5236
      3.5621    258.8451     -0.5696
     -2.5236     -0.5696    255.4414

        Paramagnetic
    -60.0242     64.4273    -37.2893
     64.4273   -142.4009    -15.1262
    -37.2893    -15.1262   -180.5428

        Total Shielding Tensor
    203.1126     67.9895    -39.8129
     67.9895    116.4442    -15.6958
    -39.8129    -15.6958     74.8986

           isotropic =     131.4851
          anisotropy =     178.7743

          Principal Components and Axis System
                 1           2           3
              250.6680     80.8355     62.9519

      1         0.8557     -0.3882      0.3420
      2         0.4609      0.8723     -0.1632
      3        -0.2350      0.2973      0.9254



      Atom:    2  H 
        Diamagnetic
     30.6690      6.7662     -1.1101
      6.7662     32.4583     -1.0864
     -1.1101     -1.0864     24.6561

        Paramagnetic
      2.5385     -1.9956     -0.2859
     -1.9956     -2.0669     -0.1060
     -0.2859     -0.1060      2.8040

        Total Shielding Tensor
     33.2075      4.7707     -1.3959
      4.7707     30.3914     -1.1924
     -1.3959     -1.1924     27.4601

           isotropic =      30.3530
          anisotropy =      10.1520

          Principal Components and Axis System
                 1           2           3
               37.1210     27.1544     26.7836

      1         0.7856      0.3420     -0.5156
      2         0.5900     -0.1632      0.7908
      3        -0.1863      0.9254      0.3300



      Atom:    3  H 
        Diamagnetic
     36.8726      1.4662     -4.3377
      1.4662     24.9471     -0.4518
     -4.3377     -0.4518     25.9599

        Paramagnetic
     -1.5734      1.5165      1.8531
      1.5165      2.9102     -0.5264
      1.8531     -0.5264      1.9395

        Total Shielding Tensor
     35.2992      2.9826     -2.4846
      2.9826     27.8574     -0.9782
     -2.4846     -0.9782     27.8994

           isotropic =      30.3520
          anisotropy =      10.1511

          Principal Components and Axis System
                 1           2           3
               37.1194     27.1537     26.7830

      1         0.9054      0.3420     -0.2516
      2         0.3209     -0.1632      0.9329
      3        -0.2780      0.9254      0.2575




                  ZORA g-Shift
                  ------------


             g-Shift Tensor (in ppm)
             -----------------------


int_init: setting std/high accuracies to  1.0D-32  1.0D-64
  int_init: cando_txs set to always be  F

 Read ZORA NMR data from ./ch2_props4_bp.zora_nmrgshift


 Read ZORA NMR data from ./ch2_props4_bp.zora_nmrgshift_AB

nocc=(  5,  3) nclos=(  0,  0) nvirt=( 20, 22) scftyp=UHF)
 coeffpol=   2.0000000000000000     
 Grid integrated density:       8.000000000037
 Requested integration accuracy:   0.10E-19
                                NWChem CPHF Module
                                ------------------



int_init: setting std/high accuracies to  1.0D-32  1.0D-64
  int_init: cando_txs set to always be  F
  scftype          =     UHF 
  nalpha           =        5
  nbeta            =        3
  variables        =      166
  # of vectors     =        3
  tolerance        = 0.10D-03
  level shift      = 0.00D+00
  max iterations   =       50
  max subspace     =       30

 Grid integrated density:       8.000000000037
 Requested integration accuracy:   0.10E-19
 SCF residual:    8.6975540720941831E-006


Iterative solution of linear equations
  No. of variables      166
  No. of equations        3
  Maximum subspace       30
        Iterations       50
       Convergence  1.0D-04
        Start time     22.3


   iter   nsub   residual    time
   ----  ------  --------  ---------
     1      3    7.05D-06      22.9

 Wrote CPHF data to ./ch2_props4_bp.zora_gshiftcphf


int_init: setting std/high accuracies to  1.0D-32  1.0D-64
  int_init: cando_txs set to always be  F
NW-1:(dia,gauge,OO,OV,Totpar)(1,1)=(   -0.411984     0.000019     0.040975    -0.063045    -0.022050 )
NW-1:(dia,gauge,OO,OV,Totpar)(1,2)=(    0.006158    -0.000009    -0.023275     0.024519     0.001235 )
NW-1:(dia,gauge,OO,OV,Totpar)(1,3)=(   -0.004684     0.000053     0.012404    -0.021562    -0.009105 )
NW-1:(dia,gauge,OO,OV,Totpar)(2,1)=(    0.006158    -0.000009    -0.023276     0.024517     0.001232 )
NW-1:(dia,gauge,OO,OV,Totpar)(2,2)=(   -0.419219     0.000004     0.071345    -0.090211    -0.018862 )
NW-1:(dia,gauge,OO,OV,Totpar)(2,3)=(   -0.000799    -0.000025     0.006082    -0.001502     0.004555 )
NW-1:(dia,gauge,OO,OV,Totpar)(3,1)=(   -0.004684     0.000053     0.012403    -0.021562    -0.009106 )
NW-1:(dia,gauge,OO,OV,Totpar)(3,2)=(   -0.000799    -0.000025     0.006081    -0.001502     0.004554 )
NW-1:(dia,gauge,OO,OV,Totpar)(3,3)=(   -0.426004     0.000143     0.082129    -0.125379    -0.043107 )
NW-2:(dia,gauge,OO,OV,Totpar)(1,1)=(   -0.397773    -0.000088     0.000664    -0.105886    -0.105310 )
NW-2:(dia,gauge,OO,OV,Totpar)(1,2)=(    0.003665     0.000042    -0.000317     0.134425     0.134151 )
NW-2:(dia,gauge,OO,OV,Totpar)(1,3)=(   -0.001937    -0.000239     0.001795    -0.070244    -0.068687 )
NW-2:(dia,gauge,OO,OV,Totpar)(2,1)=(    0.003665     0.000042    -0.000317     0.134424     0.134150 )
NW-2:(dia,gauge,OO,OV,Totpar)(2,2)=(   -0.402564    -0.000020     0.000151    -0.282051    -0.281920 )
NW-2:(dia,gauge,OO,OV,Totpar)(2,3)=(   -0.000967     0.000114    -0.000857    -0.035922    -0.036665 )
NW-2:(dia,gauge,OO,OV,Totpar)(3,1)=(   -0.001937    -0.000239     0.001795    -0.070244    -0.068687 )
NW-2:(dia,gauge,OO,OV,Totpar)(3,2)=(   -0.000967     0.000114    -0.000857    -0.035923    -0.036665 )
NW-2:(dia,gauge,OO,OV,Totpar)(3,3)=(   -0.404218    -0.000646     0.004858    -0.340454    -0.336241 )
NW-T:(dia,gauge,OO,OV,Totpar)(1,1)=(   -0.014210     0.000108     0.040312     0.042841     0.083261 )
NW-T:(dia,gauge,OO,OV,Totpar)(1,2)=(    0.002492    -0.000051    -0.022958    -0.109906    -0.132916 )
NW-T:(dia,gauge,OO,OV,Totpar)(1,3)=(   -0.002747     0.000291     0.010608     0.048682     0.059582 )
NW-T:(dia,gauge,OO,OV,Totpar)(2,1)=(    0.002492    -0.000051    -0.022960    -0.109907    -0.132918 )
NW-T:(dia,gauge,OO,OV,Totpar)(2,2)=(   -0.016655     0.000025     0.071194     0.191840     0.263058 )
NW-T:(dia,gauge,OO,OV,Totpar)(2,3)=(    0.000168    -0.000139     0.006938     0.034421     0.041220 )
NW-T:(dia,gauge,OO,OV,Totpar)(3,1)=(   -0.002747     0.000291     0.010608     0.048682     0.059581 )
NW-T:(dia,gauge,OO,OV,Totpar)(3,2)=(    0.000168    -0.000139     0.006938     0.034421     0.041219 )
NW-T:(dia,gauge,OO,OV,Totpar)(3,3)=(   -0.021786     0.000789     0.077271     0.215074     0.293134 )
        Diamagnetic
     -0.0142      0.0025     -0.0027
      0.0025     -0.0167      0.0002
     -0.0027      0.0002     -0.0218

        Paramagnetic
      0.0833     -0.1329      0.0596
     -0.1329      0.2631      0.0412
      0.0596      0.0412      0.2931

        Total g shift Tensor
      0.0691     -0.1304      0.0568
     -0.1304      0.2464      0.0414
      0.0568      0.0414      0.2713

           isotropic =       0.1956
          anisotropy =       0.1844

          Principal Components and Axis System
                 1           2           3
                0.3186      0.2851     -0.0168

      1        -0.3882      0.3420      0.8557
      2         0.8723     -0.1632      0.4610
      3         0.2973      0.9254     -0.2350




 Task  times  cpu:       22.4s     wall:       22.4s


                                NWChem Input Module
                                -------------------


 Summary of allocated global arrays
-----------------------------------
  array 0 => double precision dft_zora_Hyperfine: g_AtNr(1,3),  handle: -928 
  array 1 => double precision get_rhoS: g_AtNr(1,3),  handle: -926 


MA_summarize_allocated_blocks: starting scan ...
heap block 'gridpts', handle 107, address 0x56221d0f3358:
	type of elements:		double precision
	number of elements:		49399692
	address of client space:	0x56221d0f33c0
	index for client space:		11056391
	total number of bytes:		395197648
MA_summarize_allocated_blocks: scan completed: 1 heap block, 0 stack blocks
MA usage statistics:

	allocation statistics:
					      heap	     stack
					      ----	     -----
	current number of blocks	         1	         0
	maximum number of blocks	        59	        91
	current total bytes		 395197648	         0
	maximum total bytes		 395687672	  22521816
	maximum total K-bytes		    395688	     22522
	maximum total M-bytes		       396	        23


                                     CITATION
                                     --------
                Please cite the following reference when publishing
                           results obtained with NWChem:

          E. Apra, E. J. Bylaska, W. A. de Jong, N. Govind, K. Kowalski,
       T. P. Straatsma, M. Valiev, H. J. J. van Dam, Y. Alexeev, J. Anchell,
       V. Anisimov, F. W. Aquino, R. Atta-Fynn, J. Autschbach, N. P. Bauman,
     J. C. Becca, D. E. Bernholdt, K. Bhaskaran-Nair, S. Bogatko, P. Borowski,
         J. Boschen, J. Brabec, A. Bruner, E. Cauet, Y. Chen, G. N. Chuev,
      C. J. Cramer, J. Daily, M. J. O. Deegan, T. H. Dunning Jr., M. Dupuis,
   K. G. Dyall, G. I. Fann, S. A. Fischer, A. Fonari, H. Fruchtl, L. Gagliardi,
      J. Garza, N. Gawande, S. Ghosh, K. Glaesemann, A. W. Gotz, J. Hammond,
       V. Helms, E. D. Hermes, K. Hirao, S. Hirata, M. Jacquelin, L. Jensen,
   B. G. Johnson, H. Jonsson, R. A. Kendall, M. Klemm, R. Kobayashi, V. Konkov,
      S. Krishnamoorthy, M. Krishnan, Z. Lin, R. D. Lins, R. J. Littlefield,
      A. J. Logsdail, K. Lopata, W. Ma, A. V. Marenich, J. Martin del Campo,
   D. Mejia-Rodriguez, J. E. Moore, J. M. Mullin, T. Nakajima, D. R. Nascimento,
    J. A. Nichols, P. J. Nichols, J. Nieplocha, A. Otero-de-la-Roza, B. Palmer,
    A. Panyala, T. Pirojsirikul, B. Peng, R. Peverati, J. Pittner, L. Pollack,
   R. M. Richard, P. Sadayappan, G. C. Schatz, W. A. Shelton, D. W. Silverstein,
   D. M. A. Smith, T. A. Soares, D. Song, M. Swart, H. L. Taylor, G. S. Thomas,
            V. Tipparaju, D. G. Truhlar, K. Tsemekhman, T. Van Voorhis,
      A. Vazquez-Mayagoitia, P. Verma, O. Villa, A. Vishnu, K. D. Vogiatzis,
        D. Wang, J. H. Weare, M. J. Williamson, T. L. Windus, K. Wolinski,
        A. T. Wong, Q. Wu, C. Yang, Q. Yu, M. Zacharias, Z. Zhang, Y. Zhao,
                                and R. J. Harrison
                        "NWChem: Past, present, and future
                         J. Chem. Phys. 152, 184102 (2020)
                               doi:10.1063/5.0004997

                                      AUTHORS
                                      -------
  E. Apra, E. J. Bylaska, N. Govind, K. Kowalski, M. Valiev, D. Mejia-Rodriguez,
       A. Kunitsa, N. P. Bauman, A. Panyala, W. A. de Jong, T. P. Straatsma,
   H. J. J. van Dam, D. Wang, T. L. Windus, J. Hammond, J. Autschbach, A. Woods,
    K. Bhaskaran-Nair, J. Brabec, K. Lopata, S. A. Fischer, S. Krishnamoorthy,
     M. Jacquelin, W. Ma, M. Klemm, O. Villa, Y. Chen, V. Anisimov, F. Aquino,
     S. Hirata, M. T. Hackler, E. Hermes, L. Jensen, J. E. Moore, J. C. Becca,
      V. Konjkov, T. Risthaus, M. Malagoli, A. Marenich, A. Otero-de-la-Roza,
        J. Mullin, P. Nichols, R. Peverati, J. Pittner, Y. Zhao, P.-D. Fan,
        A. Fonari, M. J. Williamson, R. J. Harrison, J. R. Rehr, M. Dupuis,
     D. Silverstein, D. M. A. Smith, J. Nieplocha, V. Tipparaju, M. Krishnan,
     B. E. Van Kuiken, A. Vazquez-Mayagoitia, M. Swart, Q. Wu, T. Van Voorhis,
     A. A. Auer, M. Nooijen, L. D. Crosby, E. Brown, G. Cisneros, G. I. Fann,
   H. Fruchtl, J. Garza, K. Hirao, R. A. Kendall, J. A. Nichols, K. Tsemekhman,
    K. Wolinski, J. Anchell, D. E. Bernholdt, P. Borowski, T. Clark, D. Clerc,
   H. Dachsel, M. J. O. Deegan, K. Dyall, D. Elwood, E. Glendening, M. Gutowski,
   A. C. Hess, J. Jaffe, B. G. Johnson, J. Ju, R. Kobayashi, R. Kutteh, Z. Lin,
   R. Littlefield, X. Long, B. Meng, T. Nakajima, S. Niu, L. Pollack, M. Rosing,
   K. Glaesemann, G. Sandrone, M. Stave, H. Taylor, G. Thomas, J. H. van Lenthe,
                               A. T. Wong, Z. Zhang.

 Total times  cpu:       23.8s     wall:       23.8s
