 argument  1 = vectors_rotate
  Unable to open vectors_rotate --- appending .nw



============================== echo of input deck ==============================
 start vectors_rotate

title  "vectors rotate test"

echo

geometry test1 noautosym noautoz nocenter
 o     -0.6 0.0 0.0
 o      0.6 0.0 0.0
symmetry c1
end

geometry test2 noautosym noautoz nocenter
 o     -0.54812727458556054 -0.24404198584548012  0.0
 o      0.54812727458556054  0.24404198584548012   0.0
symmetry c1
end

basis "ao basis"
 *    library 6-31G*
end

set geometry test1
dft
 vectors input atomic output test1.mo
end
task dft

set geometry test2
dft
 vectors input rotate test1 test1.mo output test2.mo
end
task dft
================================================================================


                                         
                                         


              Northwest Computational Chemistry Package (NWChem) 4.5
              ------------------------------------------------------


                    Environmental Molecular Sciences Laboratory
                       Pacific Northwest National Laboratory
                                Richland, WA 99352

                                         
                                         


                     COPYRIGHT (C) 1994, 1995, 1996, 1997, 1998,
                            1999, 2000, 2001, 2002, 2003
                        Pacific Northwest National Laboratory,
                             Battelle Memorial Institute.

                            >>> All Rights Reserved <<<


                                    DISCLAIMER
                                    ----------

            This material was prepared as an account of work sponsored
            by an agency of the United States Government.  Neither the
            United States Government nor the United States Department
            of Energy, nor Battelle, nor any of their employees, MAKES
            ANY WARRANTY, EXPRESS OR IMPLIED, OR ASSUMES ANY LEGAL
            LIABILITY OR RESPONSIBILITY FOR THE ACCURACY, COMPLETENESS,
            OR USEFULNESS OF ANY INFORMATION, APPARATUS, PRODUCT,
            SOFTWARE, OR PROCESS DISCLOSED, OR REPRESENTS THAT ITS USE
            WOULD NOT INFRINGE PRIVATELY OWNED RIGHTS.


                                    LIMITED USE
                                    -----------

            This software (including any documentation) is being made
            available to you for your internal use only, solely for use
            in performance of work directly for the U.S. Federal
            Government or work under contracts with the U.S. Department
            of Energy or other U.S. Federal Government agencies.  This
            software is a version which has not yet been evaluated and
            cleared for commercialization.  Adherence to this notice
            may be necessary for the author, Battelle Memorial
            Institute, to successfully assert copyright in and
            commercialize this software. This software is not intended
            for duplication or distribution to third parties without
            the permission of the Manager of Software Products at
            Pacific Northwest National Laboratory, Richland,
            Washington, 99352.


                                  ACKNOWLEDGMENT
                                  --------------

            This software and its documentation were produced with
            Government support under Contract Number DE-AC06-76RLO-1830
            awarded by the United States Department of Energy.  The
            Government retains a paid-up non-exclusive, irrevocable
            worldwide license to reproduce, prepare derivative works,
            perform publicly and display publicly by or for the
            Government, including the right to distribute to other
            Government contractors.


           Job information
           ---------------

    hostname      = pecos
    program       = nwchem
    date          = Thu Apr 10 14:09:56 2003

    compiled      = Thu Apr 10 14:02:40 PDT 2003
    source        = /home/d3k958/nwchem-4.5
    nwchem branch = Development
    input         = vectors_rotate.nw
    prefix        = vectors_rotate.
    data base     = ./vectors_rotate.db
    status        = startup
    nproc         =    1
    time left     =     -1s



           Memory information
           ------------------

    heap      =   19660794 doubles =    150.0 Mbytes
    stack     =    6553587 doubles =     50.0 Mbytes
    global    =   26214404 doubles =    200.0 Mbytes (within heap+stack)
    total     =   26214381 doubles =    200.0 Mbytes
    verify    = yes
    hardfail  = no 


           Directory information
           ---------------------

  0 permanent = .
  0 scratch   = /home/d3k958/scratch




                                NWChem Input Module
                                -------------------


                                                                                                                       vectors rotate test
                                                                                                                       -------------------


 Scaling coordinates for geometry "test1" by  1.889725989
 (inverse scale =  0.529177249)



                              Geometry "test1" -> ""
                              ----------------------

 Output coordinates in angstroms (scale by  1.889725989 to convert to a.u.)

  No.       Tag          Charge          X              Y              Z
 ---- ---------------- ---------- -------------- -------------- --------------
    1 o                    8.0000    -0.60000000     0.00000000     0.00000000
    2 o                    8.0000     0.60000000     0.00000000     0.00000000

      Atomic Mass 
      ----------- 

      o                 15.994910


 Effective nuclear repulsion energy (a.u.)      28.2227866133

            Nuclear Dipole moment (a.u.) 
            ----------------------------
        X                 Y               Z
 ---------------- ---------------- ----------------
     0.0000000000     0.0000000000     0.0000000000

 ==============================================================================
                                internuclear distances
 ------------------------------------------------------------------------------
       center one      |      center two      | atomic units |  angstroms
 ------------------------------------------------------------------------------
    2 o                |   1 o                |     2.26767  |     1.20000
 ------------------------------------------------------------------------------
                         number of included internuclear distances:          1
 ==============================================================================




 Scaling coordinates for geometry "test2" by  1.889725989
 (inverse scale =  0.529177249)



                            Geometry "test2" -> "     "
                            ---------------------------

 Output coordinates in angstroms (scale by  1.889725989 to convert to a.u.)

  No.       Tag          Charge          X              Y              Z
 ---- ---------------- ---------- -------------- -------------- --------------
    1 o                    8.0000    -0.54812727    -0.24404199     0.00000000
    2 o                    8.0000     0.54812727     0.24404199     0.00000000

      Atomic Mass 
      ----------- 

      o                 15.994910


 Effective nuclear repulsion energy (a.u.)      28.2227866133

            Nuclear Dipole moment (a.u.) 
            ----------------------------
        X                 Y               Z
 ---------------- ---------------- ----------------
     0.0000000000     0.0000000000     0.0000000000

 ==============================================================================
                                internuclear distances
 ------------------------------------------------------------------------------
       center one      |      center two      | atomic units |  angstroms
 ------------------------------------------------------------------------------
    2 o                |   1 o                |     2.26767  |     1.20000
 ------------------------------------------------------------------------------
                         number of included internuclear distances:          1
 ==============================================================================



  library name resolved from: environment
  library file name is: </home/d3k958/nwchem/src/basis/library>
  


 Summary of "ao basis" -> "" (cartesian)
 ------------------------------------------------------------------------------
       Tag                 Description            Shells   Functions and Types
 ---------------- ------------------------------  ------  ---------------------
 *                           6-31G*                   on all atoms 


                                 NWChem DFT Module
                                 -----------------


                                vectors rotate test


                      Basis "ao basis" -> "ao basis" (cartesian)
                      -----
  o (Oxygen)
  ----------
            Exponent  Coefficients 
       -------------- ---------------------------------------------------------
  1 S  5.48467170E+03  0.001831
  1 S  8.25234950E+02  0.013950
  1 S  1.88046960E+02  0.068445
  1 S  5.29645000E+01  0.232714
  1 S  1.68975700E+01  0.470193
  1 S  5.79963530E+00  0.358521

  2 S  1.55396160E+01 -0.110778
  2 S  3.59993360E+00 -0.148026
  2 S  1.01376180E+00  1.130767

  3 P  1.55396160E+01  0.070874
  3 P  3.59993360E+00  0.339753
  3 P  1.01376180E+00  0.727159

  4 S  2.70005800E-01  1.000000

  5 P  2.70005800E-01  1.000000

  6 D  8.00000000E-01  1.000000



 Summary of "ao basis" -> "ao basis" (cartesian)
 ------------------------------------------------------------------------------
       Tag                 Description            Shells   Functions and Types
 ---------------- ------------------------------  ------  ---------------------
 o                           6-31G*                  6       15   3s2p1d


  Caching 1-el integrals 

            General Information
            -------------------
          SCF calculation type: DFT
          Wavefunction type:  closed shell.
          No. of atoms     :     2
          No. of electrons :    16
           Alpha electrons :     8
            Beta electrons :     8
          Charge           :     0
          Spin multiplicity:     1
          Use of symmetry is: off; symmetry adaption is: off
          Maximum number of iterations:  30
          AO basis - number of functions:    30
                     number of shells:    12
          Convergence on energy requested: 1.00E-06
          Convergence on density requested: 1.00E-05
          Convergence on gradient requested: 5.00E-04

              XC Information
              --------------
                        Slater Exchange Functional  1.000 local    
                      VWN V Correlation Functional  1.000 local    

             Grid Information
             ----------------
          Grid used for XC integration:  medium    
          Radial quadrature: Mura-Knowles        
          Angular quadrature: Lebedev. 
          Tag              B.-S. Rad. Rad. Pts. Rad. Cut. Ang. Pts.
          ---              ---------- --------- --------- ---------
          o                   0.60       49           5.0       434
          Grid pruning is: on 
          Number of quadrature shells:    98
          Spatial weights used:  Erf1

          Convergence Information
          -----------------------
          Convergence aids based upon iterative change in 
          total energy or number of iterations. 
          Levelshifting, if invoked, occurs when the 
          HOMO/LUMO gap drops below (HL_TOL): 1.00E-02
          DIIS, if invoked, will attempt to extrapolate 
          using up to (NFOCK): 10 stored Fock matrices.

                    Damping( 0%)  Levelshifting(0.5)       DIIS
                  --------------- ------------------- ---------------
          dE  on:    start            ASAP                start   
          dE off:    2 iters         30 iters            30 iters 


      Screening Tolerance Information
      -------------------------------
          Density screening/tol_rho: 1.00E-10
          AO Gaussian exp screening on grid/accAOfunc:  14
          CD Gaussian exp screening on grid/accCDfunc:  20
          XC Gaussian exp screening on grid/accXCfunc:  20
          Schwarz screening/accCoul: 1.00E-08
          Spatial weight screening/radius(au): 1.26E+01


      Superposition of Atomic Density Guess
      -------------------------------------

 Sum of atomic energies:        -149.50870446

      Non-variational initial energy
      ------------------------------

 Total energy =    -149.611940
 1-e energy   =    -262.405978
 2-e energy   =      84.571251
 HOMO         =      -0.189150
 LUMO         =      -0.189150

   Time prior to 1st pass:      0.9

 #quartets = 3.074E+03 #integrals = 3.368E+04 #direct =  0.0% #cached =100.0%


 Integral file          = /home/d3k958/scratch/vectors_rotate.aoints.0
 Record size in doubles =  65536        No. of integs per rec  =  43688
 Max. records in memory =      5        Max. records in file   =   1010
 No. of bits per label  =      8        No. of bits per value  =     64


 Grid_pts file          = /home/d3k958/scratch/vectors_rotate.gridpts.0
 Record size in doubles =  12289        No. of grid_pts per rec  =   3070
 Max. records in memory =     17        Max. recs in file   =      5390


           Memory utilization after 1st SCF pass: 
           Heap Space remaining (MW):       19.09            19094538
          Stack Space remaining (MW):        6.55             6553336

   convergence    iter        energy       DeltaE   RMS-Dens  Diis-err    time
 ---------------- ----- ----------------- --------- --------- ---------  ------
 d= 0,ls=0.0,diis     1   -149.1553715684 -1.77E+02  8.63E-02  7.47E-01     2.7
 d= 0,ls=0.0,diis     2   -149.1661795360 -1.08E-02  8.44E-02  3.19E-01     3.6
 d= 0,ls=0.0,diis     3   -149.1936783205 -2.75E-02  8.41E-02  3.85E-02     4.5
 d= 0,ls=0.0,diis     4   -149.1941264024 -4.48E-04  9.43E-04  3.30E-02     5.3
 d= 0,ls=0.5,diis     5   -149.1957741217 -1.65E-03  1.41E-03  1.59E-02     6.2
 d= 0,ls=0.5,diis     6   -149.1972131439 -1.44E-03  4.81E-04  1.01E-03     7.0
 d= 0,ls=0.5,diis     7   -149.1973149290 -1.02E-04  7.11E-05  7.30E-06     7.9
 d= 0,ls=0.5,diis     8   -149.1973160320 -1.10E-06  1.65E-05  7.50E-07     8.8
 d= 0,ls=0.5,diis     9   -149.1973161181 -8.61E-08  4.89E-06  1.03E-07     9.6


         Total DFT energy =   -149.197316128310
      One electron energy =   -261.948029237854
           Coulomb energy =    100.433860214761
    Exchange-Corr. energy =    -15.905933718535
 Nuclear repulsion energy =     28.222786613317

 Numeric. integr. density =     16.000000005535

     Total iterative time =      9.6s



                       DFT Final Molecular Orbital Analysis
                       ------------------------------------

 Vector    2  Occ=2.000000E+00  E=-1.876912E+01
              MO Center=  5.1E-01, -2.5E-13,  6.7E-14, r^2= 1.1E-01
   Bfn.  Coefficient  Atom+Function         Bfn.  Coefficient  Atom+Function  
  ----- ------------  ---------------      ----- ------------  ---------------
    16     -0.954878  2 O  s                  1      0.263958  1 O  s          

 Vector    3  Occ=2.000000E+00  E=-1.191124E+00
              MO Center= -3.5E-06, -1.2E-11,  2.6E-11, r^2= 4.4E-01
   Bfn.  Coefficient  Atom+Function         Bfn.  Coefficient  Atom+Function  
  ----- ------------  ---------------      ----- ------------  ---------------
     2      0.344447  1 O  s                 17      0.344443  2 O  s          
     6      0.217547  1 O  s                 21      0.217543  2 O  s          
    18     -0.199530  2 O  px                 3      0.199530  1 O  px         
     1     -0.151083  1 O  s                 16     -0.151082  2 O  s          

 Vector    4  Occ=2.000000E+00  E=-7.036832E-01
              MO Center= -1.1E-05,  1.3E-10,  2.3E-11, r^2= 1.1E+00
   Bfn.  Coefficient  Atom+Function         Bfn.  Coefficient  Atom+Function  
  ----- ------------  ---------------      ----- ------------  ---------------
     6     -0.483149  1 O  s                 21      0.483146  2 O  s          
     2     -0.382861  1 O  s                 17      0.382861  2 O  s          
     1      0.166447  1 O  s                 16     -0.166447  2 O  s          

 Vector    5  Occ=2.000000E+00  E=-4.889967E-01
              MO Center= -3.2E-06,  1.4E-09, -2.4E-10, r^2= 8.2E-01
   Bfn.  Coefficient  Atom+Function         Bfn.  Coefficient  Atom+Function  
  ----- ------------  ---------------      ----- ------------  ---------------
     4     -0.457700  1 O  py                19     -0.457696  2 O  py         
     8     -0.256290  1 O  py                23     -0.256289  2 O  py         

 Vector    6  Occ=2.000000E+00  E=-4.776314E-01
              MO Center=  1.3E-05, -1.2E-09,  3.9E-10, r^2= 1.1E+00
   Bfn.  Coefficient  Atom+Function         Bfn.  Coefficient  Atom+Function  
  ----- ------------  ---------------      ----- ------------  ---------------
    18      0.465783  2 O  px                 3     -0.465783  1 O  px         
    21      0.305650  2 O  s                  6      0.305638  1 O  s          
    22      0.214937  2 O  px                 7     -0.214937  1 O  px         

 Vector    7  Occ=2.000000E+00  E=-4.429993E-01
              MO Center= -1.2E-05, -5.1E-11, -1.6E-10, r^2= 8.3E-01
   Bfn.  Coefficient  Atom+Function         Bfn.  Coefficient  Atom+Function  
  ----- ------------  ---------------      ----- ------------  ---------------
     5     -0.453295  1 O  pz                20     -0.453284  2 O  pz         
     9     -0.260638  1 O  pz                24     -0.260631  2 O  pz         

 Vector    8  Occ=2.000000E+00  E=-1.797287E-01
              MO Center=  1.2E-05, -2.3E-11, -1.3E-11, r^2= 9.5E-01
   Bfn.  Coefficient  Atom+Function         Bfn.  Coefficient  Atom+Function  
  ----- ------------  ---------------      ----- ------------  ---------------
    20     -0.525411  2 O  pz                 5      0.525403  1 O  pz         
    24     -0.396835  2 O  pz                 9      0.396829  1 O  pz         

 Vector    9  Occ=0.000000E+00  E=-2.257448E-01
              MO Center=  2.9E-06, -5.0E-11,  9.5E-12, r^2= 9.3E-01
   Bfn.  Coefficient  Atom+Function         Bfn.  Coefficient  Atom+Function  
  ----- ------------  ---------------      ----- ------------  ---------------
    19     -0.531568  2 O  py                 4      0.531567  1 O  py         
    23     -0.386800  2 O  py                 8      0.386797  1 O  py         

 Vector   10  Occ=0.000000E+00  E= 1.740580E-01
              MO Center=  1.8E-06,  3.1E-11, -2.1E-12, r^2= 1.1E+00
   Bfn.  Coefficient  Atom+Function         Bfn.  Coefficient  Atom+Function  
  ----- ------------  ---------------      ----- ------------  ---------------
     6      1.070912  1 O  s                 21     -1.070912  2 O  s          
    22      0.983314  2 O  px                 7      0.983311  1 O  px         
    18      0.543657  2 O  px                 3      0.543657  1 O  px         
     2      0.248376  1 O  s                 17     -0.248375  2 O  s          

 Vector   11  Occ=0.000000E+00  E= 6.292737E-01
              MO Center= -4.4E-05, -5.1E-09,  4.1E-10, r^2= 1.7E+00
   Bfn.  Coefficient  Atom+Function         Bfn.  Coefficient  Atom+Function  
  ----- ------------  ---------------      ----- ------------  ---------------
    21      1.375311  2 O  s                  6      1.375280  1 O  s          
     2     -0.922541  1 O  s                 17     -0.922520  2 O  s          
    10     -0.360637  1 O  dxx               25     -0.360614  2 O  dxx        
    15     -0.258395  1 O  dzz               30     -0.258392  2 O  dzz        
    13     -0.251551  1 O  dyy               28     -0.251547  2 O  dyy        

 Vector   12  Occ=0.000000E+00  E= 6.628495E-01
              MO Center=  1.8E-05, -6.2E-10,  3.9E-11, r^2= 2.6E+00
   Bfn.  Coefficient  Atom+Function         Bfn.  Coefficient  Atom+Function  
  ----- ------------  ---------------      ----- ------------  ---------------
     7     -1.493965  1 O  px                22     -1.493943  2 O  px         
     6     -0.727238  1 O  s                 21      0.727158  2 O  s          
     3      0.531135  1 O  px                18      0.531128  2 O  px         
    25      0.354381  2 O  dxx               10     -0.354356  1 O  dxx        
    17      0.273593  2 O  s                  2     -0.273535  1 O  s          

 Vector   13  Occ=0.000000E+00  E= 7.197955E-01
              MO Center= -2.1E-05,  4.8E-09, -8.2E-10, r^2= 1.5E+00
   Bfn.  Coefficient  Atom+Function         Bfn.  Coefficient  Atom+Function  
  ----- ------------  ---------------      ----- ------------  ---------------
     4      0.646130  1 O  py                19      0.646113  2 O  py         
     8     -0.625510  1 O  py                23     -0.625478  2 O  py         

 Vector   14  Occ=0.000000E+00  E= 7.503226E-01
              MO Center= -2.2E-05,  6.4E-11,  4.2E-10, r^2= 1.5E+00
   Bfn.  Coefficient  Atom+Function         Bfn.  Coefficient  Atom+Function  
  ----- ------------  ---------------      ----- ------------  ---------------
     5     -0.648271  1 O  pz                20     -0.648253  2 O  pz         
     9      0.623854  1 O  pz                24      0.623820  2 O  pz         

 Vector   15  Occ=0.000000E+00  E= 7.937959E-01
              MO Center=  2.3E-05, -4.2E-12,  1.3E-12, r^2= 2.0E+00
   Bfn.  Coefficient  Atom+Function         Bfn.  Coefficient  Atom+Function  
  ----- ------------  ---------------      ----- ------------  ---------------
    22     -0.804234  2 O  px                 7      0.804202  1 O  px         
    18      0.539670  2 O  px                 3     -0.539658  1 O  px         
     6     -0.210867  1 O  s                 21     -0.210858  2 O  s          

 Vector   16  Occ=0.000000E+00  E= 8.479432E-01
              MO Center=  2.1E-05,  2.1E-12, -5.9E-13, r^2= 1.9E+00
   Bfn.  Coefficient  Atom+Function         Bfn.  Coefficient  Atom+Function  
  ----- ------------  ---------------      ----- ------------  ---------------
    23     -1.059885  2 O  py                 8      1.059867  1 O  py         
    19      0.620600  2 O  py                 4     -0.620581  1 O  py         
    24      0.181283  2 O  pz                 9     -0.181280  1 O  pz         

 Vector   17  Occ=0.000000E+00  E= 8.728682E-01
              MO Center=  2.2E-05, -4.4E-12, -2.3E-13, r^2= 1.9E+00
   Bfn.  Coefficient  Atom+Function         Bfn.  Coefficient  Atom+Function  
  ----- ------------  ---------------      ----- ------------  ---------------
    24      1.056625  2 O  pz                 9     -1.056606  1 O  pz         
    20     -0.625790  2 O  pz                 5      0.625769  1 O  pz         
    23      0.180725  2 O  py                 8     -0.180722  1 O  py         

 Vector   18  Occ=0.000000E+00  E= 1.238229E+00
              MO Center=  1.6E-06,  4.8E-10, -4.0E-11, r^2= 1.9E+00
   Bfn.  Coefficient  Atom+Function         Bfn.  Coefficient  Atom+Function  
  ----- ------------  ---------------      ----- ------------  ---------------
    21      4.942757  2 O  s                  6     -4.942752  1 O  s          
    22     -2.364598  2 O  px                 7     -2.364596  1 O  px         
    17     -1.273355  2 O  s                  2      1.273353  1 O  s          
    30     -0.330012  2 O  dzz               15      0.330011  1 O  dzz        
    28     -0.316566  2 O  dyy               13      0.316564  1 O  dyy        


 center of mass
 --------------
 x =   0.00000000 y =   0.00000000 z =   0.00000000

 moments of inertia (a.u.)
 ------------------
           0.000000000000           0.000000000000           0.000000000000
           0.000000000000          41.125573636767           0.000000000000
           0.000000000000           0.000000000000          41.125573636767

     Multipole analysis of the density
     ---------------------------------

     L   x y z        total         alpha         beta         nuclear
     -   - - -        -----         -----         ----         -------
     0   0 0 0      0.000000     -8.000000     -8.000000     16.000000

     1   1 0 0      0.000019      0.000009      0.000009      0.000000
     1   0 1 0      0.000000      0.000000      0.000000      0.000000
     1   0 0 1      0.000000      0.000000      0.000000      0.000000

     2   2 0 0     -7.707843    -14.138587    -14.138587     20.569330
     2   1 1 0      0.000000      0.000000      0.000000      0.000000
     2   1 0 1      0.000000      0.000000      0.000000      0.000000
     2   0 2 0     -6.698615     -3.349308     -3.349308      0.000000
     2   0 1 1     -0.221465     -0.110733     -0.110733      0.000000
     2   0 0 2     -7.955550     -3.977775     -3.977775      0.000000


 Parallel integral file used       1 records with       0 large values


 Task  times  cpu:       10.4s     wall:       11.1s


                                NWChem Input Module
                                -------------------


                                 NWChem DFT Module
                                 -----------------


                                vectors rotate test


  Caching 1-el integrals 

            General Information
            -------------------
          SCF calculation type: DFT
          Wavefunction type:  closed shell.
          No. of atoms     :     2
          No. of electrons :    16
           Alpha electrons :     8
            Beta electrons :     8
          Charge           :     0
          Spin multiplicity:     1
          Use of symmetry is: off; symmetry adaption is: off
          Maximum number of iterations:  30
          AO basis - number of functions:    30
                     number of shells:    12
          Convergence on energy requested: 1.00E-06
          Convergence on density requested: 1.00E-05
          Convergence on gradient requested: 5.00E-04

              XC Information
              --------------
                        Slater Exchange Functional  1.000 local    
                      VWN V Correlation Functional  1.000 local    

             Grid Information
             ----------------
          Grid used for XC integration:  medium    
          Radial quadrature: Mura-Knowles        
          Angular quadrature: Lebedev. 
          Tag              B.-S. Rad. Rad. Pts. Rad. Cut. Ang. Pts.
          ---              ---------- --------- --------- ---------
          o                   0.60       49           5.0       434
          Grid pruning is: on 
          Number of quadrature shells:    98
          Spatial weights used:  Erf1

          Convergence Information
          -----------------------
          Convergence aids based upon iterative change in 
          total energy or number of iterations. 
          Levelshifting, if invoked, occurs when the 
          HOMO/LUMO gap drops below (HL_TOL): 1.00E-02
          DIIS, if invoked, will attempt to extrapolate 
          using up to (NFOCK): 10 stored Fock matrices.

                    Damping( 0%)  Levelshifting(0.5)       DIIS
                  --------------- ------------------- ---------------
          dE  on:    start            ASAP                start   
          dE off:    2 iters         30 iters            30 iters 


      Screening Tolerance Information
      -------------------------------
          Density screening/tol_rho: 1.00E-10
          AO Gaussian exp screening on grid/accAOfunc:  14
          CD Gaussian exp screening on grid/accCDfunc:  20
          XC Gaussian exp screening on grid/accXCfunc:  20
          Schwarz screening/accCoul: 1.00E-08
          Spatial weight screening/radius(au): 1.26E+01


     Orbital rotation guess
     ----------------------

 input vectors filename    = test1.mo
 input vectors geometry    = test1

         Rotation matrix
         ---------------
    0.913545    0.406737    0.000000
    0.406737   -0.913545    0.000000
    0.000000    0.000000   -1.000000

   Time prior to 1st pass:     10.8

 Integral file          = /home/d3k958/scratch/vectors_rotate.aoints.0
 Record size in doubles =  65536        No. of integs per rec  =  43688
 Max. records in memory =      5        Max. records in file   =   1010
 No. of bits per label  =      8        No. of bits per value  =     64


 #quartets = 3.074E+03 #integrals = 6.110E+04 #direct =  0.0% #cached =100.0%


 Grid_pts file          = /home/d3k958/scratch/vectors_rotate.gridpts.0
 Record size in doubles =  12289        No. of grid_pts per rec  =   3070
 Max. records in memory =     17        Max. recs in file   =      5390


           Memory utilization after 1st SCF pass: 
           Heap Space remaining (MW):       19.09            19094538
          Stack Space remaining (MW):        6.55             6553336

   convergence    iter        energy       DeltaE   RMS-Dens  Diis-err    time
 ---------------- ----- ----------------- --------- --------- ---------  ------
 d= 0,ls=0.5,diis     1   -149.1973161292 -1.77E+02  1.77E-06  1.09E-08    12.8
 d= 0,ls=0.5,diis     2   -149.1973161302 -9.63E-10  9.20E-07  1.87E-09    13.7


         Total DFT energy =   -149.197316130194
      One electron energy =   -261.947995677560
           Coulomb energy =    100.433823673915
    Exchange-Corr. energy =    -15.905930739866
 Nuclear repulsion energy =     28.222786613317

 Numeric. integr. density =     16.000000018395

     Total iterative time =      3.7s



                       DFT Final Molecular Orbital Analysis
                       ------------------------------------

 Vector    2  Occ=2.000000E+00  E=-1.876911E+01
              MO Center=  5.2E-01,  2.3E-01, -1.1E-13, r^2= 5.7E-02
   Bfn.  Coefficient  Atom+Function         Bfn.  Coefficient  Atom+Function  
  ----- ------------  ---------------      ----- ------------  ---------------
    16      0.975800  2 O  s                  1     -0.171430  1 O  s          

 Vector    3  Occ=2.000000E+00  E=-1.191124E+00
              MO Center= -5.2E-06, -2.3E-06,  3.1E-13, r^2= 4.4E-01
   Bfn.  Coefficient  Atom+Function         Bfn.  Coefficient  Atom+Function  
  ----- ------------  ---------------      ----- ------------  ---------------
     2     -0.344448  1 O  s                 17     -0.344442  2 O  s          
     6     -0.217548  1 O  s                 21     -0.217542  2 O  s          
    18      0.182280  2 O  px                 3     -0.182279  1 O  px         
     1      0.151084  1 O  s                 16      0.151081  2 O  s          

 Vector    4  Occ=2.000000E+00  E=-7.036834E-01
              MO Center= -1.7E-05, -7.5E-06,  2.8E-11, r^2= 1.1E+00
   Bfn.  Coefficient  Atom+Function         Bfn.  Coefficient  Atom+Function  
  ----- ------------  ---------------      ----- ------------  ---------------
     6      0.483150  1 O  s                 21     -0.483145  2 O  s          
     2      0.382862  1 O  s                 17     -0.382861  2 O  s          
     1     -0.166447  1 O  s                 16      0.166447  2 O  s          

 Vector    5  Occ=2.000000E+00  E=-4.889856E-01
              MO Center= -3.6E-06, -1.6E-06, -6.7E-12, r^2= 8.2E-01
   Bfn.  Coefficient  Atom+Function         Bfn.  Coefficient  Atom+Function  
  ----- ------------  ---------------      ----- ------------  ---------------
     4     -0.418132  1 O  py                19     -0.418128  2 O  py         
     8     -0.234131  1 O  py                23     -0.234130  2 O  py         
     3      0.186164  1 O  px                18      0.186163  2 O  px         

 Vector    6  Occ=2.000000E+00  E=-4.776318E-01
              MO Center=  2.0E-05,  9.0E-06,  1.9E-11, r^2= 1.1E+00
   Bfn.  Coefficient  Atom+Function         Bfn.  Coefficient  Atom+Function  
  ----- ------------  ---------------      ----- ------------  ---------------
    18      0.425514  2 O  px                 3     -0.425514  1 O  px         
    21      0.305651  2 O  s                  6      0.305634  1 O  s          
    22      0.196355  2 O  px                 7     -0.196354  1 O  px         
    19      0.189451  2 O  py                 4     -0.189451  1 O  py         

 Vector    7  Occ=2.000000E+00  E=-4.430114E-01
              MO Center= -1.8E-05, -7.9E-06, -4.9E-12, r^2= 8.3E-01
   Bfn.  Coefficient  Atom+Function         Bfn.  Coefficient  Atom+Function  
  ----- ------------  ---------------      ----- ------------  ---------------
     5      0.453297  1 O  pz                20      0.453279  2 O  pz         
     9      0.260641  1 O  pz                24      0.260630  2 O  pz         

 Vector    8  Occ=2.000000E+00  E=-1.797407E-01
              MO Center=  1.7E-05,  7.7E-06, -2.0E-11, r^2= 9.5E-01
   Bfn.  Coefficient  Atom+Function         Bfn.  Coefficient  Atom+Function  
  ----- ------------  ---------------      ----- ------------  ---------------
    20     -0.525408  2 O  pz                 5      0.525396  1 O  pz         
    24     -0.396845  2 O  pz                 9      0.396835  1 O  pz         

 Vector    9  Occ=0.000000E+00  E=-2.257337E-01
              MO Center=  3.1E-06,  1.4E-06, -4.3E-12, r^2= 9.3E-01
   Bfn.  Coefficient  Atom+Function         Bfn.  Coefficient  Atom+Function  
  ----- ------------  ---------------      ----- ------------  ---------------
     4     -0.485610  1 O  py                19      0.485610  2 O  py         
    23      0.353362  2 O  py                 8     -0.353358  1 O  py         
     3      0.216207  1 O  px                18     -0.216207  2 O  px         
    22     -0.157327  2 O  px                 7      0.157325  1 O  px         

 Vector   10  Occ=0.000000E+00  E= 1.740576E-01
              MO Center=  2.3E-06,  1.0E-06, -1.2E-12, r^2= 1.1E+00
   Bfn.  Coefficient  Atom+Function         Bfn.  Coefficient  Atom+Function  
  ----- ------------  ---------------      ----- ------------  ---------------
     6      1.070911  1 O  s                 21     -1.070911  2 O  s          
    22      0.898301  2 O  px                 7      0.898298  1 O  px         
    18      0.496656  2 O  px                 3      0.496656  1 O  px         
    23      0.399949  2 O  py                 8      0.399948  1 O  py         
     2      0.248376  1 O  s                 17     -0.248375  2 O  s          

 Vector   11  Occ=0.000000E+00  E= 6.292736E-01
              MO Center= -6.5E-05, -2.9E-05,  1.1E-10, r^2= 1.7E+00
   Bfn.  Coefficient  Atom+Function         Bfn.  Coefficient  Atom+Function  
  ----- ------------  ---------------      ----- ------------  ---------------
    21     -1.375322  2 O  s                  6     -1.375271  1 O  s          
     2      0.922547  1 O  s                 17      0.922514  2 O  s          
    10      0.342596  1 O  dxx               25      0.342565  2 O  dxx        
    13      0.269601  1 O  dyy               28      0.269590  2 O  dyy        
    15      0.258395  1 O  dzz               30      0.258389  2 O  dzz        

 Vector   12  Occ=0.000000E+00  E= 6.628492E-01
              MO Center=  2.7E-05,  1.2E-05,  9.0E-12, r^2= 2.6E+00
   Bfn.  Coefficient  Atom+Function         Bfn.  Coefficient  Atom+Function  
  ----- ------------  ---------------      ----- ------------  ---------------
     7      1.364811  1 O  px                22      1.364779  2 O  px         
     6      0.727264  1 O  s                 21     -0.727133  2 O  s          
     8      0.607653  1 O  py                23      0.607639  2 O  py         
     3     -0.485218  1 O  px                18     -0.485207  2 O  px         
    25     -0.303743  2 O  dxx               10      0.303705  1 O  dxx        

 Vector   13  Occ=0.000000E+00  E= 7.198029E-01
              MO Center= -3.2E-05, -1.4E-05, -3.8E-10, r^2= 1.5E+00
   Bfn.  Coefficient  Atom+Function         Bfn.  Coefficient  Atom+Function  
  ----- ------------  ---------------      ----- ------------  ---------------
     4     -0.590272  1 O  py                19     -0.590247  2 O  py         
     8      0.571442  1 O  py                23      0.571394  2 O  py         
     3      0.262806  1 O  px                18      0.262795  2 O  px         
     7     -0.254423  1 O  px                22     -0.254401  2 O  px         

 Vector   14  Occ=0.000000E+00  E= 7.503145E-01
              MO Center= -3.3E-05, -1.5E-05,  2.7E-10, r^2= 1.5E+00
   Bfn.  Coefficient  Atom+Function         Bfn.  Coefficient  Atom+Function  
  ----- ------------  ---------------      ----- ------------  ---------------
     5     -0.648278  1 O  pz                20     -0.648247  2 O  pz         
     9      0.623864  1 O  pz                24      0.623809  2 O  pz         

 Vector   15  Occ=0.000000E+00  E= 7.937958E-01
              MO Center=  3.5E-05,  1.5E-05,  2.4E-12, r^2= 2.0E+00
   Bfn.  Coefficient  Atom+Function         Bfn.  Coefficient  Atom+Function  
  ----- ------------  ---------------      ----- ------------  ---------------
    22      0.734714  2 O  px                 7     -0.734666  1 O  px         
    18     -0.493016  2 O  px                 3      0.492998  1 O  px         
    23      0.327116  2 O  py                 8     -0.327094  1 O  py         
    19     -0.219505  2 O  py                 4      0.219497  1 O  py         
     6      0.210870  1 O  s                 21      0.210854  2 O  s          

 Vector   16  Occ=0.000000E+00  E= 8.479492E-01
              MO Center=  3.2E-05,  1.4E-05,  4.0E-11, r^2= 1.9E+00
   Bfn.  Coefficient  Atom+Function         Bfn.  Coefficient  Atom+Function  
  ----- ------------  ---------------      ----- ------------  ---------------
    23      0.968258  2 O  py                 8     -0.968230  1 O  py         
    19     -0.566953  2 O  py                 4      0.566924  1 O  py         
    22     -0.431096  2 O  px                 7      0.431084  1 O  px         
    18      0.252424  2 O  px                 3     -0.252411  1 O  px         
    24     -0.181284  2 O  pz                 9      0.181279  1 O  pz         

 Vector   17  Occ=0.000000E+00  E= 8.728615E-01
              MO Center=  3.3E-05,  1.5E-05, -7.7E-11, r^2= 1.9E+00
   Bfn.  Coefficient  Atom+Function         Bfn.  Coefficient  Atom+Function  
  ----- ------------  ---------------      ----- ------------  ---------------
    24     -1.056628  2 O  pz                 9      1.056597  1 O  pz         
    20      0.625800  2 O  pz                 5     -0.625767  1 O  pz         
    23     -0.165101  2 O  py                 8      0.165096  1 O  py         

 Vector   18  Occ=0.000000E+00  E= 1.238229E+00
              MO Center=  2.4E-06,  1.1E-06,  2.8E-11, r^2= 1.9E+00
   Bfn.  Coefficient  Atom+Function         Bfn.  Coefficient  Atom+Function  
  ----- ------------  ---------------      ----- ------------  ---------------
    21     -4.942760  2 O  s                  6      4.942752  1 O  s          
    22      2.160169  2 O  px                 7      2.160166  1 O  px         
    17      1.273356  2 O  s                  2     -1.273352  1 O  s          
    23      0.961769  2 O  py                 8      0.961768  1 O  py         
    30      0.330009  2 O  dzz               15     -0.330007  1 O  dzz        


 center of mass
 --------------
 x =   0.00000000 y =   0.00000000 z =   0.00000000

 moments of inertia (a.u.)
 ------------------
           6.803596806171         -15.281128621476           0.000000000000
         -15.281128621476          34.321976830596           0.000000000000
           0.000000000000           0.000000000000          41.125573636767

     Multipole analysis of the density
     ---------------------------------

     L   x y z        total         alpha         beta         nuclear
     -   - - -        -----         -----         ----         -------
     0   0 0 0      0.000000     -8.000000     -8.000000     16.000000

     1   1 0 0      0.000022      0.000011      0.000011      0.000000
     1   0 1 0      0.000010      0.000005      0.000005      0.000000
     1   0 0 1      0.000000      0.000000      0.000000      0.000000

     2   2 0 0     -7.540891    -12.353670    -12.353670     17.166449
     2   1 1 0     -0.375021     -4.009009     -4.009009      7.642996
     2   1 0 1      0.090085      0.045042      0.045042      0.000000
     2   0 2 0     -6.865550     -5.134215     -5.134215      3.402881
     2   0 1 1     -0.202334     -0.101167     -0.101167      0.000000
     2   0 0 2     -7.955609     -3.977804     -3.977804      0.000000


 Parallel integral file used       2 records with       0 large values


 Task  times  cpu:        4.1s     wall:        4.7s


                                NWChem Input Module
                                -------------------


 Summary of allocated global arrays
-----------------------------------
  No active global arrays



                         GA Statistics for process    0
                         ------------------------------

       create   destroy   get      put      acc     scatter   gather  read&inc
calls:  188      188     6154     3104     2628        0        0        0     
number of processes/call 1.00e+00 1.00e+00 1.00e+00 0.00e+00 0.00e+00
bytes total:             7.70e+06 1.41e+06 5.43e+06 0.00e+00 0.00e+00 0.00e+00
bytes remote:            0.00e+00 0.00e+00 0.00e+00 0.00e+00 0.00e+00 0.00e+00
Max memory consumed for GA by this process: 266400 bytes

MA_summarize_allocated_blocks: starting scan ...
MA_summarize_allocated_blocks: scan completed: 0 heap blocks, 0 stack blocks
MA usage statistics:

	allocation statistics:
					      heap	     stack
					      ----	     -----
	current number of blocks	         0	         0
	maximum number of blocks	        54	        43
	current total bytes		         0	         0
	maximum total bytes		   4573444	  18359132
	maximum total K-bytes		      4574	     18360
	maximum total M-bytes		         5	        19



                                  ACKNOWLEDGEMENT
                                  ---------------

            Please use the following acknowledgement where appropriate 
            for results obtained with NWChem:

            High Performance Computational Chemistry Group, "NWChem, A
            Computational Chemistry Package for Parallel Computers, 
            Version 4.5" (2003), Pacific Northwest National Laboratory,
            Richland, Washington 99352-0999, USA.


                                     CITATION
                                     --------

            Please use the following citation when publishing results
            obtained with NWChem:

            E. Apra, E. J. Bylaska,  W. de Jong, M. T. Hackler, S. Hirata,
            L. Pollack, D. Smith, T. P. Straatsma, T. L. Windus, R. J. Harrison,
            J. Nieplocha, V. Tipparaju, M. Kumar,
            E. Brown, G. Cisneros, M. Dupuis, G. I. Fann, H. Fruchtl,
            J. Garza, K. Hirao, R. Kendall, J. A. Nichols,  K. Tsemekhman,
            M. Valiev, K. Wolinski,
            J. Anchell, D. Bernholdt, P. Borowski, T. Clark, D. Clerc,
            H. Dachsel, M. Deegan, K. Dyall, D. Elwood,  E. Glendening,
            M. Gutowski, A. Hess, J. Jaffe, B. Johnson, J. Ju, R. Kobayashi,
            R. Kutteh, Z. Lin, R. Littlefield, X. Long, B. Meng, T. Nakajima,
             S. Niu, M. Rosing, G. Sandrone,  M. Stave, H. Taylor, G. Thomas,
            J. van Lenthe, A. Wong, and Z. Zhang,
            "NWChem, A Computational Chemistry Package for Parallel Computers, 
            Version 4.5" (2003),
                      Pacific Northwest National Laboratory,
                      Richland, Washington 99352-0999, USA.



 Total times  cpu:       14.6s     wall:       16.0s
