 argument  1 = i2_zora_so.nw
mpiexec_curie (handle_stdin_input 1064): stdin problem; if pgm is run in background, redirect from /dev/null
mpiexec_curie (handle_stdin_input 1065):     e.g.: mpiexec -n 4 a.out < /dev/null &
                                         
                                         
 
 
              Northwest Computational Chemistry Package (NWChem) 5.0
              ------------------------------------------------------
 
 
                    Environmental Molecular Sciences Laboratory
                       Pacific Northwest National Laboratory
                                Richland, WA 99352
 
                                         
                                         
 
 
                     COPYRIGHT (C) 1994, 1995, 1996, 1997, 1998,
                   1999, 2000, 2001, 2002, 2003, 2004, 2005, 2006
                        Pacific Northwest National Laboratory,
                             Battelle Memorial Institute.
 
                            >>> All Rights Reserved <<<
 
 
                                    DISCLAIMER
                                    ----------

            This material was prepared as an account of work sponsored
            by an agency of the United States Government.  Neither the
            United States Government nor the United States Department
            of Energy, nor Battelle, nor any of their employees, MAKES
            ANY WARRANTY, EXPRESS OR IMPLIED, OR ASSUMES ANY LEGAL
            LIABILITY OR RESPONSIBILITY FOR THE ACCURACY, COMPLETENESS,
            OR USEFULNESS OF ANY INFORMATION, APPARATUS, PRODUCT,
            SOFTWARE, OR PROCESS DISCLOSED, OR REPRESENTS THAT ITS USE
            WOULD NOT INFRINGE PRIVATELY OWNED RIGHTS.


                                    LIMITED USE
                                    -----------

            This software (including any documentation) is being made
            available to you for your internal use only, solely for use
            in performance of work directly for the U.S. Federal
            Government or work under contracts with the U.S. Department
            of Energy or other U.S. Federal Government agencies.  This
            software is a version which has not yet been evaluated and
            cleared for commercialization.  Adherence to this notice
            may be necessary for the author, Battelle Memorial
            Institute, to successfully assert copyright in and
            commercialize this software. This software is not intended
            for duplication or distribution to third parties without
            the permission of the Manager of Software Products at
            Pacific Northwest National Laboratory, Richland,
            Washington, 99352.


                                  ACKNOWLEDGMENT
                                  --------------

            This software and its documentation were produced with
            Government support under Contract Number DE-AC05-76RL01830
            awarded by the United States Department of Energy.  The
            Government retains a paid-up non-exclusive, irrevocable
            worldwide license to reproduce, prepare derivative works,
            perform publicly and display publicly by or for the
            Government, including the right to distribute to other
            Government contractors.


           Job information
           ---------------

    hostname      = curie
    program       = ../../../bin/LINUX64/nwchem
    date          = Fri Oct 12 18:39:46 2007

    compiled      = Fri_Oct_12_17:11:36_2007
    source        = /home/niri/nwchem
    nwchem branch = Development
    input         = i2_zora_so.nw
    prefix        = i2_zora_so.
    data base     = ./i2_zora_so.db
    status        = startup
    nproc         =    4
    time left     =     -1s



           Memory information
           ------------------

    heap      =   13107201 doubles =    100.0 Mbytes
    stack     =   13107201 doubles =    100.0 Mbytes
    global    =   26214400 doubles =    200.0 Mbytes (distinct from heap & stack)
    total     =   52428802 doubles =    400.0 Mbytes
    verify    = yes
    hardfail  = no 


           Directory information
           ---------------------
 
  0 permanent = .
  0 scratch   = .
 
 
 
 
                                NWChem Input Module
                                -------------------
 
 
 ORDER OF PRIMARY AXIS IS BEING SET TO 4
 D4H symmetry detected
 
 
                             Geometry "geometry" -> ""
                             -------------------------
 
 Output coordinates in a.u. (scale by  1.000000000 to convert to a.u.)
 
  No.       Tag          Charge          X              Y              Z
 ---- ---------------- ---------- -------------- -------------- --------------
    1 I                   53.0000     0.00000000     0.00000000    -2.52247277
    2 I                   53.0000     0.00000000     0.00000000     2.52247277
 
      Atomic Mass 
      ----------- 
 
      I                126.900400
 

 Effective nuclear repulsion energy (a.u.)     556.7949104164

            Nuclear Dipole moment (a.u.) 
            ----------------------------
        X                 Y               Z
 ---------------- ---------------- ----------------
     0.0000000000     0.0000000000     0.0000000000
 
      Symmetry information
      --------------------
 
 Group name             D4h       
 Group number             28
 Group order              16
 No. of unique centers     1
 
      Symmetry unique atoms
 
     1
 
 
            XYZ format geometry
            -------------------
     2
 geometry
 I                     0.00000000     0.00000000    -1.33483520
 I                     0.00000000     0.00000000     1.33483520
 
 ==============================================================================
                                internuclear distances
 ------------------------------------------------------------------------------
       center one      |      center two      | atomic units |       a.u.
 ------------------------------------------------------------------------------
    2 I                |   1 I                |     5.04495  |     5.04495
 ------------------------------------------------------------------------------
                         number of included internuclear distances:          1
 ==============================================================================



                      Basis "ao basis" -> "" (spherical)
                      -----
  I (Iodine)
  ----------
            Exponent  Coefficients 
       -------------- ---------------------------------------------------------
  1 S  2.74845460E+05 -0.001621
  1 S  4.12331880E+04 -0.012398
  1 S  9.36673330E+03 -0.062201
  1 S  2.63840810E+03 -0.216294
  1 S  8.58774400E+02 -0.462395
  1 S  2.96302520E+02 -0.384842
 
  2 S  5.61837220E+02  0.114228
  2 S  6.90401460E+01 -0.632291
  2 S  2.99806350E+01 -0.442018
 
  3 S  5.48696840E+01 -0.270799
  3 S  9.99545850E+00  0.842647
  3 S  4.58886780E+00  0.309166
 
  4 S  9.12082560E+00 -0.341022
  4 S  2.11967870E+00  0.810065
  4 S  9.70892500E-01  0.396754
 
  5 S  1.58799650E+00  0.262971
  5 S  2.95335600E-01 -0.751041
 
  6 S  1.16401600E-01  1.000000
 
  7 P  4.08945540E+03 -0.007237
  7 P  9.67033590E+02 -0.055839
  7 P  3.09442130E+02 -0.234024
  7 P  1.12458860E+02 -0.504702
  7 P  4.31185900E+01 -0.365963
 
  8 P  1.64646200E+02 -0.025233
  8 P  2.07365830E+01  0.494419
  8 P  8.15583040E+00  0.574146
 
  9 P  3.71048720E+00  0.429996
  9 P  1.62499900E+00  0.526237
  9 P  7.14621600E-01  0.123406
 
 10 P  4.62819300E-01  0.353725
 10 P  1.86431200E-01  0.535583
 
 11 P  7.14835000E-02  1.000000
 
 12 D  4.17503240E+02 -0.012725
 12 D  1.23614830E+02 -0.091521
 12 D  4.57790390E+01 -0.307099
 12 D  1.83916630E+01 -0.499640
 12 D  7.42179320E+00 -0.308307
 
 13 D  6.27385860E+00 -0.259301
 13 D  2.35941460E+00 -0.565077
 13 D  8.37796600E-01 -0.352369
 
 14 D  2.44000000E-01  1.000000
 


 Summary of "ao basis" -> "" (spherical)
 ------------------------------------------------------------------------------
       Tag                 Description            Shells   Functions and Types
 ---------------- ------------------------------  ------  ---------------------
 I                     DZVP (DFT Orbital)           14       36   6s5p3d


  pbe96 is a nonlocal functional; adding pw91lda local functional. 
 
 
                           NWChem Geometry Optimization
                           ----------------------------
 
 
 maximum gradient threshold         (gmax) =   0.000450
 rms gradient threshold             (grms) =   0.000300
 maximum cartesian step threshold   (xmax) =   0.001800
 rms cartesian step threshold       (xrms) =   0.001200
 fixed trust radius                (trust) =   0.300000
 maximum step size to saddle      (sadstp) =   0.100000
 energy precision                  (eprec) =   1.0D-07
 maximum number of steps          (nptopt) =  100
 initial hessian option           (inhess) =    0
 line search option               (linopt) =    1
 hessian update option            (modupd) =    1
 saddle point option              (modsad) =    0
 initial eigen-mode to follow     (moddir) =    0
 initial variable to follow       (vardir) =    0
 follow first negative mode     (firstneg) =    T
 apply conjugacy                    (opcg) =    F
 source of zmatrix                         =           


          -------------------
          Energy Minimization
          -------------------

 
 Using diagonal initial Hessian 

          --------
          Step   0
          --------
 
 
                         Geometry "geometry" -> "geometry"
                         ---------------------------------
 
 Output coordinates in a.u. (scale by  1.000000000 to convert to a.u.)
 
  No.       Tag          Charge          X              Y              Z
 ---- ---------------- ---------- -------------- -------------- --------------
    1 I                   53.0000     0.00000000     0.00000000    -2.52247277
    2 I                   53.0000     0.00000000     0.00000000     2.52247277
 
      Atomic Mass 
      ----------- 
 
      I                126.900400
 

 Effective nuclear repulsion energy (a.u.)     556.7949104164

            Nuclear Dipole moment (a.u.) 
            ----------------------------
        X                 Y               Z
 ---------------- ---------------- ----------------
     0.0000000000     0.0000000000     0.0000000000
 
      Symmetry information
      --------------------
 
 Group name             D4h       
 Group number             28
 Group order              16
 No. of unique centers     1
 
      Symmetry unique atoms
 
     1
 
                                 NWChem DFT Module
                                 -----------------
 
 
  WARNING: CD fitting not compatible with spinorbit
  WARNING: disabling CD fitting
  Caching 1-el integrals 
 
            General Information
            -------------------
          SCF calculation type: DFT
          Wavefunction type:  spin polarized.
          No. of atoms     :     2
          No. of electrons :   106
           Alpha electrons :    53
            Beta electrons :    53
          Charge           :     0
          Spin multiplicity:     1
          Use of symmetry is: off; symmetry adaption is: off
          Maximum number of iterations: 100
          AO basis - number of functions:    72
                     number of shells:    28
          Convergence on energy requested: 1.00D-06
          Convergence on density requested: 1.00D-05
          Convergence on gradient requested: 5.00D-04
 
              XC Information
              --------------
          PerdewBurkeErnzerhof Exchange Functional  1.000          
            Perdew 1991 LDA Correlation Functional  1.000 local    
           PerdewBurkeErnz. Correlation Functional  1.000 non-local
 
             Grid Information
             ----------------
          Grid used for XC integration:  fine      
          Radial quadrature: Mura-Knowles        
          Angular quadrature: Lebedev. 
          Tag              B.-S. Rad. Rad. Pts. Rad. Cut. Ang. Pts.
          ---              ---------- --------- --------- ---------
          I                   1.40      141          11.0       974
          Grid pruning is: on 
          Number of quadrature shells:   282
          Spatial weights used:  Erf1
 
          Convergence Information
          -----------------------
          Convergence aids based upon iterative change in 
          total energy or number of iterations. 
          Levelshifting, if invoked, occurs when the 
          HOMO/LUMO gap drops below (HL_TOL): 1.00D-02
          DIIS, if invoked, will attempt to extrapolate 
          using up to (NFOCK): 10 stored Fock matrices.

                    Damping( 0%)  Levelshifting(0.5)       DIIS
                  --------------- ------------------- ---------------
          dE  on:    start            ASAP                start   
          dE off:    2 iters        100 iters           100 iters 

 
      Screening Tolerance Information
      -------------------------------
          Density screening/tol_rho: 1.00D-10
          AO Gaussian exp screening on grid/accAOfunc:  14
          CD Gaussian exp screening on grid/accCDfunc:  20
          XC Gaussian exp screening on grid/accXCfunc:  20
          Schwarz screening/accCoul: 1.00D-10

 
 Performing spin-orbit zora calculations
 
 
      Superposition of Atomic Density Guess
      -------------------------------------
 
mpiexec_curie (handle_stdin_input 1064): stdin problem; if pgm is run in background, redirect from /dev/null
mpiexec_curie (handle_stdin_input 1065):     e.g.: mpiexec -n 4 a.out < /dev/null &
mpiexec_curie (handle_stdin_input 1064): stdin problem; if pgm is run in background, redirect from /dev/null
mpiexec_curie (handle_stdin_input 1065):     e.g.: mpiexec -n 4 a.out < /dev/null &
mpiexec_curie (handle_stdin_input 1064): stdin problem; if pgm is run in background, redirect from /dev/null
mpiexec_curie (handle_stdin_input 1065):     e.g.: mpiexec -n 4 a.out < /dev/null &
mpiexec_curie (handle_stdin_input 1064): stdin problem; if pgm is run in background, redirect from /dev/null
mpiexec_curie (handle_stdin_input 1065):     e.g.: mpiexec -n 4 a.out < /dev/null &
mpiexec_curie (handle_stdin_input 1064): stdin problem; if pgm is run in background, redirect from /dev/null
mpiexec_curie (handle_stdin_input 1065):     e.g.: mpiexec -n 4 a.out < /dev/null &
mpiexec_curie (handle_stdin_input 1064): stdin problem; if pgm is run in background, redirect from /dev/null
mpiexec_curie (handle_stdin_input 1065):     e.g.: mpiexec -n 4 a.out < /dev/null &
mpiexec_curie (handle_stdin_input 1064): stdin problem; if pgm is run in background, redirect from /dev/null
mpiexec_curie (handle_stdin_input 1065):     e.g.: mpiexec -n 4 a.out < /dev/null &
 Sum of atomic energies:      -13834.25739884
mpiexec_curie (handle_stdin_input 1064): stdin problem; if pgm is run in background, redirect from /dev/null
mpiexec_curie (handle_stdin_input 1065):     e.g.: mpiexec -n 4 a.out < /dev/null &
mpiexec_curie (handle_stdin_input 1064): stdin problem; if pgm is run in background, redirect from /dev/null
mpiexec_curie (handle_stdin_input 1065):     e.g.: mpiexec -n 4 a.out < /dev/null &
mpiexec_curie (handle_stdin_input 1064): stdin problem; if pgm is run in background, redirect from /dev/null
mpiexec_curie (handle_stdin_input 1065):     e.g.: mpiexec -n 4 a.out < /dev/null &
mpiexec_curie (handle_stdin_input 1064): stdin problem; if pgm is run in background, redirect from /dev/null
mpiexec_curie (handle_stdin_input 1065):     e.g.: mpiexec -n 4 a.out < /dev/null &
mpiexec_curie (handle_stdin_input 1064): stdin problem; if pgm is run in background, redirect from /dev/null
mpiexec_curie (handle_stdin_input 1065):     e.g.: mpiexec -n 4 a.out < /dev/null &
mpiexec_curie (handle_stdin_input 1064): stdin problem; if pgm is run in background, redirect from /dev/null
mpiexec_curie (handle_stdin_input 1065):     e.g.: mpiexec -n 4 a.out < /dev/null &
mpiexec_curie (handle_stdin_input 1064): stdin problem; if pgm is run in background, redirect from /dev/null
mpiexec_curie (handle_stdin_input 1065):     e.g.: mpiexec -n 4 a.out < /dev/null &
mpiexec_curie (handle_stdin_input 1064): stdin problem; if pgm is run in background, redirect from /dev/null
mpiexec_curie (handle_stdin_input 1065):     e.g.: mpiexec -n 4 a.out < /dev/null &
mpiexec_curie (handle_stdin_input 1064): stdin problem; if pgm is run in background, redirect from /dev/null
mpiexec_curie (handle_stdin_input 1065):     e.g.: mpiexec -n 4 a.out < /dev/null &
mpiexec_curie (handle_stdin_input 1064): stdin problem; if pgm is run in background, redirect from /dev/null
mpiexec_curie (handle_stdin_input 1065):     e.g.: mpiexec -n 4 a.out < /dev/null &
mpiexec_curie (handle_stdin_input 1064): stdin problem; if pgm is run in background, redirect from /dev/null
mpiexec_curie (handle_stdin_input 1065):     e.g.: mpiexec -n 4 a.out < /dev/null &
mpiexec_curie (handle_stdin_input 1064): stdin problem; if pgm is run in background, redirect from /dev/null
mpiexec_curie (handle_stdin_input 1065):     e.g.: mpiexec -n 4 a.out < /dev/null &
mpiexec_curie (handle_stdin_input 1064): stdin problem; if pgm is run in background, redirect from /dev/null
mpiexec_curie (handle_stdin_input 1065):     e.g.: mpiexec -n 4 a.out < /dev/null &
mpiexec_curie (handle_stdin_input 1064): stdin problem; if pgm is run in background, redirect from /dev/null
mpiexec_curie (handle_stdin_input 1065):     e.g.: mpiexec -n 4 a.out < /dev/null &
mpiexec_curie (handle_stdin_input 1064): stdin problem; if pgm is run in background, redirect from /dev/null
mpiexec_curie (handle_stdin_input 1065):     e.g.: mpiexec -n 4 a.out < /dev/null &
mpiexec_curie (handle_stdin_input 1064): stdin problem; if pgm is run in background, redirect from /dev/null
mpiexec_curie (handle_stdin_input 1065):     e.g.: mpiexec -n 4 a.out < /dev/null &
mpiexec_curie (handle_stdin_input 1064): stdin problem; if pgm is run in background, redirect from /dev/null
mpiexec_curie (handle_stdin_input 1065):     e.g.: mpiexec -n 4 a.out < /dev/null &
mpiexec_curie (handle_stdin_input 1064): stdin problem; if pgm is run in background, redirect from /dev/null
mpiexec_curie (handle_stdin_input 1065):     e.g.: mpiexec -n 4 a.out < /dev/null &
mpiexec_curie (handle_stdin_input 1064): stdin problem; if pgm is run in background, redirect from /dev/null
mpiexec_curie (handle_stdin_input 1065):     e.g.: mpiexec -n 4 a.out < /dev/null &
mpiexec_curie (handle_stdin_input 1064): stdin problem; if pgm is run in background, redirect from /dev/null
mpiexec_curie (handle_stdin_input 1065):     e.g.: mpiexec -n 4 a.out < /dev/null &
mpiexec_curie (handle_stdin_input 1064): stdin problem; if pgm is run in background, redirect from /dev/null
mpiexec_curie (handle_stdin_input 1065):     e.g.: mpiexec -n 4 a.out < /dev/null &
mpiexec_curie (handle_stdin_input 1064): stdin problem; if pgm is run in background, redirect from /dev/null
mpiexec_curie (handle_stdin_input 1065):     e.g.: mpiexec -n 4 a.out < /dev/null &
mpiexec_curie (handle_stdin_input 1064): stdin problem; if pgm is run in background, redirect from /dev/null
mpiexec_curie (handle_stdin_input 1065):     e.g.: mpiexec -n 4 a.out < /dev/null &
mpiexec_curie (handle_stdin_input 1064): stdin problem; if pgm is run in background, redirect from /dev/null
mpiexec_curie (handle_stdin_input 1065):     e.g.: mpiexec -n 4 a.out < /dev/null &
mpiexec_curie (handle_stdin_input 1064): stdin problem; if pgm is run in background, redirect from /dev/null
mpiexec_curie (handle_stdin_input 1065):     e.g.: mpiexec -n 4 a.out < /dev/null &
mpiexec_curie (handle_stdin_input 1064): stdin problem; if pgm is run in background, redirect from /dev/null
mpiexec_curie (handle_stdin_input 1065):     e.g.: mpiexec -n 4 a.out < /dev/null &
mpiexec_curie (handle_stdin_input 1064): stdin problem; if pgm is run in background, redirect from /dev/null
mpiexec_curie (handle_stdin_input 1065):     e.g.: mpiexec -n 4 a.out < /dev/null &
mpiexec_curie (handle_stdin_input 1064): stdin problem; if pgm is run in background, redirect from /dev/null
mpiexec_curie (handle_stdin_input 1065):     e.g.: mpiexec -n 4 a.out < /dev/null &
mpiexec_curie (handle_stdin_input 1064): stdin problem; if pgm is run in background, redirect from /dev/null
mpiexec_curie (handle_stdin_input 1065):     e.g.: mpiexec -n 4 a.out < /dev/null &
mpiexec_curie (handle_stdin_input 1064): stdin problem; if pgm is run in background, redirect from /dev/null
mpiexec_curie (handle_stdin_input 1065):     e.g.: mpiexec -n 4 a.out < /dev/null &
mpiexec_curie (handle_stdin_input 1064): stdin problem; if pgm is run in background, redirect from /dev/null
mpiexec_curie (handle_stdin_input 1065):     e.g.: mpiexec -n 4 a.out < /dev/null &
mpiexec_curie (handle_stdin_input 1064): stdin problem; if pgm is run in background, redirect from /dev/null
mpiexec_curie (handle_stdin_input 1065):     e.g.: mpiexec -n 4 a.out < /dev/null &
mpiexec_curie (handle_stdin_input 1064): stdin problem; if pgm is run in background, redirect from /dev/null
mpiexec_curie (handle_stdin_input 1065):     e.g.: mpiexec -n 4 a.out < /dev/null &
mpiexec_curie (handle_stdin_input 1064): stdin problem; if pgm is run in background, redirect from /dev/null
mpiexec_curie (handle_stdin_input 1065):     e.g.: mpiexec -n 4 a.out < /dev/null &
mpiexec_curie (handle_stdin_input 1064): stdin problem; if pgm is run in background, redirect from /dev/null
mpiexec_curie (handle_stdin_input 1065):     e.g.: mpiexec -n 4 a.out < /dev/null &
mpiexec_curie (handle_stdin_input 1064): stdin problem; if pgm is run in background, redirect from /dev/null
mpiexec_curie (handle_stdin_input 1065):     e.g.: mpiexec -n 4 a.out < /dev/null &
mpiexec_curie (handle_stdin_input 1064): stdin problem; if pgm is run in background, redirect from /dev/null
mpiexec_curie (handle_stdin_input 1065):     e.g.: mpiexec -n 4 a.out < /dev/null &
mpiexec_curie (handle_stdin_input 1064): stdin problem; if pgm is run in background, redirect from /dev/null
mpiexec_curie (handle_stdin_input 1065):     e.g.: mpiexec -n 4 a.out < /dev/null &
mpiexec_curie (handle_stdin_input 1064): stdin problem; if pgm is run in background, redirect from /dev/null
mpiexec_curie (handle_stdin_input 1065):     e.g.: mpiexec -n 4 a.out < /dev/null &
mpiexec_curie (handle_stdin_input 1064): stdin problem; if pgm is run in background, redirect from /dev/null
mpiexec_curie (handle_stdin_input 1065):     e.g.: mpiexec -n 4 a.out < /dev/null &
mpiexec_curie (handle_stdin_input 1064): stdin problem; if pgm is run in background, redirect from /dev/null
mpiexec_curie (handle_stdin_input 1065):     e.g.: mpiexec -n 4 a.out < /dev/null &
 
      Non-variational initial energy
      ------------------------------

 Total energy =  -13834.397144
 1-e energy   =  -20126.740296
 2-e energy   =    5735.548241
 HOMO         =      -0.294731
 LUMO         =      -0.123768
 
 
      Superposition of Atomic Density Guess
      -------------------------------------
 
 Sum of atomic energies:      -13834.25739884
mpiexec_curie (handle_stdin_input 1064): stdin problem; if pgm is run in background, redirect from /dev/null
mpiexec_curie (handle_stdin_input 1065):     e.g.: mpiexec -n 4 a.out < /dev/null &
mpiexec_curie (handle_stdin_input 1064): stdin problem; if pgm is run in background, redirect from /dev/null
mpiexec_curie (handle_stdin_input 1065):     e.g.: mpiexec -n 4 a.out < /dev/null &
mpiexec_curie (handle_stdin_input 1064): stdin problem; if pgm is run in background, redirect from /dev/null
mpiexec_curie (handle_stdin_input 1065):     e.g.: mpiexec -n 4 a.out < /dev/null &
mpiexec_curie (handle_stdin_input 1064): stdin problem; if pgm is run in background, redirect from /dev/null
mpiexec_curie (handle_stdin_input 1065):     e.g.: mpiexec -n 4 a.out < /dev/null &
mpiexec_curie (handle_stdin_input 1064): stdin problem; if pgm is run in background, redirect from /dev/null
mpiexec_curie (handle_stdin_input 1065):     e.g.: mpiexec -n 4 a.out < /dev/null &
mpiexec_curie (handle_stdin_input 1064): stdin problem; if pgm is run in background, redirect from /dev/null
mpiexec_curie (handle_stdin_input 1065):     e.g.: mpiexec -n 4 a.out < /dev/null &
mpiexec_curie (handle_stdin_input 1064): stdin problem; if pgm is run in background, redirect from /dev/null
mpiexec_curie (handle_stdin_input 1065):     e.g.: mpiexec -n 4 a.out < /dev/null &
mpiexec_curie (handle_stdin_input 1064): stdin problem; if pgm is run in background, redirect from /dev/null
mpiexec_curie (handle_stdin_input 1065):     e.g.: mpiexec -n 4 a.out < /dev/null &
mpiexec_curie (handle_stdin_input 1064): stdin problem; if pgm is run in background, redirect from /dev/null
mpiexec_curie (handle_stdin_input 1065):     e.g.: mpiexec -n 4 a.out < /dev/null &
mpiexec_curie (handle_stdin_input 1064): stdin problem; if pgm is run in background, redirect from /dev/null
mpiexec_curie (handle_stdin_input 1065):     e.g.: mpiexec -n 4 a.out < /dev/null &
mpiexec_curie (handle_stdin_input 1064): stdin problem; if pgm is run in background, redirect from /dev/null
mpiexec_curie (handle_stdin_input 1065):     e.g.: mpiexec -n 4 a.out < /dev/null &
mpiexec_curie (handle_stdin_input 1064): stdin problem; if pgm is run in background, redirect from /dev/null
mpiexec_curie (handle_stdin_input 1065):     e.g.: mpiexec -n 4 a.out < /dev/null &
mpiexec_curie (handle_stdin_input 1064): stdin problem; if pgm is run in background, redirect from /dev/null
mpiexec_curie (handle_stdin_input 1065):     e.g.: mpiexec -n 4 a.out < /dev/null &
mpiexec_curie (handle_stdin_input 1064): stdin problem; if pgm is run in background, redirect from /dev/null
mpiexec_curie (handle_stdin_input 1065):     e.g.: mpiexec -n 4 a.out < /dev/null &
mpiexec_curie (handle_stdin_input 1064): stdin problem; if pgm is run in background, redirect from /dev/null
mpiexec_curie (handle_stdin_input 1065):     e.g.: mpiexec -n 4 a.out < /dev/null &
mpiexec_curie (handle_stdin_input 1064): stdin problem; if pgm is run in background, redirect from /dev/null
mpiexec_curie (handle_stdin_input 1065):     e.g.: mpiexec -n 4 a.out < /dev/null &
mpiexec_curie (handle_stdin_input 1064): stdin problem; if pgm is run in background, redirect from /dev/null
mpiexec_curie (handle_stdin_input 1065):     e.g.: mpiexec -n 4 a.out < /dev/null &
mpiexec_curie (handle_stdin_input 1064): stdin problem; if pgm is run in background, redirect from /dev/null
mpiexec_curie (handle_stdin_input 1065):     e.g.: mpiexec -n 4 a.out < /dev/null &
 
      Non-variational initial energy
      ------------------------------

 Total energy =  -13834.397144
 1-e energy   =  -20126.740296
 2-e energy   =    5735.548241
 HOMO         =      -0.294731
 LUMO         =      -0.123768
 
 dft_zora_read_so: failed to open ./i2_zora_so.zora_so

 Read atomic ZORA corrections from ./i2_zora_so.zora_so


 Grid_pts file          = ./i2_zora_so.gridpts.0
 Record size in doubles =  12289        No. of grid_pts per rec  =   3070
 Max. records in memory =     26        Max. recs in file   =    463968


 Wrote atomic ZORA corrections to ./i2_zora_so.zora_so

   Time prior to 1st pass:     53.9

 Integral file          = ./i2_zora_so.aoints.0
 Record size in doubles =  65536        No. of integs per rec  =  43688
 Max. records in memory =      4        Max. records in file   =  86998
 No. of bits per label  =      8        No. of bits per value  =     64


 #quartets = 6.318D+04 #integrals = 4.908D+05 #direct =  0.0% #cached =100.0%


File balance: exchanges=     0  moved=     0  time=   0.0


           Memory utilization after 1st SCF pass: 
           Heap Space remaining (MW):       12.52            12518659
          Stack Space remaining (MW):       13.06            13063536

   convergence    iter        energy       DeltaE   RMS-Dens  Diis-err    time
 ---------------- ----- ----------------- --------- --------- ---------  ------
 d= 0,ls=0.0,diis     1 -14340.9153666231 -1.49D+04  1.74D-02  5.97D+01    56.7
                                                     1.74D-02  5.97D+01
 d= 0,ls=0.0,diis     2 -14341.0327638662 -1.17D-01  1.18D-02  1.07D-01    57.6
                                                     1.18D-02  1.07D-01
 d= 0,ls=0.0,diis     3 -14341.0128325486  1.99D-02  5.79D-03  1.55D-01    58.6
                                                     5.79D-03  1.55D-01
 d= 0,ls=0.0,diis     4 -14341.0749340960 -6.21D-02  5.66D-04  1.16D-03    59.6
                                                     5.66D-04  1.16D-03
 d= 0,ls=0.0,diis     5 -14341.0753711864 -4.37D-04  6.43D-05  7.49D-06    60.6
                                                     6.43D-05  7.49D-06
 d= 0,ls=0.0,diis     6 -14341.0753748452 -3.66D-06  6.02D-06  2.37D-06    61.6
                                                     6.02D-06  2.37D-06
 d= 0,ls=0.0,diis     7 -14341.0753748678 -2.26D-08  2.00D-07  2.32D-06    62.6
                                                     2.00D-07  2.32D-06


         Total DFT energy = -14341.075374867860
       Scaling correction =    183.158857208692
      One electron energy = -20641.248626933662
           Coulomb energy =   6095.415942460907
    Exchange-Corr. energy =   -352.037600811520
 Nuclear repulsion energy =    556.794910416416

 Numeric. integr. density =    105.999999989147

     Total iterative time =     10.0s


 
                       DFT Final Molecular Orbital Analysis
                       ------------------------------------
 
 Vector   93  Occ=1.000000D+00  E=-6.798150D-01
              MO Center=  9.2D-09,  3.4D-07, -2.3D-06, r^2= 2.6D-01
  Bfn.     Coefficient        Function     Bfn.     Coefficient        Function
  ---- -------------------  ------------     ---- -------------------  ------------
    77   0.000003 0.456358  1 I  s                113   0.000003 0.456334  2 I  s          
    76   0.000002 0.327887  1 I  s                112   0.000002 0.327884  2 I  s          
     5  -0.176453-0.176451  1 I  s                 41  -0.176443-0.176440  2 I  s          
   114  -0.000001-0.192704  2 I  s                 78  -0.000001-0.192677  1 I  s          
     4  -0.126779-0.126777  1 I  s                 40  -0.126778-0.126776  2 I  s          
 
 Vector   94  Occ=1.000000D+00  E=-6.798149D-01
              MO Center=  7.2D-08, -3.5D-07, -7.6D-06, r^2= 8.7D-01
  Bfn.     Coefficient        Function     Bfn.     Coefficient        Function
  ---- -------------------  ------------     ---- -------------------  ------------
     5   0.322697 0.322689  1 I  s                 41   0.322681 0.322673  2 I  s          
     4   0.231854 0.231849  1 I  s                 40   0.231852 0.231846  2 I  s          
    77   0.000003 0.249540  1 I  s                113   0.000003 0.249527  2 I  s          
    42  -0.136264-0.136260  2 I  s                  6  -0.136245-0.136242  1 I  s          
    76   0.000002 0.179291  1 I  s                112   0.000002 0.179290  2 I  s          
 
 Vector   95  Occ=1.000000D+00  E=-5.922922D-01
              MO Center= -1.6D-09,  1.7D-07,  7.3D-07, r^2= 1.7D-01
  Bfn.     Coefficient        Function     Bfn.     Coefficient        Function
  ---- -------------------  ------------     ---- -------------------  ------------
   113   0.000136 0.562979  2 I  s                 77  -0.000136-0.562969  1 I  s          
   112   0.000093 0.383424  2 I  s                 76  -0.000093-0.383418  1 I  s          
   114  -0.000055-0.225846  2 I  s                 78   0.000055 0.225844  1 I  s          
    41   0.131093 0.131030  2 I  s                  5  -0.131092-0.131028  1 I  s          
   111  -0.000043-0.178194  2 I  s                 75   0.000043 0.178191  1 I  s          
 
 Vector   96  Occ=1.000000D+00  E=-5.922921D-01
              MO Center=  4.1D-08, -1.7D-07,  9.5D-06, r^2= 1.6D+00
  Bfn.     Coefficient        Function     Bfn.     Coefficient        Function
  ---- -------------------  ------------     ---- -------------------  ------------
    41   0.398082 0.398092  2 I  s                  5  -0.398074-0.398084  1 I  s          
    40   0.271118 0.271125  2 I  s                  4  -0.271114-0.271121  1 I  s          
    42  -0.159694-0.159699  2 I  s                  6   0.159693 0.159697  1 I  s          
   113   0.000002-0.185351  2 I  s                 77  -0.000002 0.185347  1 I  s          
    39  -0.126000-0.126004  2 I  s                  3   0.125998 0.126002  1 I  s          
 
 Vector   97  Occ=1.000000D+00  E=-3.585524D-01
              MO Center= -2.9D-08,  6.7D-07, -1.9D-06, r^2= 8.9D-01
  Bfn.     Coefficient        Function     Bfn.     Coefficient        Function
  ---- -------------------  ------------     ---- -------------------  ------------
    90   0.000026 0.473504  1 I  pz               126  -0.000026-0.473499  2 I  pz         
    18   0.306256 0.306223  1 I  pz                54  -0.306254-0.306220  2 I  pz         
    87  -0.000015-0.263830  1 I  pz               123   0.000015 0.263828  2 I  pz         
    15  -0.170642-0.170623  1 I  pz                51   0.170641 0.170622  2 I  pz         
 
 Vector   98  Occ=1.000000D+00  E=-3.585523D-01
              MO Center= -3.6D-08, -7.8D-07, -2.6D-06, r^2= 1.1D+00
  Bfn.     Coefficient        Function     Bfn.     Coefficient        Function
  ---- -------------------  ------------     ---- -------------------  ------------
    18   0.334806 0.334829  1 I  pz                54  -0.334803-0.334826  2 I  pz         
    90   0.000015-0.433089  1 I  pz               126  -0.000015 0.433084  2 I  pz         
    15  -0.186549-0.186562  1 I  pz                51   0.186548 0.186561  2 I  pz         
    87  -0.000008 0.241311  1 I  pz               123   0.000008-0.241309  2 I  pz         
 
 Vector   99  Occ=1.000000D+00  E=-2.973357D-01
              MO Center=  1.6D-08,  8.8D-08, -2.4D-06, r^2= 1.5D+00
  Bfn.     Coefficient        Function     Bfn.     Coefficient        Function
  ---- -------------------  ------------     ---- -------------------  ------------
    17   0.438482-0.000132  1 I  py                16   0.000136 0.438482  1 I  px         
    53   0.438478-0.000133  2 I  py                52   0.000136 0.438478  2 I  px         
    14  -0.236279 0.000071  1 I  py                13  -0.000073-0.236279  1 I  px         
    50  -0.236277 0.000071  2 I  py                49  -0.000073-0.236277  2 I  px         
 
 Vector  100  Occ=1.000000D+00  E=-2.973356D-01
              MO Center= -5.7D-11, -7.5D-08, -1.9D-07, r^2= 1.5D-01
  Bfn.     Coefficient        Function     Bfn.     Coefficient        Function
  ---- -------------------  ------------     ---- -------------------  ------------
    89   0.310384-0.309726  1 I  py                88  -0.309724-0.310386  1 I  px         
   125   0.310378-0.309720  2 I  py               124  -0.309718-0.310380  2 I  px         
    86  -0.167252 0.166898  1 I  py                85   0.166897 0.167253  1 I  px         
   122  -0.167250 0.166895  2 I  py               121   0.166894 0.167251  2 I  px         
 
 Vector  101  Occ=1.000000D+00  E=-2.821899D-01
              MO Center=  4.9D-09,  1.6D-08, -4.2D-07, r^2= 5.0D-02
  Bfn.     Coefficient        Function     Bfn.     Coefficient        Function
  ---- -------------------  ------------     ---- -------------------  ------------
    88   0.307603-0.307602  1 I  px                89  -0.307603-0.307602  1 I  py         
   124   0.307594-0.307593  2 I  px               125  -0.307594-0.307593  2 I  py         
    85  -0.172610 0.172609  1 I  px                86   0.172610 0.172609  1 I  py         
   121  -0.172605 0.172605  2 I  px               122   0.172605 0.172605  2 I  py         
 
 Vector  102  Occ=1.000000D+00  E=-2.821898D-01
              MO Center= -8.6D-09, -1.3D-08, -1.5D-05, r^2= 1.7D+00
  Bfn.     Coefficient        Function     Bfn.     Coefficient        Function
  ---- -------------------  ------------     ---- -------------------  ------------
    16   0.435016-0.000001  1 I  px                17  -0.000001 0.435016  1 I  py         
    52   0.435003-0.000002  2 I  px                53  -0.000002 0.435003  2 I  py         
    13  -0.244107 0.000001  1 I  px                14   0.000001-0.244107  1 I  py         
    49  -0.244100 0.000001  2 I  px                50   0.000001-0.244100  2 I  py         
 
 Vector  103  Occ=1.000000D+00  E=-2.376593D-01
              MO Center=  3.0D-08, -4.0D-08,  1.6D-06, r^2= 1.9D+00
  Bfn.     Coefficient        Function     Bfn.     Coefficient        Function
  ---- -------------------  ------------     ---- -------------------  ------------
    53   0.489075 0.000191  2 I  py                52  -0.000196 0.489075  2 I  px         
    17  -0.489073-0.000191  1 I  py                16   0.000196-0.489073  1 I  px         
    50  -0.259644-0.000101  2 I  py                49   0.000104-0.259644  2 I  px         
    14   0.259644 0.000101  1 I  py                13  -0.000104 0.259644  1 I  px         
 
 Vector  104  Occ=1.000000D+00  E=-2.376591D-01
              MO Center=  5.1D-09,  9.7D-08,  1.2D-06, r^2= 9.6D-02
  Bfn.     Coefficient        Function     Bfn.     Coefficient        Function
  ---- -------------------  ------------     ---- -------------------  ------------
   125   0.345780-0.345878  2 I  py               124  -0.345883-0.345776  2 I  px         
    89  -0.345777 0.345874  1 I  py                88   0.345879 0.345772  1 I  px         
   122  -0.183571 0.183623  2 I  py               121   0.183626 0.183569  2 I  px         
    86   0.183569-0.183621  1 I  py                85  -0.183623-0.183567  1 I  px         
 
 Vector  105  Occ=1.000000D+00  E=-2.224437D-01
              MO Center= -4.9D-08,  1.5D-08,  7.2D-07, r^2= 1.0D-01
  Bfn.     Coefficient        Function     Bfn.     Coefficient        Function
  ---- -------------------  ------------     ---- -------------------  ------------
   124   0.333911-0.333915  2 I  px               125  -0.333912-0.333915  2 I  py         
    88  -0.333903 0.333908  1 I  px                89   0.333904 0.333907  1 I  py         
   121  -0.183673 0.183676  2 I  px               122   0.183674 0.183675  2 I  py         
    85   0.183669-0.183671  1 I  px                86  -0.183669-0.183671  1 I  py         
 
 Vector  106  Occ=1.000000D+00  E=-2.224436D-01
              MO Center=  7.6D-08,  1.2D-08,  1.5D-05, r^2= 1.9D+00
  Bfn.     Coefficient        Function     Bfn.     Coefficient        Function
  ---- -------------------  ------------     ---- -------------------  ------------
    52  -0.472225-0.000002  2 I  px                53  -0.000002-0.472225  2 I  py         
    16   0.472213 0.000002  1 I  px                17   0.000002 0.472213  1 I  py         
    49   0.259755 0.000001  2 I  px                50   0.000001 0.259755  2 I  py         
    13  -0.259749-0.000001  1 I  px                14  -0.000001-0.259749  1 I  py         
 
 Vector  107  Occ=0.000000D+00  E=-1.661022D-01
              MO Center=  2.4D-08, -1.2D-08,  1.5D-06, r^2= 2.3D+00
  Bfn.     Coefficient        Function     Bfn.     Coefficient        Function
  ---- -------------------  ------------     ---- -------------------  ------------
    54   0.528452 0.528641  2 I  pz                18   0.528444 0.528633  1 I  pz         
    51  -0.273506-0.273604  2 I  pz                15  -0.273504-0.273602  1 I  pz         
    21   0.217801 0.217879  1 I  pz                57   0.217794 0.217872  2 I  pz         
     6   0.129262 0.129308  1 I  s                 42  -0.129257-0.129303  2 I  s          
    41   0.123957 0.124001  2 I  s                  5  -0.123951-0.123995  1 I  s          
 
 Vector  108  Occ=0.000000D+00  E=-1.661018D-01
              MO Center= -3.9D-09, -3.2D-08,  2.7D-06, r^2= 1.7D-02
  Bfn.     Coefficient        Function     Bfn.     Coefficient        Function
  ---- -------------------  ------------     ---- -------------------  ------------
   126   0.000006-0.747476  2 I  pz                90   0.000006-0.747467  1 I  pz         
   123  -0.000003 0.386865  2 I  pz                87  -0.000003 0.386862  1 I  pz         
    93   0.000002-0.308067  1 I  pz               129   0.000002-0.308062  2 I  pz         
    78   0.000001-0.182833  1 I  s                114  -0.000001 0.182826  2 I  s          
   113   0.000001-0.175333  2 I  s                 77  -0.000001 0.175328  1 I  s          
 
 Vector  109  Occ=0.000000D+00  E= 1.097839D-01
              MO Center= -5.6D-08,  2.6D-06, -5.5D-05, r^2= 8.8D-01
  Bfn.     Coefficient        Function     Bfn.     Coefficient        Function
  ---- -------------------  ------------     ---- -------------------  ------------
    93   0.001129-0.649396  1 I  pz               129  -0.001129 0.649099  2 I  pz         
    90  -0.000803 0.461999  1 I  pz               126   0.000803-0.461841  2 I  pz         
    21  -0.263927-0.264847  1 I  pz                57   0.263793 0.264712  2 I  pz         
   142  -0.000546 0.314324  2 I  d  0             106  -0.000546 0.314290  1 I  d  0       
    18   0.187764 0.188418  1 I  pz                54  -0.187693-0.188347  2 I  pz         
 
 Vector  110  Occ=0.000000D+00  E= 1.097841D-01
              MO Center=  1.8D-07, -1.2D-06, -1.6D-04, r^2= 2.6D+00
  Bfn.     Coefficient        Function     Bfn.     Coefficient        Function
  ---- -------------------  ------------     ---- -------------------  ------------
    21   0.458712 0.459693  1 I  pz                57  -0.458483-0.459464  2 I  pz         
    18  -0.326339-0.327037  1 I  pz                54   0.326217 0.326915  2 I  pz         
    93   0.000400-0.373920  1 I  pz               129  -0.000399 0.373690  2 I  pz         
    70  -0.222025-0.222500  2 I  d  0              34  -0.221998-0.222473  1 I  d  0       
    90  -0.000284 0.266012  1 I  pz               126   0.000284-0.265889  2 I  pz         
 
 Vector  111  Occ=0.000000D+00  E= 1.129405D-01
              MO Center= -6.2D-07,  9.0D-06,  2.1D-04, r^2= 5.4D+00
  Bfn.     Coefficient        Function     Bfn.     Coefficient        Function
  ---- -------------------  ------------     ---- -------------------  ------------
    57   0.923609 0.921855  2 I  pz                21   0.923473 0.921719  1 I  pz         
    54  -0.489853-0.488923  2 I  pz                18  -0.489755-0.488825  1 I  pz         
     6   0.363822 0.363131  1 I  s                 42  -0.363788-0.363097  2 I  s          
   129   0.000279 0.293518  2 I  pz                93   0.000279 0.293474  1 I  pz         
    51   0.187229 0.186873  2 I  pz                15   0.187195 0.186839  1 I  pz         
 
 Vector  112  Occ=0.000000D+00  E= 1.129410D-01
              MO Center=  4.5D-08, -1.0D-05,  7.7D-06, r^2= 3.8D-01
  Bfn.     Coefficient        Function     Bfn.     Coefficient        Function
  ---- -------------------  ------------     ---- -------------------  ------------
   129  -0.000197-1.304957  2 I  pz                93  -0.000197-1.304759  1 I  pz         
   126   0.000104 0.692111  2 I  pz                90   0.000104 0.691968  1 I  pz         
    78  -0.000078-0.514035  1 I  s                114   0.000078 0.513988  2 I  s          
    57   0.207588 0.207526  2 I  pz                21   0.207536 0.207474  1 I  pz         
   123  -0.000040-0.264535  2 I  pz                87  -0.000040-0.264485  1 I  pz         
 
 Vector  113  Occ=0.000000D+00  E= 1.490600D-01
              MO Center= -8.2D-08,  4.7D-07, -7.6D-06, r^2= 3.5D+00
  Bfn.     Coefficient        Function     Bfn.     Coefficient        Function
  ---- -------------------  ------------     ---- -------------------  ------------
    17   0.585425-0.000038  1 I  py                16   0.000023 0.585425  1 I  px         
    53   0.585416-0.000039  2 I  py                52   0.000022 0.585416  2 I  px         
    20  -0.574025 0.000037  1 I  py                19  -0.000023-0.574025  1 I  px         
    56  -0.574017 0.000038  2 I  py                55  -0.000021-0.574017  2 I  px         
   129  -0.000012-0.229646  2 I  pz                93  -0.000012-0.229621  1 I  pz         
 
 Vector  114  Occ=0.000000D+00  E= 1.490609D-01
              MO Center=  2.8D-08, -1.5D-07, -1.4D-06, r^2= 1.7D-01
  Bfn.     Coefficient        Function     Bfn.     Coefficient        Function
  ---- -------------------  ------------     ---- -------------------  ------------
    89   0.413732-0.414187  1 I  py                88  -0.414206-0.413713  1 I  px         
   125   0.413711-0.414168  2 I  py               124  -0.414186-0.413694  2 I  px         
    92  -0.405681 0.406127  1 I  py                91   0.406146 0.405662  1 I  px         
   128  -0.405650 0.406099  2 I  py               127   0.406115 0.405634  2 I  px         
    21  -0.162519-0.162333  1 I  pz                57  -0.162516-0.162329  2 I  pz         
 
 Vector  115  Occ=0.000000D+00  E= 1.577148D-01
              MO Center= -1.0D-07, -2.2D-09, -2.0D-07, r^2= 4.9D-02
  Bfn.     Coefficient        Function     Bfn.     Coefficient        Function
  ---- -------------------  ------------     ---- -------------------  ------------
    89  -0.412894-0.412912  1 I  py                88   0.412895-0.412911  1 I  px         
   125  -0.412887-0.412901  2 I  py               124   0.412888-0.412900  2 I  px         
    92   0.405789 0.405808  1 I  py                91  -0.405790 0.405807  1 I  px         
   127  -0.405781 0.405794  2 I  px               128   0.405780 0.405795  2 I  py         
    86   0.156072 0.156079  1 I  py                85  -0.156073 0.156079  1 I  px         
 
 Vector  116  Occ=0.000000D+00  E= 1.577149D-01
              MO Center=  2.4D-07, -7.1D-08, -1.4D-05, r^2= 3.6D+00
  Bfn.     Coefficient        Function     Bfn.     Coefficient        Function
  ---- -------------------  ------------     ---- -------------------  ------------
    17  -0.000009-0.583932  1 I  py                16  -0.583932-0.000009  1 I  px         
    53  -0.000006-0.583920  2 I  py                52  -0.583920-0.000006  2 I  px         
    20   0.000010 0.573885  1 I  py                19   0.573885 0.000010  1 I  px         
    55   0.573870 0.000006  2 I  px                56   0.000006 0.573870  2 I  py         
    14   0.000003 0.220724  1 I  py                13   0.220724 0.000003  1 I  px         
 
 Vector  117  Occ=0.000000D+00  E= 1.680314D-01
              MO Center=  5.9D-09, -2.8D-07,  2.3D-06, r^2= 1.2D+00
  Bfn.     Coefficient        Function     Bfn.     Coefficient        Function
  ---- -------------------  ------------     ---- -------------------  ------------
    71   0.000234 0.370472  2 I  d  1              69  -0.370472 0.000222  2 I  d -1       
    35  -0.000234-0.370472  1 I  d  1              33   0.370472-0.000223  1 I  d -1       
   105   0.206547-0.206775  1 I  d -1             107   0.206801 0.206521  1 I  d  1       
   141  -0.206546 0.206774  2 I  d -1             143  -0.206800-0.206520  2 I  d  1       
 
 Vector  118  Occ=0.000000D+00  E= 1.680315D-01
              MO Center=  2.8D-08,  2.5D-07,  1.8D-07, r^2= 7.6D-01
  Bfn.     Coefficient        Function     Bfn.     Coefficient        Function
  ---- -------------------  ------------     ---- -------------------  ------------
   143  -0.262615-0.261311  2 I  d  1             141  -0.261311 0.262615  2 I  d -1       
   107   0.262613 0.261309  1 I  d  1             105   0.261308-0.262613  1 I  d -1       
    33  -0.292262 0.000752  1 I  d -1              35   0.000704 0.292262  1 I  d  1       
    69   0.292261-0.000752  2 I  d -1              71  -0.000704-0.292261  2 I  d  1       
 
 Vector  119  Occ=0.000000D+00  E= 1.703922D-01
              MO Center=  6.8D-09,  1.2D-08,  3.2D-08, r^2= 5.5D-03
  Bfn.     Coefficient        Function     Bfn.     Coefficient        Function
  ---- -------------------  ------------     ---- -------------------  ------------
   107   0.326656-0.326666  1 I  d  1             105   0.326653 0.326669  1 I  d -1       
   141  -0.326651-0.326667  2 I  d -1             143  -0.326654 0.326664  2 I  d  1       
   124   0.122419-0.122421  2 I  px               125  -0.122418-0.122422  2 I  py         
    89  -0.122411-0.122423  1 I  py                88   0.122412-0.122422  1 I  px         
   102   0.117522-0.117525  1 I  d  1             100   0.117521 0.117526  1 I  d -1       
 
 Vector  120  Occ=0.000000D+00  E= 1.703922D-01
              MO Center= -2.4D-07,  6.5D-09, -3.3D-06, r^2= 1.9D+00
  Bfn.     Coefficient        Function     Bfn.     Coefficient        Function
  ---- -------------------  ------------     ---- -------------------  ------------
    35   0.461968 0.000009  1 I  d  1              33  -0.000009-0.461968  1 I  d -1       
    69   0.000009 0.461966  2 I  d -1              71  -0.461966-0.000009  2 I  d  1       
    52   0.173127 0.000001  2 I  px                53   0.000001 0.173127  2 I  py         
    17   0.000007 0.173124  1 I  py                16   0.173124 0.000007  1 I  px         
    30   0.166203 0.000003  1 I  d  1              28  -0.000003-0.166203  1 I  d -1       
 
 Vector  121  Occ=0.000000D+00  E= 1.736045D-01
              MO Center= -1.9D-07,  1.7D-06,  8.8D-07, r^2= 1.0D-01
  Bfn.     Coefficient        Function     Bfn.     Coefficient        Function
  ---- -------------------  ------------     ---- -------------------  ------------
   127  -0.526213-0.618418  2 I  px               128   0.618402-0.526231  2 I  py         
    91   0.526198 0.618396  1 I  px                92  -0.618385 0.526211  1 I  py         
   125  -0.439232 0.373767  2 I  py               124   0.373752 0.439245  2 I  px         
    88  -0.373735-0.439217  1 I  px                89   0.439211-0.373742  1 I  py         
   122   0.158091-0.134529  2 I  py               121  -0.134523-0.158096  2 I  px         
 
 Vector  122  Occ=0.000000D+00  E= 1.736046D-01
              MO Center=  6.1D-08, -1.7D-06,  1.3D-05, r^2= 4.2D+00
  Bfn.     Coefficient        Function     Bfn.     Coefficient        Function
  ---- -------------------  ------------     ---- -------------------  ------------
    55  -0.002023 0.811989  2 I  px                56   0.811989 0.002047  2 I  py         
    19   0.002027-0.811975  1 I  px                20  -0.811975-0.002044  1 I  py         
    53  -0.576729-0.001456  2 I  py                52   0.001436-0.576729  2 I  px         
    16  -0.001441 0.576710  1 I  px                17   0.576710 0.001450  1 I  py         
    50   0.207580 0.000524  2 I  py                49  -0.000517 0.207580  2 I  px         
 
 Vector  123  Occ=0.000000D+00  E= 1.829445D-01
              MO Center=  5.1D-07, -9.8D-09,  1.8D-07, r^2= 3.6D-02
  Bfn.     Coefficient        Function     Bfn.     Coefficient        Function
  ---- -------------------  ------------     ---- -------------------  ------------
   127   0.576280-0.576264  2 I  px               128  -0.576278-0.576267  2 I  py         
    91  -0.576273 0.576257  1 I  px                92   0.576270 0.576259  1 I  py         
   124  -0.421945 0.421933  2 I  px               125   0.421943 0.421935  2 I  py         
    88   0.421937-0.421925  1 I  px                89  -0.421935-0.421927  1 I  py         
   121   0.157090-0.157086  2 I  px               122  -0.157090-0.157087  2 I  py         
 
 Vector  124  Occ=0.000000D+00  E= 1.829446D-01
              MO Center= -1.5D-07,  4.1D-08,  1.5D-05, r^2= 4.2D+00
  Bfn.     Coefficient        Function     Bfn.     Coefficient        Function
  ---- -------------------  ------------     ---- -------------------  ------------
    55   0.814972-0.000010  2 I  px                56  -0.000010 0.814972  2 I  py         
    19  -0.814962 0.000010  1 I  px                20   0.000010-0.814962  1 I  py         
    52  -0.596711 0.000007  2 I  px                53   0.000007-0.596711  2 I  py         
    16   0.596700-0.000008  1 I  px                17  -0.000008 0.596700  1 I  py         
    49   0.222156-0.000002  2 I  px                50  -0.000002 0.222156  2 I  py         
 
 Vector  125  Occ=0.000000D+00  E= 2.126277D-01
              MO Center=  3.9D-09, -1.3D-06,  3.4D-07, r^2= 9.1D-02
  Bfn.     Coefficient        Function     Bfn.     Coefficient        Function
  ---- -------------------  ------------     ---- -------------------  ------------
    78   0.000117-1.367000  1 I  s                114   0.000117-1.366951  2 I  s          
    77   0.000112-1.306951  1 I  s                113   0.000112-1.306909  2 I  s          
    93  -0.000030 0.345633  1 I  pz               129   0.000030-0.345628  2 I  pz         
    90   0.000022-0.256681  1 I  pz               126  -0.000022 0.256667  2 I  pz         
    42  -0.155073-0.155100  2 I  s                  6  -0.155069-0.155096  1 I  s          
 
 Vector  126  Occ=0.000000D+00  E= 2.126278D-01
              MO Center= -1.5D-07,  6.5D-07, -1.7D-05, r^2= 3.2D+00
  Bfn.     Coefficient        Function     Bfn.     Coefficient        Function
  ---- -------------------  ------------     ---- -------------------  ------------
     6   0.976262 0.956861  1 I  s                 42   0.976235 0.956835  2 I  s          
     5   0.933377 0.914828  1 I  s                 41   0.933355 0.914807  2 I  s          
    21  -0.246839-0.241933  1 I  pz                57   0.246838 0.241933  2 I  pz         
    18   0.183311 0.179668  1 I  pz                54  -0.183306-0.179663  2 I  pz         
    78  -0.002201-0.219316  1 I  s                114  -0.002201-0.219306  2 I  s          
 
 Vector  127  Occ=0.000000D+00  E= 2.400836D-01
              MO Center= -2.4D-09,  1.6D-09, -6.1D-07, r^2= 1.1D-01
  Bfn.     Coefficient        Function     Bfn.     Coefficient        Function
  ---- -------------------  ------------     ---- -------------------  ------------
   108   0.496756 0.000000  1 I  d  2             104   0.000000 0.496752  1 I  d -2       
   144   0.496748 0.000000  2 I  d  2             140   0.000000 0.496744  2 I  d -2       
   103   0.165562 0.000000  1 I  d  2              99   0.000000 0.165560  1 I  d -2       
   139   0.165559 0.000000  2 I  d  2             135   0.000000 0.165557  2 I  d -2       
 
 Vector  128  Occ=0.000000D+00  E= 2.400837D-01
              MO Center=  1.7D-08,  4.0D-08, -1.1D-05, r^2= 1.8D+00
  Bfn.     Coefficient        Function     Bfn.     Coefficient        Function
  ---- -------------------  ------------     ---- -------------------  ------------
    36  -0.351260 0.351260  1 I  d  2              32   0.351257 0.351257  1 I  d -2       
    72  -0.351254 0.351254  2 I  d  2              68   0.351250 0.351250  2 I  d -2       
    31  -0.117070 0.117070  1 I  d  2              27   0.117069 0.117069  1 I  d -2       
    67  -0.117068 0.117068  2 I  d  2              63   0.117066 0.117066  2 I  d -2       
 
 Vector  129  Occ=0.000000D+00  E= 2.437939D-01
              MO Center=  3.4D-10, -2.5D-10, -1.1D-08, r^2= 1.8D-03
  Bfn.     Coefficient        Function     Bfn.     Coefficient        Function
  ---- -------------------  ------------     ---- -------------------  ------------
   108  -0.511744 0.000000  1 I  d  2             104   0.000000 0.511742  1 I  d -2       
   144  -0.511735 0.000000  2 I  d  2             140   0.000000 0.511733  2 I  d -2       
   103  -0.173771 0.000000  1 I  d  2              99   0.000000 0.173771  1 I  d -2       
   139  -0.173768 0.000000  2 I  d  2             135   0.000000 0.173768  2 I  d -2       
 
 Vector  130  Occ=0.000000D+00  E= 2.437940D-01
              MO Center=  5.3D-08,  4.2D-08, -1.3D-05, r^2= 1.9D+00
  Bfn.     Coefficient        Function     Bfn.     Coefficient        Function
  ---- -------------------  ------------     ---- -------------------  ------------
    36  -0.361858 0.361858  1 I  d  2              32  -0.361857-0.361857  1 I  d -2       
    72  -0.361851 0.361851  2 I  d  2              68  -0.361850-0.361850  2 I  d -2       
    31  -0.122875 0.122875  1 I  d  2              27  -0.122875-0.122875  1 I  d -2       
    67  -0.122872 0.122872  2 I  d  2              63  -0.122872-0.122872  2 I  d -2       
 
 Vector  131  Occ=0.000000D+00  E= 2.990650D-01
              MO Center=  1.5D-08, -7.8D-09,  8.6D-07, r^2= 1.6D-01
  Bfn.     Coefficient        Function     Bfn.     Coefficient        Function
  ---- -------------------  ------------     ---- -------------------  ------------
   140   0.000000 0.514927  2 I  d -2             144   0.514920 0.000000  2 I  d  2       
   104   0.000000-0.514919  1 I  d -2             108  -0.514912 0.000000  1 I  d  2       
   135   0.000000 0.168672  2 I  d -2             139   0.168669 0.000000  2 I  d  2       
    99   0.000000-0.168669  1 I  d -2             103  -0.168667 0.000000  1 I  d  2       
    72  -0.108087 0.108087  2 I  d  2              36   0.108085-0.108085  1 I  d  2       
 
 Vector  132  Occ=0.000000D+00  E= 2.990651D-01
              MO Center= -2.3D-08, -1.6D-08,  1.1D-05, r^2= 1.8D+00
  Bfn.     Coefficient        Function     Bfn.     Coefficient        Function
  ---- -------------------  ------------     ---- -------------------  ------------
    68   0.364108 0.364108  2 I  d -2              72  -0.364104 0.364104  2 I  d  2       
    32  -0.364102-0.364102  1 I  d -2              36   0.364098-0.364098  1 I  d  2       
    63   0.119269 0.119269  2 I  d -2              67  -0.119267 0.119267  2 I  d  2       
    27  -0.119267-0.119267  1 I  d -2              31   0.119265-0.119265  1 I  d  2       
   144  -0.152859 0.000000  2 I  d  2             108   0.152857 0.000000  1 I  d  2       
 
 Vector  133  Occ=0.000000D+00  E= 3.029478D-01
              MO Center= -2.1D-10,  6.4D-11,  1.7D-08, r^2= 2.8D-03
  Bfn.     Coefficient        Function     Bfn.     Coefficient        Function
  ---- -------------------  ------------     ---- -------------------  ------------
   140   0.000000 0.536784  2 I  d -2             144  -0.536783 0.000000  2 I  d  2       
   104   0.000000-0.536775  1 I  d -2             108   0.536775 0.000000  1 I  d  2       
   135   0.000000 0.179013  2 I  d -2             139  -0.179013 0.000000  2 I  d  2       
    99   0.000000-0.179010  1 I  d -2             103   0.179010 0.000000  1 I  d  2       
 
 Vector  134  Occ=0.000000D+00  E= 3.029478D-01
              MO Center= -1.8D-08,  4.2D-09,  1.3D-05, r^2= 2.0D+00
  Bfn.     Coefficient        Function     Bfn.     Coefficient        Function
  ---- -------------------  ------------     ---- -------------------  ------------
    68  -0.379564-0.379564  2 I  d -2              72  -0.379563 0.379563  2 I  d  2       
    32   0.379557 0.379557  1 I  d -2              36   0.379557-0.379557  1 I  d  2       
    63  -0.126582-0.126582  2 I  d -2              67  -0.126581 0.126581  2 I  d  2       
    27   0.126579 0.126579  1 I  d -2              31   0.126579-0.126579  1 I  d  2       
 
 Vector  135  Occ=0.000000D+00  E= 3.371099D-01
              MO Center=  1.7D-08, -1.0D-06,  3.2D-07, r^2= 7.3D-01
  Bfn.     Coefficient        Function     Bfn.     Coefficient        Function
  ---- -------------------  ------------     ---- -------------------  ------------
   114   0.004179-1.368383  2 I  s                 78  -0.004179 1.368367  1 I  s          
   113   0.003181-1.041683  2 I  s                 77  -0.003181 1.041669  1 I  s          
    42   0.649090 0.653066  2 I  s                  6  -0.649081-0.653057  1 I  s          
    41   0.494122 0.497149  2 I  s                  5  -0.494111-0.497138  1 I  s          
    93  -0.001591 0.521022  1 I  pz               129  -0.001591 0.521013  2 I  pz         
 
 Vector  136  Occ=0.000000D+00  E= 3.371103D-01
              MO Center=  2.1D-07,  1.2D-06,  5.4D-06, r^2= 1.6D+00
  Bfn.     Coefficient        Function     Bfn.     Coefficient        Function
  ---- -------------------  ------------     ---- -------------------  ------------
    42   0.969363 0.965817  2 I  s                  6  -0.969360-0.965815  1 I  s          
     5  -0.737928-0.735229  1 I  s                 41   0.737925 0.735226  2 I  s          
   114   0.001687 0.920760  2 I  s                 78  -0.001687-0.920754  1 I  s          
   113   0.001284 0.700931  2 I  s                 77  -0.001284-0.700924  1 I  s          
    21  -0.369098-0.367748  1 I  pz                57  -0.369085-0.367735  2 I  pz         
 
 Vector  137  Occ=0.000000D+00  E= 3.574712D-01
              MO Center=  6.9D-08, -7.7D-07, -1.7D-05, r^2= 2.2D+00
  Bfn.     Coefficient        Function     Bfn.     Coefficient        Function
  ---- -------------------  ------------     ---- -------------------  ------------
    54   0.489625 0.493998  2 I  pz                18  -0.489610-0.493983  1 I  pz         
     5   0.449357 0.453370  1 I  s                 41   0.449333 0.453346  2 I  s          
    21   0.439339 0.443263  1 I  pz                57  -0.439336-0.443260  2 I  pz         
    34   0.384332 0.387764  1 I  d  0              70   0.384306 0.387738  2 I  d  0       
     6   0.235957 0.238065  1 I  s                 42   0.235920 0.238027  2 I  s          
 
 Vector  138  Occ=0.000000D+00  E= 3.574714D-01
              MO Center= -3.3D-09,  8.3D-07, -8.6D-07, r^2= 1.2D-01
  Bfn.     Coefficient        Function     Bfn.     Coefficient        Function
  ---- -------------------  ------------     ---- -------------------  ------------
   126  -0.000713-0.695529  2 I  pz                90   0.000713 0.695515  1 I  pz         
    77  -0.000654-0.638331  1 I  s                113  -0.000654-0.638295  2 I  s          
    93  -0.000640-0.624099  1 I  pz               129   0.000640 0.624095  2 I  pz         
   106  -0.000560-0.545950  1 I  d  0             142  -0.000560-0.545930  2 I  d  0       
    78  -0.000344-0.335185  1 I  s                114  -0.000343-0.335135  2 I  s          
 
 Vector  139  Occ=0.000000D+00  E= 4.195627D-01
              MO Center= -2.1D-08,  6.8D-07,  4.5D-07, r^2= 3.9D-01
  Bfn.     Coefficient        Function     Bfn.     Coefficient        Function
  ---- -------------------  ------------     ---- -------------------  ------------
   141   0.400631-0.398774  2 I  d -1             143   0.398734 0.400671  2 I  d  1       
   105   0.400630-0.398773  1 I  d -1             107   0.398733 0.400670  1 I  d  1       
    92   0.216769-0.215764  1 I  py                91  -0.215743-0.216790  1 I  px         
   128  -0.216769 0.215764  2 I  py               127   0.215742 0.216790  2 I  px         
    71  -0.000594 0.254704  2 I  d  1              69  -0.254704-0.000614  2 I  d -1       
 
 Vector  140  Occ=0.000000D+00  E= 4.195630D-01
              MO Center= -3.3D-08, -6.7D-07,  2.2D-06, r^2= 1.9D+00
  Bfn.     Coefficient        Function     Bfn.     Coefficient        Function
  ---- -------------------  ------------     ---- -------------------  ------------
    69  -0.565265-0.001073  2 I  d -1              71  -0.001038 0.565265  2 I  d  1       
    33  -0.565263-0.001073  1 I  d -1              35  -0.001038 0.565263  1 I  d  1       
    56   0.305848 0.000580  2 I  py                55  -0.000562 0.305848  2 I  px         
    20  -0.305847-0.000580  1 I  py                19   0.000562-0.305847  1 I  px         
   143  -0.179775-0.180432  2 I  d  1             141  -0.180448 0.179759  2 I  d -1       
 
 Vector  141  Occ=0.000000D+00  E= 4.217514D-01
              MO Center=  2.7D-08, -3.4D-08, -6.5D-09, r^2= 4.7D-02
  Bfn.     Coefficient        Function     Bfn.     Coefficient        Function
  ---- -------------------  ------------     ---- -------------------  ------------
   141  -0.434180-0.434145  2 I  d -1             143  -0.434174 0.434151  2 I  d  1       
   105  -0.434179-0.434144  1 I  d -1             107  -0.434173 0.434150  1 I  d  1       
    92  -0.235897-0.235878  1 I  py                91   0.235894-0.235881  1 I  px         
   128   0.235897 0.235878  2 I  py               127  -0.235894 0.235881  2 I  px         
   136  -0.131755-0.131745  2 I  d -1             138  -0.131753 0.131747  2 I  d  1       
 
 Vector  142  Occ=0.000000D+00  E= 4.217515D-01
              MO Center=  1.0D-07, -1.0D-08,  1.9D-06, r^2= 2.2D+00
  Bfn.     Coefficient        Function     Bfn.     Coefficient        Function
  ---- -------------------  ------------     ---- -------------------  ------------
    69  -0.000023 0.613998  2 I  d -1              71  -0.613998 0.000023  2 I  d  1       
    33  -0.000023 0.613997  1 I  d -1              35  -0.613997 0.000023  1 I  d  1       
    20  -0.000013 0.333595  1 I  py                19   0.333595-0.000013  1 I  px         
    56   0.000013-0.333595  2 I  py                55  -0.333595 0.000013  2 I  px         
    64  -0.000007 0.186323  2 I  d -1              66  -0.186323 0.000007  2 I  d  1       
 
 Vector  143  Occ=0.000000D+00  E= 6.596820D-01
              MO Center= -1.9D-07, -2.2D-06,  1.4D-05, r^2= 2.2D+00
  Bfn.     Coefficient        Function     Bfn.     Coefficient        Function
  ---- -------------------  ------------     ---- -------------------  ------------
    42   1.742459 1.744462  2 I  s                  6  -1.742446-1.744449  1 I  s          
   114   0.000912-1.587748  2 I  s                 78  -0.000912 1.587734  1 I  s          
    41   0.955813 0.956912  2 I  s                  5  -0.955792-0.956891  1 I  s          
    57  -0.686261-0.687050  2 I  pz                21  -0.686249-0.687038  1 I  pz         
    70   0.620423 0.621137  2 I  d  0              34  -0.620417-0.621130  1 I  d  0       
 

   alpha - beta orbital overlaps 
   ----------------------------- 


   alpha      1      2      3      4      5      6      7      8      9     10
    beta      1      2      3      4      5      5      7      8      9     10
 overlap   1.148  1.512  1.902  1.770  0.651  0.266  1.253  1.253  1.252  1.741


   alpha     11     12     13     14     15     16     17     18     19     20
    beta     11     12     13     14     15     16     17     18     16     17
 overlap   1.741  1.717  1.695  1.695  1.569  0.890  0.890  0.433  0.213  0.213


   alpha     21     22     23     24     25     26     27     28     29     30
    beta     18     22     23     24     25     26     27     28     29     30
 overlap   0.043  1.161  1.161  1.161  1.161  1.161  1.155  1.155  1.157  1.155


   alpha     31     32     33     34     35     36     37     38     39     40
    beta     31     27     53     18     52     31     37     38     39     40
 overlap   1.155  0.011  0.044  0.030  0.044  0.011  1.148  1.512  1.902  1.770


   alpha     41     42     43     44     45     46     47     48     49     50
    beta     41     41     43     44     45     46     47     48     49     50
 overlap   0.651  0.266  1.253  1.253  1.252  1.741  1.741  1.717  1.695  1.695


   alpha     51     52     53     54     55     56     57     58     59     60
    beta     51     52     53     54     52     53     54     58     59     60
 overlap   1.569  0.890  0.890  0.433  0.213  0.213  0.043  1.161  1.161  1.161


   alpha     61     62     63     64     65     66     67     68     69     70
    beta     61     62     63     64     65     66     67     63     17     54
 overlap   1.161  1.161  1.155  1.155  1.157  1.155  1.155  0.011  0.044  0.030


   alpha     71     72
    beta     16     67
 overlap   0.044  0.011

     --------------------------
     Expectation value of S2:  
     --------------------------
      <S2> =      0.0186 (Exact =     0.0000)
 
 
     Multipole analysis of the density
     ---------------------------------
 
     L   x y z        total         alpha         beta         nuclear
     -   - - -        -----         -----         ----         -------
     0   0 0 0      0.000000    -52.999999    -53.000001    106.000000
 
     1   1 0 0      0.000000      0.000000      0.000000      0.000000
     1   0 1 0      0.000000      0.000000      0.000000      0.000000
     1   0 0 1      0.000033      0.000013      0.000020      0.000000
 
     2   2 0 0    -41.911549    -20.955771    -20.955779      0.000000
     2   1 1 0      0.000000      0.000000      0.000000      0.000000
     2   1 0 1      0.000002      0.000001      0.000001      0.000000
     2   0 2 0    -41.911549    -20.955771    -20.955779      0.000000
     2   0 1 1      0.000002      0.000001      0.000001      0.000000
     2   0 0 2    -36.140857   -355.302466   -355.302491    674.464101
 

 Parallel integral file used      12 records with       0 large values

  WARNING: CD fitting not compatible with spinorbit
  WARNING: disabling CD fitting
 
 
                            NWChem DFT Gradient Module
                            --------------------------
 
 

  charge          =   0.00
  wavefunction    = open shell


 Read molecular orbitals from ./i2_zora_so.movecs

  Using symmetry

 Read molecular orbitals from ./i2_zora_so.movecs



                         sodft ENERGY GRADIENTS

    atom               coordinates                        gradient
                 x          y          z           x          y          z
   1 I       0.000000   0.000000  -2.522473    0.000000   0.000000   0.007536
   2 I       0.000000   0.000000   2.522473    0.000000   0.000000  -0.007536
 
                 ----------------------------------------
                 |  Time  |  1-e(secs)   |  2-e(secs)   |
                 ----------------------------------------
                 |  CPU   |       0.01   |       3.01   |
                 ----------------------------------------
                 |  WALL  |       0.01   |       3.01   |
                 ----------------------------------------

@ Step       Energy      Delta E   Gmax     Grms     Xrms     Xmax   Walltime
@ ---- ---------------- -------- -------- -------- -------- -------- --------
@    0  -14341.07537487  0.0D+00  0.00754  0.00435  0.00000  0.00000     71.7
                                                       ok       ok  

                                 NWChem DFT Module
                                 -----------------
 
 
  WARNING: CD fitting not compatible with spinorbit
  WARNING: disabling CD fitting
  Caching 1-el integrals 
 
            General Information
            -------------------
          SCF calculation type: DFT
          Wavefunction type:  spin polarized.
          No. of atoms     :     2
          No. of electrons :   106
           Alpha electrons :    53
            Beta electrons :    53
          Charge           :     0
          Spin multiplicity:     1
          Use of symmetry is: off; symmetry adaption is: off
          Maximum number of iterations: 100
          AO basis - number of functions:    72
                     number of shells:    28
          Convergence on energy requested: 1.00D-06
          Convergence on density requested: 1.00D-05
          Convergence on gradient requested: 5.00D-04
 
              XC Information
              --------------
          PerdewBurkeErnzerhof Exchange Functional  1.000          
            Perdew 1991 LDA Correlation Functional  1.000 local    
           PerdewBurkeErnz. Correlation Functional  1.000 non-local
 
             Grid Information
             ----------------
          Grid used for XC integration:  fine      
          Radial quadrature: Mura-Knowles        
          Angular quadrature: Lebedev. 
          Tag              B.-S. Rad. Rad. Pts. Rad. Cut. Ang. Pts.
          ---              ---------- --------- --------- ---------
          I                   1.40      141          11.0       974
          Grid pruning is: on 
          Number of quadrature shells:   282
          Spatial weights used:  Erf1
 
          Convergence Information
          -----------------------
          Convergence aids based upon iterative change in 
          total energy or number of iterations. 
          Levelshifting, if invoked, occurs when the 
          HOMO/LUMO gap drops below (HL_TOL): 1.00D-02
          DIIS, if invoked, will attempt to extrapolate 
          using up to (NFOCK): 10 stored Fock matrices.

                    Damping( 0%)  Levelshifting(0.5)       DIIS
                  --------------- ------------------- ---------------
          dE  on:    start            ASAP                start   
          dE off:    2 iters        100 iters           100 iters 

 
      Screening Tolerance Information
      -------------------------------
          Density screening/tol_rho: 1.00D-10
          AO Gaussian exp screening on grid/accAOfunc:  14
          CD Gaussian exp screening on grid/accCDfunc:  20
          XC Gaussian exp screening on grid/accXCfunc:  20
          Schwarz screening/accCoul: 1.00D-10

 
 Performing spin-orbit zora calculations
 
 
      Superposition of Atomic Density Guess
      -------------------------------------
 
 Sum of atomic energies:      -13834.25739884
 
      Non-variational initial energy
      ------------------------------

 Total energy =  -13834.380968
 1-e energy   =  -20120.137559
 2-e energy   =    5732.268964
 HOMO         =      -0.295844
 LUMO         =      -0.127866
 

 Loading old vectors from job with title :




 Read atomic ZORA corrections from ./i2_zora_so.zora_so

   Time prior to 1st pass:     69.8

 Integral file          = ./i2_zora_so.aoints.0
 Record size in doubles =  65536        No. of integs per rec  =  43688
 Max. records in memory =      4        Max. records in file   =  87000
 No. of bits per label  =      8        No. of bits per value  =     64


 #quartets = 6.611D+04 #integrals = 5.559D+05 #direct =  0.0% #cached =100.0%


File balance: exchanges=     0  moved=     0  time=   0.0


 Grid_pts file          = ./i2_zora_so.gridpts.0
 Record size in doubles =  12289        No. of grid_pts per rec  =   3070
 Max. records in memory =     26        Max. recs in file   =    463968


           Memory utilization after 1st SCF pass: 
           Heap Space remaining (MW):       12.52            12518659
          Stack Space remaining (MW):       13.06            13063536

   convergence    iter        energy       DeltaE   RMS-Dens  Diis-err    time
 ---------------- ----- ----------------- --------- --------- ---------  ------
 d= 0,ls=0.5,diis     1 -14340.9159733545 -1.49D+04  1.14D-02  5.96D+01    72.7
                                                     1.14D-02  5.96D+01
 d= 0,ls=0.0,diis     2 -14341.0706660287 -1.55D-01  1.84D-03  1.08D-02    73.7
                                                     1.84D-03  1.08D-02
 d= 0,ls=0.0,diis     3 -14341.0747035879 -4.04D-03  9.27D-04  2.20D-03    74.7
                                                     9.27D-04  2.20D-03
 d= 0,ls=0.0,diis     4 -14341.0751160827 -4.12D-04  4.19D-04  1.11D-03    75.8
                                                     4.19D-04  1.11D-03
 d= 0,ls=0.0,diis     5 -14341.0755669124 -4.51D-04  4.38D-05  3.56D-06    76.8
                                                     4.38D-05  3.56D-06
 d= 0,ls=0.0,diis     6 -14341.0755674966 -5.84D-07  1.15D-05  2.51D-06    77.9
                                                     1.15D-05  2.51D-06
 d= 0,ls=0.0,diis     7 -14341.0755675842 -8.75D-08  4.18D-08  2.28D-06    78.9
                                                     4.18D-08  2.28D-06


         Total DFT energy = -14341.075567584208
       Scaling correction =    183.158975854510
      One electron energy = -20634.618404014629
           Coulomb energy =   6092.088585849149
    Exchange-Corr. energy =   -352.033375870487
 Nuclear repulsion energy =    553.487626451760

 Numeric. integr. density =    106.000000000033

     Total iterative time =     10.4s


 
                       DFT Final Molecular Orbital Analysis
                       ------------------------------------
 
 Vector   93  Occ=1.000000D+00  E=-6.778983D-01
              MO Center=  9.1D-09,  3.4D-07, -6.2D-07, r^2= 2.6D-01
  Bfn.     Coefficient        Function     Bfn.     Coefficient        Function
  ---- -------------------  ------------     ---- -------------------  ------------
    77   0.001258 0.458687  1 I  s                113   0.001258 0.458670  2 I  s          
   112   0.000904 0.329533  2 I  s                 76   0.000904 0.329533  1 I  s          
     5  -0.175166-0.174208  1 I  s                 41  -0.175158-0.174200  2 I  s          
   114  -0.000534-0.194574  2 I  s                 78  -0.000534-0.194545  1 I  s          
    40  -0.125844-0.125155  2 I  s                  4  -0.125843-0.125155  1 I  s          
 
 Vector   94  Occ=1.000000D+00  E=-6.778982D-01
              MO Center=  7.0D-08, -3.4D-07, -2.2D-06, r^2= 8.9D-01
  Bfn.     Coefficient        Function     Bfn.     Coefficient        Function
  ---- -------------------  ------------     ---- -------------------  ------------
     5   0.323892 0.324791  1 I  s                 41   0.323881 0.324780  2 I  s          
    40   0.232693 0.233339  2 I  s                  4   0.232693 0.233338  1 I  s          
    77  -0.000342 0.247044  1 I  s                113  -0.000342 0.247036  2 I  s          
    42  -0.137394-0.137775  2 I  s                  6  -0.137374-0.137755  1 I  s          
   112  -0.000246 0.177484  2 I  s                 76  -0.000246 0.177483  1 I  s          
 
 Vector   95  Occ=1.000000D+00  E=-5.931324D-01
              MO Center=  1.2D-08,  1.6D-07,  2.0D-07, r^2= 1.9D-01
  Bfn.     Coefficient        Function     Bfn.     Coefficient        Function
  ---- -------------------  ------------     ---- -------------------  ------------
   113  -0.049112-0.561937  2 I  s                 77   0.049111 0.561931  1 I  s          
   112  -0.033462-0.382867  2 I  s                 76   0.033461 0.382865  1 I  s          
    78  -0.019708-0.225494  1 I  s                114   0.019708 0.225494  2 I  s          
    41  -0.138795-0.116485  2 I  s                  5   0.138795 0.116484  1 I  s          
   111   0.015550 0.177918  2 I  s                 75  -0.015549-0.177917  1 I  s          
 
 Vector   96  Occ=1.000000D+00  E=-5.931323D-01
              MO Center=  3.9D-08, -1.5D-07,  4.6D-06, r^2= 1.6D+00
  Bfn.     Coefficient        Function     Bfn.     Coefficient        Function
  ---- -------------------  ------------     ---- -------------------  ------------
    41  -0.399093-0.398636  2 I  s                  5   0.399089 0.398632  1 I  s          
    40  -0.271916-0.271604  2 I  s                  4   0.271914 0.271603  1 I  s          
     6  -0.160147-0.159964  1 I  s                 42   0.160147 0.159963  2 I  s          
   113   0.000104 0.181200  2 I  s                 77  -0.000104-0.181199  1 I  s          
    39   0.126359 0.126214  2 I  s                  3  -0.126358-0.126213  1 I  s          
 
 Vector   97  Occ=1.000000D+00  E=-3.577892D-01
              MO Center= -2.5D-08,  6.5D-07, -1.0D-06, r^2= 8.9D-01
  Bfn.     Coefficient        Function     Bfn.     Coefficient        Function
  ---- -------------------  ------------     ---- -------------------  ------------
    90   0.002829 0.475739  1 I  pz               126  -0.002829-0.475737  2 I  pz         
    18   0.306527 0.302902  1 I  pz                54  -0.306526-0.302902  2 I  pz         
    87  -0.001575-0.264807  1 I  pz               123   0.001575 0.264807  2 I  pz         
    51   0.170620 0.168603  2 I  pz                15  -0.170620-0.168602  1 I  pz         
 
 Vector   98  Occ=1.000000D+00  E=-3.577891D-01
              MO Center= -3.8D-08, -7.6D-07, -1.6D-06, r^2= 1.1D+00
  Bfn.     Coefficient        Function     Bfn.     Coefficient        Function
[...]
   144   0.512702 0.000000  2 I  d  2             140   0.000000-0.512701  2 I  d -2       
   103   0.173897 0.000000  1 I  d  2              99   0.000000-0.173896  1 I  d -2       
   139   0.173896 0.000000  2 I  d  2             135   0.000000-0.173896  2 I  d -2       
 
 Vector  130  Occ=0.000000D+00  E= 2.456907D-01
              MO Center=  5.2D-08,  4.1D-08, -3.2D-06, r^2= 1.9D+00
  Bfn.     Coefficient        Function     Bfn.     Coefficient        Function
  ---- -------------------  ------------     ---- -------------------  ------------
    36   0.362537-0.362537  1 I  d  2              32   0.362536 0.362536  1 I  d -2       
    72   0.362535-0.362535  2 I  d  2              68   0.362534 0.362534  2 I  d -2       
    31   0.122964-0.122964  1 I  d  2              27   0.122963 0.122963  1 I  d -2       
    67   0.122963-0.122963  2 I  d  2              63   0.122963 0.122963  2 I  d -2       
 
 Vector  131  Occ=0.000000D+00  E= 2.974479D-01
              MO Center=  1.1D-08, -1.8D-09,  7.7D-08, r^2= 1.4D-01
  Bfn.     Coefficient        Function     Bfn.     Coefficient        Function
  ---- -------------------  ------------     ---- -------------------  ------------
   140   0.000000 0.517022  2 I  d -2             104   0.000000-0.517022  1 I  d -2       
   144   0.517016 0.000000  2 I  d  2             108  -0.517015 0.000000  1 I  d  2       
   135   0.000000 0.169513  2 I  d -2              99   0.000000-0.169513  1 I  d -2       
   139   0.169511 0.000000  2 I  d  2             103  -0.169511 0.000000  1 I  d  2       
 
 Vector  132  Occ=0.000000D+00  E= 2.974480D-01
              MO Center= -1.6D-08, -2.0D-08,  2.4D-06, r^2= 1.9D+00
  Bfn.     Coefficient        Function     Bfn.     Coefficient        Function
  ---- -------------------  ------------     ---- -------------------  ------------
    68   0.365590 0.365590  2 I  d -2              32  -0.365589-0.365589  1 I  d -2       
    72  -0.365586 0.365586  2 I  d  2              36   0.365585-0.365585  1 I  d  2       
    63   0.119864 0.119864  2 I  d -2              27  -0.119863-0.119863  1 I  d -2       
    67  -0.119863 0.119863  2 I  d  2              31   0.119862-0.119862  1 I  d  2       
 
 Vector  133  Occ=0.000000D+00  E= 3.013223D-01
              MO Center= -2.0D-10,  7.7D-11,  2.8D-09, r^2= 2.3D-03
  Bfn.     Coefficient        Function     Bfn.     Coefficient        Function
  ---- -------------------  ------------     ---- -------------------  ------------
   140   0.000000 0.535784  2 I  d -2             144  -0.535783 0.000000  2 I  d  2       
   104   0.000000-0.535783  1 I  d -2             108   0.535782 0.000000  1 I  d  2       
   135   0.000000 0.178845  2 I  d -2             139  -0.178844 0.000000  2 I  d  2       
    99   0.000000-0.178844  1 I  d -2             103   0.178844 0.000000  1 I  d  2       
 
 Vector  134  Occ=0.000000D+00  E= 3.013224D-01
              MO Center= -1.6D-08,  6.2D-09,  3.2D-06, r^2= 2.0D+00
  Bfn.     Coefficient        Function     Bfn.     Coefficient        Function
  ---- -------------------  ------------     ---- -------------------  ------------
    68   0.378857 0.378857  2 I  d -2              72   0.378856-0.378856  2 I  d  2       
    32  -0.378855-0.378855  1 I  d -2              36  -0.378854 0.378854  1 I  d  2       
    63   0.126462 0.126462  2 I  d -2              67   0.126462-0.126462  2 I  d  2       
    27  -0.126462-0.126462  1 I  d -2              31  -0.126462 0.126462  1 I  d  2       
 
 Vector  135  Occ=0.000000D+00  E= 3.323243D-01
              MO Center=  1.7D-08, -1.1D-06, -1.8D-07, r^2= 7.2D-01
  Bfn.     Coefficient        Function     Bfn.     Coefficient        Function
  ---- -------------------  ------------     ---- -------------------  ------------
   114   0.004792-1.337489  2 I  s                 78  -0.004792 1.337481  1 I  s          
   113   0.003678-1.026658  2 I  s                 77  -0.003678 1.026654  1 I  s          
    42   0.630937 0.635474  2 I  s                  6  -0.630932-0.635468  1 I  s          
    41   0.484310 0.487792  2 I  s                  5  -0.484303-0.487785  1 I  s          
    93  -0.001812 0.505827  1 I  pz               129  -0.001812 0.505811  2 I  pz         
 
 Vector  136  Occ=0.000000D+00  E= 3.323247D-01
              MO Center=  2.2D-07,  1.3D-06,  5.4D-06, r^2= 1.6D+00
  Bfn.     Coefficient        Function     Bfn.     Coefficient        Function
  ---- -------------------  ------------     ---- -------------------  ------------
     6   0.947404 0.944096  1 I  s                 42  -0.947400-0.944093  2 I  s          
     5   0.727233 0.724695  1 I  s                 41  -0.727221-0.724682  2 I  s          
   114  -0.001565-0.895487  2 I  s                 78   0.001565 0.895486  1 I  s          
   113  -0.001202-0.687378  2 I  s                 77   0.001202 0.687377  1 I  s          
    21   0.358306 0.357055  1 I  pz                57   0.358286 0.357035  2 I  pz         
 
 Vector  137  Occ=0.000000D+00  E= 3.488732D-01
              MO Center=  6.9D-08, -7.4D-07, -1.7D-05, r^2= 2.2D+00
  Bfn.     Coefficient        Function     Bfn.     Coefficient        Function
  ---- -------------------  ------------     ---- -------------------  ------------
    54  -0.494759-0.499145  2 I  pz                18   0.494744 0.499130  1 I  pz         
    57   0.440738 0.444645  2 I  pz                21  -0.440734-0.444641  1 I  pz         
     5  -0.434804-0.438658  1 I  s                 41  -0.434795-0.438649  2 I  s          
    34  -0.378339-0.381693  1 I  d  0              70  -0.378311-0.381664  2 I  d  0       
     6  -0.225912-0.227914  1 I  s                 42  -0.225896-0.227899  2 I  s          
 
 Vector  138  Occ=0.000000D+00  E= 3.488734D-01
              MO Center= -2.1D-09,  7.9D-07, -8.0D-07, r^2= 1.1D-01
  Bfn.     Coefficient        Function     Bfn.     Coefficient        Function
  ---- -------------------  ------------     ---- -------------------  ------------
   126   0.001175 0.702798  2 I  pz                90  -0.001175-0.702785  1 I  pz         
   129  -0.001047-0.626064  2 I  pz                93   0.001047 0.626060  1 I  pz         
    77   0.001032 0.617639  1 I  s                113   0.001032 0.617619  2 I  s          
   106   0.000898 0.537418  1 I  d  0             142   0.000898 0.537396  2 I  d  0       
    78   0.000536 0.320907  1 I  s                114   0.000536 0.320882  2 I  s          
 
 Vector  139  Occ=0.000000D+00  E= 4.140996D-01
              MO Center= -2.1D-08,  6.8D-07,  7.3D-08, r^2= 3.7D-01
  Bfn.     Coefficient        Function     Bfn.     Coefficient        Function
  ---- -------------------  ------------     ---- -------------------  ------------
   141  -0.398516 0.396127  2 I  d -1             105  -0.398516 0.396126  1 I  d -1       
   143  -0.396087-0.398556  2 I  d  1             107  -0.396087-0.398556  1 I  d  1       
    92  -0.216939 0.215638  1 I  py                91   0.215617 0.216960  1 I  px         
   128   0.216939-0.215638  2 I  py               127  -0.215617-0.216960  2 I  px         
    35   0.000738-0.244735  1 I  d  1              33   0.244735 0.000758  1 I  d -1       
 
 Vector  140  Occ=0.000000D+00  E= 4.140999D-01
              MO Center= -3.3D-08, -6.6D-07,  4.0D-07, r^2= 1.9D+00
  Bfn.     Coefficient        Function     Bfn.     Coefficient        Function
  ---- -------------------  ------------     ---- -------------------  ------------
    33  -0.561898-0.001195  1 I  d -1              69  -0.561898-0.001195  2 I  d -1       
    35  -0.001159 0.561898  1 I  d  1              71  -0.001159 0.561898  2 I  d  1       
    56   0.305879 0.000650  2 I  py                55  -0.000631 0.305879  2 I  px         
    20  -0.305879-0.000650  1 I  py                19   0.000631-0.305879  1 I  px         
   107  -0.172700-0.173410  1 I  d  1             105  -0.173425 0.172684  1 I  d -1       
 
 Vector  141  Occ=0.000000D+00  E= 4.163108D-01
              MO Center=  2.1D-08, -2.8D-08, -5.4D-08, r^2= 2.9D-02
  Bfn.     Coefficient        Function     Bfn.     Coefficient        Function
  ---- -------------------  ------------     ---- -------------------  ------------
   105   0.430832 0.430800  1 I  d -1             141   0.430832 0.430800  2 I  d -1       
   107   0.430829-0.430802  1 I  d  1             143   0.430829-0.430802  2 I  d  1       
    92   0.235831 0.235812  1 I  py                91  -0.235829 0.235814  1 I  px         
   128  -0.235830-0.235812  2 I  py               127   0.235829-0.235813  2 I  px         
   136   0.131744 0.131734  2 I  d -1             138   0.131743-0.131735  2 I  d  1       
 
 Vector  142  Occ=0.000000D+00  E= 4.163108D-01
              MO Center=  1.1D-07, -1.8D-08, -2.5D-07, r^2= 2.3D+00
  Bfn.     Coefficient        Function     Bfn.     Coefficient        Function
  ---- -------------------  ------------     ---- -------------------  ------------
    33   0.000022-0.609265  1 I  d -1              35   0.609265-0.000022  1 I  d  1       
    69   0.000022-0.609265  2 I  d -1              71   0.609265-0.000022  2 I  d  1       
    20   0.000013-0.333502  1 I  py                19  -0.333502 0.000013  1 I  px         
    56  -0.000012 0.333501  2 I  py                55   0.333501-0.000012  2 I  px         
    64   0.000007-0.186307  2 I  d -1              66   0.186307-0.000007  2 I  d  1       
 
 Vector  143  Occ=0.000000D+00  E= 6.551124D-01
              MO Center= -1.9D-07, -2.2D-06,  1.2D-05, r^2= 2.2D+00
  Bfn.     Coefficient        Function     Bfn.     Coefficient        Function
  ---- -------------------  ------------     ---- -------------------  ------------
    42   1.691840 1.686662  2 I  s                  6  -1.691829-1.686651  1 I  s          
   114  -0.002410-1.572562  2 I  s                 78   0.002410 1.572548  1 I  s          
    41   0.950361 0.947452  2 I  s                  5  -0.950342-0.947433  1 I  s          
    57  -0.678399-0.676323  2 I  pz                21  -0.678389-0.676312  1 I  pz         
   113  -0.001354-0.883358  2 I  s                 77   0.001354 0.883338  1 I  s          
 

   alpha - beta orbital overlaps 
   ----------------------------- 


   alpha      1      2      3      4      5      6      7      8      9     10
    beta      1      2      3      4      5      5      7      8      9     10
 overlap   1.148  1.512  1.902  1.770  0.651  0.267  1.253  1.253  1.252  1.740


   alpha     11     12     13     14     15     16     17     18     19     20
    beta     11     12     13     14     15     16     17     18     16     17
 overlap   1.740  1.717  1.695  1.695  1.568  0.889  0.889  0.431  0.212  0.212


   alpha     21     22     23     24     25     26     27     28     29     30
    beta     18     22     23     24     25     26     27     28     29     30
 overlap   0.045  1.161  1.161  1.161  1.161  1.161  1.155  1.155  1.157  1.155


   alpha     31     32     33     34     35     36     37     38     39     40
    beta     31     27     53     18     52     31     37     38     39     40
 overlap   1.155  0.011  0.043  0.029  0.043  0.011  1.148  1.512  1.902  1.770


   alpha     41     42     43     44     45     46     47     48     49     50
    beta     41     41     43     44     45     46     47     48     49     50
 overlap   0.651  0.267  1.253  1.253  1.252  1.740  1.740  1.717  1.695  1.695


   alpha     51     52     53     54     55     56     57     58     59     60
    beta     51     52     53     54     52     53     54     58     59     60
 overlap   1.568  0.889  0.889  0.431  0.212  0.212  0.045  1.161  1.161  1.161


   alpha     61     62     63     64     65     66     67     68     69     70
    beta     61     62     63     64     65     66     67     63     17     54
 overlap   1.161  1.161  1.155  1.155  1.157  1.155  1.155  0.011  0.043  0.029


   alpha     71     72
    beta     16     67
 overlap   0.043  0.011

     --------------------------
     Expectation value of S2:  
     --------------------------
      <S2> =      0.0204 (Exact =     0.0000)
 
 
     Multipole analysis of the density
     ---------------------------------
 
     L   x y z        total         alpha         beta         nuclear
     -   - - -        -----         -----         ----         -------
     0   0 0 0      0.000000    -52.999998    -53.000002    106.000000
 
     1   1 0 0      0.000000      0.000000      0.000000      0.000000
     1   0 1 0      0.000000      0.000000      0.000000      0.000000
     1   0 0 1      0.000001     -0.000002      0.000003      0.000000
 
     2   2 0 0    -41.949298    -20.974645    -20.974653      0.000000
     2   1 1 0      0.000000      0.000000      0.000000      0.000000
     2   1 0 1      0.000002      0.000001      0.000001      0.000000
     2   0 2 0    -41.949298    -20.974645    -20.974653      0.000000
     2   0 1 1      0.000002      0.000001      0.000001      0.000000
     2   0 0 2    -36.049162   -364.337963   -364.337991    692.626793
 

 Parallel integral file used      16 records with       0 large values

  WARNING: CD fitting not compatible with spinorbit
  WARNING: disabling CD fitting
 
 
                            NWChem DFT Gradient Module
                            --------------------------
 
 

  charge          =   0.00
  wavefunction    = open shell


 Read molecular orbitals from ./i2_zora_so.movecs

  Using symmetry

 Read molecular orbitals from ./i2_zora_so.movecs



                         sodft ENERGY GRADIENTS

    atom               coordinates                        gradient
                 x          y          z           x          y          z
   1 I       0.000000   0.000000  -2.556211    0.000000   0.000000  -0.000416
   2 I       0.000000   0.000000   2.556211    0.000000   0.000000   0.000416
 
                 ----------------------------------------
                 |  Time  |  1-e(secs)   |  2-e(secs)   |
                 ----------------------------------------
                 |  CPU   |       0.01   |       2.96   |
                 ----------------------------------------
                 |  WALL  |       0.01   |       2.99   |
                 ----------------------------------------

  Step       Energy      Delta E   Gmax     Grms     Xrms     Xmax   Walltime
  ---- ---------------- -------- -------- -------- -------- -------- --------
@    5  -14341.07565938  2.0D-07  0.00042  0.00024  0.00016  0.00028    227.7
                                     ok       ok       ok       ok  


      ----------------------
      Optimization converged
      ----------------------


  Step       Energy      Delta E   Gmax     Grms     Xrms     Xmax   Walltime
  ---- ---------------- -------- -------- -------- -------- -------- --------
@    5  -14341.07565938  2.0D-07  0.00042  0.00024  0.00016  0.00028    227.7
                                     ok       ok       ok       ok  

 
 
                         Geometry "geometry" -> "geometry"
                         ---------------------------------
 
 Output coordinates in a.u. (scale by  1.000000000 to convert to a.u.)
 
  No.       Tag          Charge          X              Y              Z
 ---- ---------------- ---------- -------------- -------------- --------------
    1 I                   53.0000     0.00000000     0.00000000    -2.55621107
    2 I                   53.0000     0.00000000     0.00000000     2.55621107
 
      Atomic Mass 
      ----------- 
 
      I                126.900400
 

 Effective nuclear repulsion energy (a.u.)     549.4460208681

            Nuclear Dipole moment (a.u.) 
            ----------------------------
        X                 Y               Z
 ---------------- ---------------- ----------------
     0.0000000000     0.0000000000     0.0000000000
 
      Symmetry information
      --------------------
 
 Group name             D4h       
 Group number             28
 Group order              16
 No. of unique centers     1
 
      Symmetry unique atoms
 
     1
 
 ==============================================================================
                                internuclear distances
 ------------------------------------------------------------------------------
       center one      |      center two      | atomic units |       a.u.
 ------------------------------------------------------------------------------
    2 I                |   1 I                |     5.11242  |     5.11242
 ------------------------------------------------------------------------------
                         number of included internuclear distances:          1
 ==============================================================================




 Task  times  cpu:      209.8s     wall:      226.2s
 
 
                                NWChem Input Module
                                -------------------
 
 
 Summary of allocated global arrays
-----------------------------------
  No active global arrays



                         GA Statistics for process    0
                         ------------------------------

       create   destroy   get      put      acc     scatter   gather  read&inc
calls: 1.68e+04 1.68e+04 2.99e+05 1.56e+05 6.63e+04    6        0        0     
number of processes/call 1.28e+00 1.44e+00 1.02e+00 4.00e+00 0.00e+00
bytes total:             1.36e+09 6.00e+08 2.79e+08 5.09e+03 0.00e+00 0.00e+00
bytes remote:            5.82e+08 2.75e+08 8.95e+07 3.79e+03 0.00e+00 0.00e+00
Max memory consumed for GA by this process: 3307392 bytes
 
MA_summarize_allocated_blocks: starting scan ...
MA_summarize_allocated_blocks: scan completed: 0 heap blocks, 0 stack blocks
MA usage statistics:

	allocation statistics:
					      heap	     stack
					      ----	     -----
	current number of blocks	         0	         0
	maximum number of blocks	        25	        51
	current total bytes		         0	         0
	maximum total bytes		   4707704	  39083456
	maximum total K-bytes		      4708	     39084
	maximum total M-bytes		         5	        40



                                  ACKNOWLEDGEMENT
                                  ---------------

            Please use the following acknowledgement where appropriate 
            for results obtained with NWChem:

            High Performance Computational Chemistry Group, "NWChem, A
            Computational Chemistry Package for Parallel Computers, 
            Version 5.0" (2006), Pacific Northwest National Laboratory,
            Richland, Washington 99352-0999, USA.


                                     CITATION
                                     --------

            Please use the following citation when publishing results
            obtained with NWChem:

            E. Apra, T. L. Windus, T. P. Straatsma, E. J. Bylaska, W. de Jong,
            K. Kowalski, S. Hirata, M. Valiev, D. Wang, M. T. Hackler,
            Y. Zhao, R. J. Harrison, M. Dupuis, D. M. A. Smith, J. Nieplocha,
            V. Tipparaju, M. Krishnan, A. A. Auer, E. Brown, G. Cisneros,
            G. I. Fann, H. Fruchtl, J. Garza, K. Hirao, R. Kendall,
            J. A. Nichols, K. Tsemekhman, K. Wolinski, J. Anchell, D. Bernholdt,
            P. Borowski, T. Clark, D. Clerc, H. Dachsel, M. Deegan, K. Dyall,
            D. Elwood, E. Glendening, M. Gutowski, A. Hess, J. Jaffe,
            B. Johnson, J. Ju, R. Kobayashi, R. Kutteh, Z. Lin, R. Littlefield,
            X. Long, B. Meng, T. Nakajima, S. Niu, L. Pollack, M. Rosing,
            G. Sandrone, M. Stave, H. Taylor, G. Thomas, J. van Lenthe, A. Wong,
            and Z. Zhang,
            "NWChem, A Computational Chemistry Package for Parallel Computers, 
            Version 5.0" (2006),
                      Pacific Northwest National Laboratory,
                      Richland, Washington 99352-0999, USA.



 Total times  cpu:      209.8s     wall:      227.8s
