 argument  1 = tddft_h2o_uhf_mxvc20.nw



============================== echo of input deck ==============================
# $Id$
#
# This tests CIS, TDHF, TDDFT functionality at once
# by using a hybrid GGA functional for
# spin restricted reference with symmetry on.
# In particular we test the TDDFT Davidson restart capability.
# The reference results were obtained by selecting maxvecs large enough
# so that the restart capability is not invoked.

start tddft_h2o_dat

echo

title "TDDFT H2O B3LYP/6-31G** QA TEST"

geometry
O     0.00000000     0.00000000     0.12982363
H     0.75933475     0.00000000    -0.46621158
H    -0.75933475     0.00000000    -0.46621158
end

basis
O library 6-31G**
H library 6-31G**
end

dft
xc b3lyp
odft
end

tddft
cis
nroots 10
#print convergence
#maxvecs 20
end

task tddft energy

tddft
cis
algorithm 3
nroots 10
#print convergence
#maxvecs 20
end

task tddft energy

tddft
nroots 9
#print convergence
#maxvecs 36
end

set tddft:ltrials f
task tddft energy

tddft
algorithm 3
nroots 9
#print convergence
#maxvecs 36
end

task tddft energy
================================================================================


                                         
                                         


              Northwest Computational Chemistry Package (NWChem) 6.8
              ------------------------------------------------------


                    Environmental Molecular Sciences Laboratory
                       Pacific Northwest National Laboratory
                                Richland, WA 99352

                              Copyright (c) 1994-2017
                       Pacific Northwest National Laboratory
                            Battelle Memorial Institute

             NWChem is an open-source computational chemistry package
                        distributed under the terms of the
                      Educational Community License (ECL) 2.0
             A copy of the license is included with this distribution
                              in the LICENSE.TXT file

                                  ACKNOWLEDGMENT
                                  --------------

            This software and its documentation were developed at the
            EMSL at Pacific Northwest National Laboratory, a multiprogram
            national laboratory, operated for the U.S. Department of Energy
            by Battelle under Contract Number DE-AC05-76RL01830. Support
            for this work was provided by the Department of Energy Office
            of Biological and Environmental Research, Office of Basic
            Energy Sciences, and the Office of Advanced Scientific Computing.


           Job information
           ---------------

    hostname        = kohn
    program         = ../../../bin/LINUX64/nwchem
    date            = Wed Oct  4 21:07:26 2017

    compiled        = Wed_Oct_04_17:34:51_2017
    source          = /home/niri/nwchem/nwchem-6.8
    nwchem branch   = 6.8
    nwchem revision = 29444
    ga revision     = N/A
    input           = tddft_h2o_uhf_mxvc20.nw
    prefix          = tddft_h2o_dat.
    data base       = ./tddft_h2o_dat.db
    status          = startup
    nproc           =        4
    time left       =     -1s



           Memory information
           ------------------

    heap     =   13107200 doubles =    100.0 Mbytes
    stack    =   13107197 doubles =    100.0 Mbytes
    global   =   26214400 doubles =    200.0 Mbytes (distinct from heap & stack)
    total    =   52428797 doubles =    400.0 Mbytes
    verify   = yes
    hardfail = no 


           Directory information
           ---------------------

  0 permanent = .
  0 scratch   = .




                                NWChem Input Module
                                -------------------


                          TDDFT H2O B3LYP/6-31G** QA TEST
                          -------------------------------

 Scaling coordinates for geometry "geometry" by  1.889725989
 (inverse scale =  0.529177249)

 C2V symmetry detected

          ------
          auto-z
          ------


                             Geometry "geometry" -> ""
                             -------------------------

 Output coordinates in angstroms (scale by  1.889725989 to convert to a.u.)

  No.       Tag          Charge          X              Y              Z
 ---- ---------------- ---------- -------------- -------------- --------------
    1 O                    8.0000     0.00000000     0.00000000     0.11920704
    2 H                    1.0000     0.75933475     0.00000000    -0.47682817
    3 H                    1.0000    -0.75933475     0.00000000    -0.47682817

      Atomic Mass 
      ----------- 

      O                 15.994910
      H                  1.007825


 Effective nuclear repulsion energy (a.u.)       9.1194413826

            Nuclear Dipole moment (a.u.) 
            ----------------------------
        X                 Y               Z
 ---------------- ---------------- ----------------
     0.0000000000     0.0000000000     0.0000000000

      Symmetry information
      --------------------

 Group name             C2v       
 Group number             16
 Group order               4
 No. of unique centers     2

      Symmetry unique atoms

     1    2



                                Z-matrix (autoz)
                                -------- 

 Units are Angstrom for bonds and degrees for angles

      Type          Name      I     J     K     L     M      Value
      ----------- --------  ----- ----- ----- ----- ----- ----------
    1 Stretch                  1     2                       0.96532
    2 Stretch                  1     3                       0.96532
    3 Bend                     2     1     3               103.74015


            XYZ format geometry
            -------------------
     3
 geometry
 O                     0.00000000     0.00000000     0.11920704
 H                     0.75933475     0.00000000    -0.47682817
 H                    -0.75933475     0.00000000    -0.47682817

 ==============================================================================
                                internuclear distances
 ------------------------------------------------------------------------------
       center one      |      center two      | atomic units |  angstroms
 ------------------------------------------------------------------------------
    2 H                |   1 O                |     1.82419  |     0.96532
    3 H                |   1 O                |     1.82419  |     0.96532
 ------------------------------------------------------------------------------
                         number of included internuclear distances:          2
 ==============================================================================



 ==============================================================================
                                 internuclear angles
 ------------------------------------------------------------------------------
        center 1       |       center 2       |       center 3       |  degrees
 ------------------------------------------------------------------------------
    2 H                |   1 O                |   3 H                |   103.74
 ------------------------------------------------------------------------------
                            number of included internuclear angles:          1
 ==============================================================================



  library name resolved from: environment
  library file name is: </home/niri/nwchem/nwchem-6.8/src/basis/libraries/>
  
                      Basis "ao basis" -> "" (cartesian)
                      -----
  O (Oxygen)
  ----------
            Exponent  Coefficients 
       -------------- ---------------------------------------------------------
  1 S  5.48467170E+03  0.001831
  1 S  8.25234950E+02  0.013950
  1 S  1.88046960E+02  0.068445
  1 S  5.29645000E+01  0.232714
  1 S  1.68975700E+01  0.470193
  1 S  5.79963530E+00  0.358521

  2 S  1.55396160E+01 -0.110778
  2 S  3.59993360E+00 -0.148026
  2 S  1.01376180E+00  1.130767

  3 P  1.55396160E+01  0.070874
  3 P  3.59993360E+00  0.339753
  3 P  1.01376180E+00  0.727159

  4 S  2.70005800E-01  1.000000

  5 P  2.70005800E-01  1.000000

  6 D  8.00000000E-01  1.000000

  H (Hydrogen)
  ------------
            Exponent  Coefficients 
       -------------- ---------------------------------------------------------
  1 S  1.87311370E+01  0.033495
  1 S  2.82539370E+00  0.234727
  1 S  6.40121700E-01  0.813757

  2 S  1.61277800E-01  1.000000

  3 P  1.10000000E+00  1.000000



 Summary of "ao basis" -> "" (cartesian)
 ------------------------------------------------------------------------------
       Tag                 Description            Shells   Functions and Types
 ---------------- ------------------------------  ------  ---------------------
 O                          6-31G**                  6       15   3s2p1d
 H                          6-31G**                  3        5   2s1p



                                 NWChem DFT Module
                                 -----------------


                          TDDFT H2O B3LYP/6-31G** QA TEST




 Summary of "ao basis" -> "ao basis" (cartesian)
 ------------------------------------------------------------------------------
       Tag                 Description            Shells   Functions and Types
 ---------------- ------------------------------  ------  ---------------------
 O                          6-31G**                  6       15   3s2p1d
 H                          6-31G**                  3        5   2s1p


      Symmetry analysis of basis
      --------------------------

        a1         12
        a2          2
        b1          7
        b2          4

  Caching 1-el integrals 

            General Information
            -------------------
          SCF calculation type: DFT
          Wavefunction type:  spin polarized.
          No. of atoms     :     3
          No. of electrons :    10
           Alpha electrons :     5
            Beta electrons :     5
          Charge           :     0
          Spin multiplicity:     1
          Use of symmetry is: off; symmetry adaption is: on 
          Maximum number of iterations:  30
          AO basis - number of functions:    25
                     number of shells:    12
          Convergence on energy requested:  1.00D-06
          Convergence on density requested:  1.00D-05
          Convergence on gradient requested:  5.00D-04

              XC Information
              --------------
                         B3LYP Method XC Potential
                     Hartree-Fock (Exact) Exchange  0.200          
                        Slater Exchange Functional  0.800 local    
                    Becke 1988 Exchange Functional  0.720 non-local
              Lee-Yang-Parr Correlation Functional  0.810          
                  VWN I RPA Correlation Functional  0.190 local    

             Grid Information
             ----------------
          Grid used for XC integration:  medium    
          Radial quadrature: Mura-Knowles        
          Angular quadrature: Lebedev. 
          Tag              B.-S. Rad. Rad. Pts. Rad. Cut. Ang. Pts.
          ---              ---------- --------- --------- ---------
          O                   0.60       49           5.0       434
          H                   0.35       45           6.0       434
          Grid pruning is: on 
          Number of quadrature shells:   139
          Spatial weights used:  Erf1

          Convergence Information
          -----------------------
          Convergence aids based upon iterative change in 
          total energy or number of iterations. 
          Levelshifting, if invoked, occurs when the 
          HOMO/LUMO gap drops below (HL_TOL):  1.00D-02
          DIIS, if invoked, will attempt to extrapolate 
          using up to (NFOCK): 10 stored Fock matrices.

                    Damping( 0%)  Levelshifting(0.5)       DIIS
                  --------------- ------------------- ---------------
          dE  on:    start            ASAP                start   
          dE off:    2 iters         30 iters            30 iters 


      Screening Tolerance Information
      -------------------------------
          Density screening/tol_rho:  1.00D-10
          AO Gaussian exp screening on grid/accAOfunc:  14
          CD Gaussian exp screening on grid/accCDfunc:  20
          XC Gaussian exp screening on grid/accXCfunc:  20
          Schwarz screening/accCoul:  1.00D-08


      Superposition of Atomic Density Guess
      -------------------------------------

 Sum of atomic energies:         -75.75081731

      Non-variational initial energy
      ------------------------------

 Total energy =     -75.904518
 1-e energy   =    -121.613649
 2-e energy   =      36.589689
 HOMO         =      -0.469134
 LUMO         =       0.112377


   Symmetry analysis of molecular orbitals - initial alpha
   -------------------------------------------------------

  Numbering of irreducible representations: 

     1 a1          2 a2          3 b1          4 b2      

  Orbital symmetries:

     1 a1          2 a1          3 b1          4 a1          5 b2      
     6 a1          7 b1          8 b1          9 a1         10 a1      
    11 b2         12 b1         13 a1         14 a1         15 a2      


   Symmetry analysis of molecular orbitals - initial beta
   ------------------------------------------------------

  Numbering of irreducible representations: 

     1 a1          2 a2          3 b1          4 b2      

  Orbital symmetries:

     1 a1          2 a1          3 b1          4 a1          5 b2      
     6 a1          7 b1          8 b1          9 a1         10 a1      
    11 b2         12 b1         13 a1         14 a1         15 a2      

   Time after variat. SCF:      0.1
   Time prior to 1st pass:      0.1

 #quartets = 3.081D+03 #integrals = 2.937D+04 #direct =  0.0% #cached =100.0%


 Integral file          = ./tddft_h2o_dat.aoints.0
 Record size in doubles =  65536        No. of integs per rec  =  43688
 Max. records in memory =      2        Max. records in file   = 143620
 No. of bits per label  =      8        No. of bits per value  =     64


File balance: exchanges=     0  moved=     0  time=   0.0


 Grid_pts file          = ./tddft_h2o_dat.gridpts.0
 Record size in doubles =  12289        No. of grid_pts per rec  =   3070
 Max. records in memory =      7        Max. recs in file   =    765916


           Memory utilization after 1st SCF pass: 
           Heap Space remaining (MW):       12.89            12888368
          Stack Space remaining (MW):       13.11            13106844

   convergence    iter        energy       DeltaE   RMS-Dens  Diis-err    time
 ---------------- ----- ----------------- --------- --------- ---------  ------
 d= 0,ls=0.0,diis     1    -76.3831021006 -8.55D+01  1.50D-02  9.41D-02     0.2
                                                     1.50D-02  9.41D-02
 d= 0,ls=0.0,diis     2    -76.3778069932  5.30D-03  7.49D-03  1.18D-01     0.3
                                                     7.49D-03  1.18D-01
 d= 0,ls=0.0,diis     3    -76.4187589582 -4.10D-02  9.56D-04  2.80D-03     0.3
                                                     9.56D-04  2.80D-03
 d= 0,ls=0.0,diis     4    -76.4197294106 -9.70D-04  8.93D-05  2.19D-05     0.4
                                                     8.93D-05  2.19D-05
 d= 0,ls=0.0,diis     5    -76.4197379179 -8.51D-06  4.06D-06  1.93D-08     0.4
                                                     4.06D-06  1.93D-08
 d= 0,ls=0.0,diis     6    -76.4197379265 -8.59D-09  6.85D-07  3.05D-10     0.5
                                                     6.85D-07  3.05D-10


         Total DFT energy =      -76.419737926504
      One electron energy =     -123.023412158794
           Coulomb energy =       46.835755765917
    Exchange-Corr. energy =       -9.351522916178
 Nuclear repulsion energy =        9.119441382552

 Numeric. integr. density =       10.000001105827

     Total iterative time =      0.4s



                  Occupations of the irreducible representations
                  ----------------------------------------------

                     irrep           alpha         beta
                     --------     --------     --------
                     a1                3.0          3.0
                     a2                0.0          0.0
                     b1                1.0          1.0
                     b2                1.0          1.0


                    DFT Final Alpha Molecular Orbital Analysis
                    ------------------------------------------

 Vector    1  Occ=1.000000D+00  E=-1.913801D+01  Symmetry=a1
              MO Center= -1.3D-14,  3.0D-16,  1.2D-01, r^2= 1.5D-02
   Bfn.  Coefficient  Atom+Function         Bfn.  Coefficient  Atom+Function  
  ----- ------------  ---------------      ----- ------------  ---------------
     1      0.992881  1 O  s                  2      0.026225  1 O  s          

 Vector    2  Occ=1.000000D+00  E=-9.973144D-01  Symmetry=a1
              MO Center= -2.3D-12, -3.4D-13, -8.7D-02, r^2= 5.0D-01
   Bfn.  Coefficient  Atom+Function         Bfn.  Coefficient  Atom+Function  
  ----- ------------  ---------------      ----- ------------  ---------------
     2      0.467607  1 O  s                  6      0.422149  1 O  s          
     1     -0.210485  1 O  s                 16      0.151985  2 H  s          
    21      0.151985  3 H  s                  5     -0.119188  1 O  pz         
     9     -0.041120  1 O  pz         

 Vector    3  Occ=1.000000D+00  E=-5.149842D-01  Symmetry=b1
              MO Center=  2.3D-12,  2.7D-25, -1.1D-01, r^2= 7.9D-01
   Bfn.  Coefficient  Atom+Function         Bfn.  Coefficient  Atom+Function  
  ----- ------------  ---------------      ----- ------------  ---------------
     3      0.513997  1 O  px                 7      0.247229  1 O  px         
    16      0.244124  2 H  s                 21     -0.244124  3 H  s          
    17      0.157240  2 H  s                 22     -0.157240  3 H  s          
    12     -0.049950  1 O  dxz        

 Vector    4  Occ=1.000000D+00  E=-3.710239D-01  Symmetry=a1
              MO Center=  8.0D-13,  2.4D-14,  1.9D-01, r^2= 7.0D-01
   Bfn.  Coefficient  Atom+Function         Bfn.  Coefficient  Atom+Function  
  ----- ------------  ---------------      ----- ------------  ---------------
     5      0.552652  1 O  pz                 6      0.416361  1 O  s          
     9      0.364042  1 O  pz                 2      0.174171  1 O  s          
    16     -0.144230  2 H  s                 21     -0.144230  3 H  s          
    17     -0.116335  2 H  s                 22     -0.116335  3 H  s          
     1     -0.087630  1 O  s                 15     -0.046206  1 O  dzz        

 Vector    5  Occ=1.000000D+00  E=-2.919627D-01  Symmetry=b2
              MO Center= -1.4D-13,  2.9D-13,  9.4D-02, r^2= 5.9D-01
   Bfn.  Coefficient  Atom+Function         Bfn.  Coefficient  Atom+Function  
  ----- ------------  ---------------      ----- ------------  ---------------
     4      0.643967  1 O  py                 8      0.494567  1 O  py         
    14     -0.050376  1 O  dyz        

 Vector    6  Occ=0.000000D+00  E= 6.534608D-02  Symmetry=a1
              MO Center=  1.6D-16, -1.1D-13, -6.2D-01, r^2= 2.4D+00
   Bfn.  Coefficient  Atom+Function         Bfn.  Coefficient  Atom+Function  
  ----- ------------  ---------------      ----- ------------  ---------------
     6      1.261194  1 O  s                 17     -0.969306  2 H  s          
    22     -0.969306  3 H  s                  9     -0.469997  1 O  pz         
     5     -0.275960  1 O  pz                 2      0.117652  1 O  s          
     1     -0.101134  1 O  s                 16     -0.090305  2 H  s          
    21     -0.090305  3 H  s                 13     -0.057597  1 O  dyy        

 Vector    7  Occ=0.000000D+00  E= 1.512260D-01  Symmetry=b1
              MO Center=  4.9D-12, -4.4D-15, -5.7D-01, r^2= 2.5D+00
   Bfn.  Coefficient  Atom+Function         Bfn.  Coefficient  Atom+Function  
  ----- ------------  ---------------      ----- ------------  ---------------
    17      1.286510  2 H  s                 22     -1.286510  3 H  s          
     7     -0.758485  1 O  px                 3     -0.410623  1 O  px         
    16      0.103599  2 H  s                 21     -0.103599  3 H  s          
    12      0.031835  1 O  dxz        

 Vector    8  Occ=0.000000D+00  E= 7.568468D-01  Symmetry=b1
              MO Center=  5.6D-11, -9.8D-15, -2.6D-01, r^2= 1.7D+00
   Bfn.  Coefficient  Atom+Function         Bfn.  Coefficient  Atom+Function  
  ----- ------------  ---------------      ----- ------------  ---------------
    17     -0.795376  2 H  s                 22      0.795376  3 H  s          
    16      0.770846  2 H  s                 21     -0.770846  3 H  s          
    12     -0.460025  1 O  dxz                3     -0.202259  1 O  px         
     7     -0.166493  1 O  px                20     -0.099565  2 H  pz         
    25      0.099565  3 H  pz                18      0.049540  2 H  px         

 Vector    9  Occ=0.000000D+00  E= 8.055100D-01  Symmetry=a1
              MO Center= -5.8D-11,  6.7D-14, -1.7D-01, r^2= 1.5D+00
   Bfn.  Coefficient  Atom+Function         Bfn.  Coefficient  Atom+Function  
  ----- ------------  ---------------      ----- ------------  ---------------
     5      0.647808  1 O  pz                17     -0.601436  2 H  s          
    22     -0.601436  3 H  s                 16      0.566893  2 H  s          
    21      0.566893  3 H  s                  9     -0.558050  1 O  pz         
    10      0.262150  1 O  dxx                6      0.238810  1 O  s          
    18      0.164396  2 H  px                23     -0.164396  3 H  px         

 Vector   10  Occ=0.000000D+00  E= 8.913501D-01  Symmetry=b2
              MO Center=  1.3D-13, -4.8D-12,  1.1D-01, r^2= 1.1D+00
   Bfn.  Coefficient  Atom+Function         Bfn.  Coefficient  Atom+Function  
  ----- ------------  ---------------      ----- ------------  ---------------
     8     -1.037304  1 O  py                 4      0.959670  1 O  py         
    14      0.027784  1 O  dyz        

 Vector   11  Occ=0.000000D+00  E= 8.935284D-01  Symmetry=a1
              MO Center=  2.7D-12,  4.3D-12,  2.6D-01, r^2= 1.5D+00
   Bfn.  Coefficient  Atom+Function         Bfn.  Coefficient  Atom+Function  
  ----- ------------  ---------------      ----- ------------  ---------------
     6      1.350168  1 O  s                  2     -0.816729  1 O  s          
     9      0.807031  1 O  pz                 5     -0.529853  1 O  pz         
    16      0.502430  2 H  s                 21      0.502430  3 H  s          
    17     -0.381526  2 H  s                 22     -0.381526  3 H  s          
    13     -0.323630  1 O  dyy               15     -0.272322  1 O  dzz        

 Vector   12  Occ=0.000000D+00  E= 1.015566D+00  Symmetry=b1
              MO Center=  3.9D-14,  6.3D-27,  1.2D-01, r^2= 1.6D+00
   Bfn.  Coefficient  Atom+Function         Bfn.  Coefficient  Atom+Function  
  ----- ------------  ---------------      ----- ------------  ---------------
     7      1.795569  1 O  px                17     -0.963662  2 H  s          
    22      0.963662  3 H  s                  3     -0.864461  1 O  px         
    12     -0.157552  1 O  dxz               16     -0.152362  2 H  s          
    21      0.152362  3 H  s                 18      0.144803  2 H  px         
    23      0.144803  3 H  px                20     -0.090197  2 H  pz         

 Vector   13  Occ=0.000000D+00  E= 1.175374D+00  Symmetry=a1
              MO Center= -4.6D-12,  4.7D-13, -3.7D-01, r^2= 1.4D+00
   Bfn.  Coefficient  Atom+Function         Bfn.  Coefficient  Atom+Function  
  ----- ------------  ---------------      ----- ------------  ---------------
     6      3.527322  1 O  s                  2     -1.425462  1 O  s          
     9     -0.990461  1 O  pz                17     -0.770199  2 H  s          
    22     -0.770199  3 H  s                 10     -0.625764  1 O  dxx        
     5      0.351436  1 O  pz                15     -0.333460  1 O  dzz        
    16     -0.326676  2 H  s                 21     -0.326676  3 H  s          

 Vector   14  Occ=0.000000D+00  E= 1.529509D+00  Symmetry=a2
              MO Center= -1.1D-14,  1.7D-15, -1.3D-01, r^2= 7.7D-01
   Bfn.  Coefficient  Atom+Function         Bfn.  Coefficient  Atom+Function  
  ----- ------------  ---------------      ----- ------------  ---------------
    11      1.177966  1 O  dxy               19      0.350698  2 H  py         
    24     -0.350698  3 H  py         

 Vector   15  Occ=0.000000D+00  E= 1.537657D+00  Symmetry=a1
              MO Center=  1.2D-13,  4.8D-14,  2.5D-02, r^2= 8.4D-01
   Bfn.  Coefficient  Atom+Function         Bfn.  Coefficient  Atom+Function  
  ----- ------------  ---------------      ----- ------------  ---------------
     6      0.901910  1 O  s                 15     -0.788597  1 O  dzz        
     9     -0.519667  1 O  pz                 2     -0.323895  1 O  s          
    10      0.255740  1 O  dxx               20      0.248205  2 H  pz         
    25      0.248205  3 H  pz                13      0.245550  1 O  dyy        
    16     -0.237555  2 H  s                 21     -0.237555  3 H  s          

 Vector   16  Occ=0.000000D+00  E= 1.643631D+00  Symmetry=b2
              MO Center=  2.5D-13, -1.5D-14,  2.1D-02, r^2= 7.6D-01
   Bfn.  Coefficient  Atom+Function         Bfn.  Coefficient  Atom+Function  
  ----- ------------  ---------------      ----- ------------  ---------------
    14      1.357157  1 O  dyz               19     -0.300712  2 H  py         
    24     -0.300712  3 H  py                 8      0.205010  1 O  py         

 Vector   17  Occ=0.000000D+00  E= 2.238693D+00  Symmetry=a1
              MO Center=  6.5D-13,  4.5D-14, -8.8D-02, r^2= 8.8D-01
   Bfn.  Coefficient  Atom+Function         Bfn.  Coefficient  Atom+Function  
  ----- ------------  ---------------      ----- ------------  ---------------
     6      1.366014  1 O  s                 13     -1.066546  1 O  dyy        
     9     -0.636988  1 O  pz                16     -0.624252  2 H  s          
    21     -0.624252  3 H  s                  2     -0.567646  1 O  s          
    10      0.521396  1 O  dxx                5      0.208788  1 O  pz         
    18     -0.161324  2 H  px                23      0.161324  3 H  px         

 Vector   18  Occ=0.000000D+00  E= 2.268206D+00  Symmetry=b1
              MO Center= -1.3D-12, -9.5D-26, -4.2D-01, r^2= 1.0D+00
   Bfn.  Coefficient  Atom+Function         Bfn.  Coefficient  Atom+Function  
  ----- ------------  ---------------      ----- ------------  ---------------
    20      0.582475  2 H  pz                25     -0.582475  3 H  pz         
     7     -0.478615  1 O  px                18      0.479651  2 H  px         
    23      0.479651  3 H  px                12     -0.252035  1 O  dxz        
    16      0.103943  2 H  s                 21     -0.103943  3 H  s          
    17      0.103074  2 H  s                 22     -0.103074  3 H  s          

 Vector   19  Occ=0.000000D+00  E= 2.450067D+00  Symmetry=b1
              MO Center= -8.2D-13,  5.0D-17, -1.7D-01, r^2= 9.8D-01
   Bfn.  Coefficient  Atom+Function         Bfn.  Coefficient  Atom+Function  
  ----- ------------  ---------------      ----- ------------  ---------------
    12      1.381886  1 O  dxz               16      0.538420  2 H  s          
    21     -0.538420  3 H  s                  7     -0.482584  1 O  px         
     3      0.340708  1 O  px                18      0.332142  2 H  px         
    23      0.332142  3 H  px                20     -0.232925  2 H  pz         
    25      0.232925  3 H  pz                17     -0.202034  2 H  s          

 Vector   20  Occ=0.000000D+00  E= 2.640993D+00  Symmetry=a2
              MO Center=  2.2D-11,  1.2D-14, -2.1D-01, r^2= 9.8D-01
   Bfn.  Coefficient  Atom+Function         Bfn.  Coefficient  Atom+Function  
  ----- ------------  ---------------      ----- ------------  ---------------
    11      1.525156  1 O  dxy               19     -0.709019  2 H  py         
    24      0.709019  3 H  py         

 Vector   21  Occ=0.000000D+00  E= 2.666765D+00  Symmetry=b2
              MO Center= -2.3D-11,  7.1D-15, -3.0D-01, r^2= 1.0D+00
   Bfn.  Coefficient  Atom+Function         Bfn.  Coefficient  Atom+Function  
  ----- ------------  ---------------      ----- ------------  ---------------
    14      1.275832  1 O  dyz               19      0.762923  2 H  py         
    24      0.762923  3 H  py                 8     -0.417600  1 O  py         

 Vector   22  Occ=0.000000D+00  E= 3.027840D+00  Symmetry=a1
              MO Center=  1.1D-13,  1.2D-14, -2.2D-01, r^2= 1.0D+00
   Bfn.  Coefficient  Atom+Function         Bfn.  Coefficient  Atom+Function  
  ----- ------------  ---------------      ----- ------------  ---------------
    15      0.948120  1 O  dzz               10     -0.749899  1 O  dxx        
    20      0.676568  2 H  pz                25      0.676568  3 H  pz         
     9     -0.461343  1 O  pz                18      0.448041  2 H  px         
    23     -0.448041  3 H  px                 2     -0.181815  1 O  s          
     6      0.131856  1 O  s                 16     -0.090645  2 H  s          

 Vector   23  Occ=0.000000D+00  E= 3.307190D+00  Symmetry=a1
              MO Center=  1.5D-11, -1.5D-14, -3.5D-01, r^2= 1.1D+00
   Bfn.  Coefficient  Atom+Function         Bfn.  Coefficient  Atom+Function  
  ----- ------------  ---------------      ----- ------------  ---------------
     6      2.846460  1 O  s                 13     -1.191333  1 O  dyy        
     9     -0.859565  1 O  pz                16     -0.780979  2 H  s          
    21     -0.780979  3 H  s                 18      0.765113  2 H  px         
    23     -0.765113  3 H  px                17     -0.575369  2 H  s          
    22     -0.575369  3 H  s                 20     -0.458301  2 H  pz         

 Vector   24  Occ=0.000000D+00  E= 3.531537D+00  Symmetry=b1
              MO Center= -1.5D-11,  5.8D-16, -9.9D-02, r^2= 1.2D+00
   Bfn.  Coefficient  Atom+Function         Bfn.  Coefficient  Atom+Function  
  ----- ------------  ---------------      ----- ------------  ---------------
    12      2.569375  1 O  dxz                7     -1.342129  1 O  px         
    16      1.186403  2 H  s                 21     -1.186403  3 H  s          
    18     -0.806744  2 H  px                23     -0.806744  3 H  px         
    20      0.699999  2 H  pz                25     -0.699999  3 H  pz         
     3     -0.692379  1 O  px                17      0.537130  2 H  s          

 Vector   25  Occ=0.000000D+00  E= 3.692901D+00  Symmetry=a1
              MO Center= -3.3D-13, -1.5D-14,  2.3D-01, r^2= 9.1D-01
   Bfn.  Coefficient  Atom+Function         Bfn.  Coefficient  Atom+Function  
  ----- ------------  ---------------      ----- ------------  ---------------
     6      2.599375  1 O  s                 10     -1.938344  1 O  dxx        
    15     -1.577550  1 O  dzz               13     -1.139792  1 O  dyy        
    16      0.658835  2 H  s                 21      0.658835  3 H  s          
    18     -0.486130  2 H  px                23      0.486130  3 H  px         
     5      0.458461  1 O  pz                20      0.429484  2 H  pz         


                     DFT Final Beta Molecular Orbital Analysis
                     -----------------------------------------

 Vector    1  Occ=1.000000D+00  E=-1.913801D+01  Symmetry=a1
              MO Center= -1.3D-14,  2.9D-16,  1.2D-01, r^2= 1.5D-02
   Bfn.  Coefficient  Atom+Function         Bfn.  Coefficient  Atom+Function  
  ----- ------------  ---------------      ----- ------------  ---------------
     1      0.992881  1 O  s                  2      0.026225  1 O  s          

 Vector    2  Occ=1.000000D+00  E=-9.973144D-01  Symmetry=a1
              MO Center= -2.6D-12, -1.8D-13, -8.7D-02, r^2= 5.0D-01
   Bfn.  Coefficient  Atom+Function         Bfn.  Coefficient  Atom+Function  
  ----- ------------  ---------------      ----- ------------  ---------------
     2      0.467607  1 O  s                  6      0.422149  1 O  s          
     1     -0.210485  1 O  s                 16      0.151985  2 H  s          
    21      0.151985  3 H  s                  5     -0.119188  1 O  pz         
     9     -0.041120  1 O  pz         

 Vector    3  Occ=1.000000D+00  E=-5.149842D-01  Symmetry=b1
              MO Center=  2.8D-12, -5.3D-14, -1.1D-01, r^2= 7.9D-01
   Bfn.  Coefficient  Atom+Function         Bfn.  Coefficient  Atom+Function  
  ----- ------------  ---------------      ----- ------------  ---------------
     3      0.513997  1 O  px                 7      0.247229  1 O  px         
    16      0.244124  2 H  s                 21     -0.244124  3 H  s          
    17      0.157240  2 H  s                 22     -0.157240  3 H  s          
    12     -0.049950  1 O  dxz        

 Vector    4  Occ=1.000000D+00  E=-3.710239D-01  Symmetry=a1
              MO Center= -2.7D-12, -7.8D-13,  1.9D-01, r^2= 7.0D-01
   Bfn.  Coefficient  Atom+Function         Bfn.  Coefficient  Atom+Function  
  ----- ------------  ---------------      ----- ------------  ---------------
     5      0.552652  1 O  pz                 6      0.416361  1 O  s          
     9      0.364042  1 O  pz                 2      0.174171  1 O  s          
    16     -0.144230  2 H  s                 21     -0.144230  3 H  s          
    17     -0.116335  2 H  s                 22     -0.116335  3 H  s          
     1     -0.087630  1 O  s                 15     -0.046206  1 O  dzz        

 Vector    5  Occ=1.000000D+00  E=-2.919627D-01  Symmetry=b2
              MO Center= -1.3D-13,  7.5D-13,  9.4D-02, r^2= 5.9D-01
   Bfn.  Coefficient  Atom+Function         Bfn.  Coefficient  Atom+Function  
  ----- ------------  ---------------      ----- ------------  ---------------
     4      0.643967  1 O  py                 8      0.494567  1 O  py         
    14     -0.050376  1 O  dyz        

 Vector    6  Occ=0.000000D+00  E= 6.534608D-02  Symmetry=a1
              MO Center=  6.6D-11,  2.0D-13, -6.2D-01, r^2= 2.4D+00
   Bfn.  Coefficient  Atom+Function         Bfn.  Coefficient  Atom+Function  
  ----- ------------  ---------------      ----- ------------  ---------------
     6      1.261194  1 O  s                 17     -0.969306  2 H  s          
    22     -0.969306  3 H  s                  9     -0.469997  1 O  pz         
     5     -0.275960  1 O  pz                 2      0.117652  1 O  s          
     1     -0.101134  1 O  s                 16     -0.090305  2 H  s          
    21     -0.090305  3 H  s                 13     -0.057597  1 O  dyy        

 Vector    7  Occ=0.000000D+00  E= 1.512260D-01  Symmetry=b1
              MO Center= -6.3D-11,  2.9D-24, -5.7D-01, r^2= 2.5D+00
   Bfn.  Coefficient  Atom+Function         Bfn.  Coefficient  Atom+Function  
  ----- ------------  ---------------      ----- ------------  ---------------
    17      1.286510  2 H  s                 22     -1.286510  3 H  s          
     7     -0.758485  1 O  px                 3     -0.410623  1 O  px         
    16      0.103599  2 H  s                 21     -0.103599  3 H  s          
    12      0.031835  1 O  dxz        

 Vector    8  Occ=0.000000D+00  E= 7.568468D-01  Symmetry=b1
              MO Center=  2.8D-11, -2.0D-14, -2.6D-01, r^2= 1.7D+00
   Bfn.  Coefficient  Atom+Function         Bfn.  Coefficient  Atom+Function  
  ----- ------------  ---------------      ----- ------------  ---------------
    17     -0.795376  2 H  s                 22      0.795376  3 H  s          
    16      0.770846  2 H  s                 21     -0.770846  3 H  s          
    12     -0.460025  1 O  dxz                3     -0.202259  1 O  px         
     7     -0.166493  1 O  px                20     -0.099565  2 H  pz         
    25      0.099565  3 H  pz                18      0.049540  2 H  px         

 Vector    9  Occ=0.000000D+00  E= 8.055100D-01  Symmetry=a1
              MO Center= -3.1D-11, -7.9D-14, -1.7D-01, r^2= 1.5D+00
   Bfn.  Coefficient  Atom+Function         Bfn.  Coefficient  Atom+Function  
  ----- ------------  ---------------      ----- ------------  ---------------
     5      0.647808  1 O  pz                17     -0.601436  2 H  s          
    22     -0.601436  3 H  s                 16      0.566893  2 H  s          
    21      0.566893  3 H  s                  9     -0.558050  1 O  pz         
    10      0.262150  1 O  dxx                6      0.238810  1 O  s          
    18      0.164396  2 H  px                23     -0.164396  3 H  px         

 Vector   10  Occ=0.000000D+00  E= 8.913501D-01  Symmetry=b2
              MO Center= -9.5D-15, -2.1D-11,  1.1D-01, r^2= 1.1D+00
   Bfn.  Coefficient  Atom+Function         Bfn.  Coefficient  Atom+Function  
  ----- ------------  ---------------      ----- ------------  ---------------
     8     -1.037304  1 O  py                 4      0.959670  1 O  py         
    14      0.027784  1 O  dyz        

 Vector   11  Occ=0.000000D+00  E= 8.935284D-01  Symmetry=a1
              MO Center= -6.1D-12,  2.1D-11,  2.6D-01, r^2= 1.5D+00
   Bfn.  Coefficient  Atom+Function         Bfn.  Coefficient  Atom+Function  
  ----- ------------  ---------------      ----- ------------  ---------------
     6      1.350168  1 O  s                  2     -0.816729  1 O  s          
     9      0.807031  1 O  pz                 5     -0.529853  1 O  pz         
    16      0.502430  2 H  s                 21      0.502430  3 H  s          
    17     -0.381526  2 H  s                 22     -0.381526  3 H  s          
    13     -0.323630  1 O  dyy               15     -0.272322  1 O  dzz        

 Vector   12  Occ=0.000000D+00  E= 1.015566D+00  Symmetry=b1
              MO Center=  9.4D-12,  6.6D-24,  1.2D-01, r^2= 1.6D+00
   Bfn.  Coefficient  Atom+Function         Bfn.  Coefficient  Atom+Function  
  ----- ------------  ---------------      ----- ------------  ---------------
     7      1.795569  1 O  px                17     -0.963662  2 H  s          
    22      0.963662  3 H  s                  3     -0.864461  1 O  px         
    12     -0.157552  1 O  dxz               16     -0.152362  2 H  s          
    21      0.152362  3 H  s                 18      0.144803  2 H  px         
    23      0.144803  3 H  px                20     -0.090197  2 H  pz         

 Vector   13  Occ=0.000000D+00  E= 1.175374D+00  Symmetry=a1
              MO Center= -1.2D-12,  3.2D-13, -3.7D-01, r^2= 1.4D+00
   Bfn.  Coefficient  Atom+Function         Bfn.  Coefficient  Atom+Function  
  ----- ------------  ---------------      ----- ------------  ---------------
     6      3.527322  1 O  s                  2     -1.425462  1 O  s          
     9     -0.990461  1 O  pz                17     -0.770199  2 H  s          
    22     -0.770199  3 H  s                 10     -0.625764  1 O  dxx        
     5      0.351436  1 O  pz                15     -0.333460  1 O  dzz        
    16     -0.326676  2 H  s                 21     -0.326676  3 H  s          

 Vector   14  Occ=0.000000D+00  E= 1.529509D+00  Symmetry=a2
              MO Center=  1.1D-13,  5.5D-14, -1.3D-01, r^2= 7.7D-01
   Bfn.  Coefficient  Atom+Function         Bfn.  Coefficient  Atom+Function  
  ----- ------------  ---------------      ----- ------------  ---------------
    11      1.177966  1 O  dxy               19      0.350698  2 H  py         
    24     -0.350698  3 H  py         

 Vector   15  Occ=0.000000D+00  E= 1.537657D+00  Symmetry=a1
              MO Center=  2.9D-13,  3.0D-14,  2.5D-02, r^2= 8.4D-01
   Bfn.  Coefficient  Atom+Function         Bfn.  Coefficient  Atom+Function  
  ----- ------------  ---------------      ----- ------------  ---------------
     6      0.901910  1 O  s                 15     -0.788597  1 O  dzz        
     9     -0.519667  1 O  pz                 2     -0.323895  1 O  s          
    10      0.255740  1 O  dxx               20      0.248205  2 H  pz         
    25      0.248205  3 H  pz                13      0.245550  1 O  dyy        
    16     -0.237555  2 H  s                 21     -0.237555  3 H  s          

 Vector   16  Occ=0.000000D+00  E= 1.643631D+00  Symmetry=b2
              MO Center= -3.6D-13,  2.4D-14,  2.1D-02, r^2= 7.6D-01
   Bfn.  Coefficient  Atom+Function         Bfn.  Coefficient  Atom+Function  
  ----- ------------  ---------------      ----- ------------  ---------------
    14      1.357157  1 O  dyz               19     -0.300712  2 H  py         
    24     -0.300712  3 H  py                 8      0.205010  1 O  py         

 Vector   17  Occ=0.000000D+00  E= 2.238693D+00  Symmetry=a1
              MO Center=  4.5D-13,  2.0D-14, -8.8D-02, r^2= 8.8D-01
   Bfn.  Coefficient  Atom+Function         Bfn.  Coefficient  Atom+Function  
  ----- ------------  ---------------      ----- ------------  ---------------
     6      1.366014  1 O  s                 13     -1.066546  1 O  dyy        
     9     -0.636988  1 O  pz                16     -0.624252  2 H  s          
    21     -0.624252  3 H  s                  2     -0.567646  1 O  s          
    10      0.521396  1 O  dxx                5      0.208788  1 O  pz         
    18     -0.161324  2 H  px                23      0.161324  3 H  px         

 Vector   18  Occ=0.000000D+00  E= 2.268206D+00  Symmetry=b1
              MO Center= -2.6D-13, -9.7D-28, -4.2D-01, r^2= 1.0D+00
   Bfn.  Coefficient  Atom+Function         Bfn.  Coefficient  Atom+Function  
  ----- ------------  ---------------      ----- ------------  ---------------
    20      0.582475  2 H  pz                25     -0.582475  3 H  pz         
     7     -0.478615  1 O  px                18      0.479651  2 H  px         
    23      0.479651  3 H  px                12     -0.252035  1 O  dxz        
    16      0.103943  2 H  s                 21     -0.103943  3 H  s          
    17      0.103074  2 H  s                 22     -0.103074  3 H  s          

 Vector   19  Occ=0.000000D+00  E= 2.450067D+00  Symmetry=b1
              MO Center=  3.1D-14,  4.0D-26, -1.7D-01, r^2= 9.8D-01
   Bfn.  Coefficient  Atom+Function         Bfn.  Coefficient  Atom+Function  
  ----- ------------  ---------------      ----- ------------  ---------------
    12      1.381886  1 O  dxz               16      0.538420  2 H  s          
    21     -0.538420  3 H  s                  7     -0.482584  1 O  px         
     3      0.340708  1 O  px                18      0.332142  2 H  px         
    23      0.332142  3 H  px                20     -0.232925  2 H  pz         
    25      0.232925  3 H  pz                17     -0.202034  2 H  s          

 Vector   20  Occ=0.000000D+00  E= 2.640993D+00  Symmetry=a2
              MO Center= -6.0D-12,  1.9D-14, -2.1D-01, r^2= 9.8D-01
   Bfn.  Coefficient  Atom+Function         Bfn.  Coefficient  Atom+Function  
  ----- ------------  ---------------      ----- ------------  ---------------
    11      1.525156  1 O  dxy               19     -0.709019  2 H  py         
    24      0.709019  3 H  py         

 Vector   21  Occ=0.000000D+00  E= 2.666765D+00  Symmetry=b2
              MO Center=  6.4D-12,  2.5D-14, -3.0D-01, r^2= 1.0D+00
   Bfn.  Coefficient  Atom+Function         Bfn.  Coefficient  Atom+Function  
  ----- ------------  ---------------      ----- ------------  ---------------
    14      1.275832  1 O  dyz               19      0.762923  2 H  py         
    24      0.762923  3 H  py                 8     -0.417600  1 O  py         

 Vector   22  Occ=0.000000D+00  E= 3.027840D+00  Symmetry=a1
              MO Center= -2.7D-14,  2.6D-15, -2.2D-01, r^2= 1.0D+00
   Bfn.  Coefficient  Atom+Function         Bfn.  Coefficient  Atom+Function  
  ----- ------------  ---------------      ----- ------------  ---------------
    15      0.948120  1 O  dzz               10     -0.749899  1 O  dxx        
    20      0.676568  2 H  pz                25      0.676568  3 H  pz         
     9     -0.461343  1 O  pz                18      0.448041  2 H  px         
    23     -0.448041  3 H  px                 2     -0.181815  1 O  s          
     6      0.131856  1 O  s                 16     -0.090645  2 H  s          

 Vector   23  Occ=0.000000D+00  E= 3.307190D+00  Symmetry=a1
              MO Center=  1.2D-11, -1.1D-14, -3.5D-01, r^2= 1.1D+00
   Bfn.  Coefficient  Atom+Function         Bfn.  Coefficient  Atom+Function  
  ----- ------------  ---------------      ----- ------------  ---------------
     6      2.846460  1 O  s                 13     -1.191333  1 O  dyy        
     9     -0.859565  1 O  pz                16     -0.780979  2 H  s          
    21     -0.780979  3 H  s                 18      0.765113  2 H  px         
    23     -0.765113  3 H  px                17     -0.575369  2 H  s          
    22     -0.575369  3 H  s                 20     -0.458301  2 H  pz         

 Vector   24  Occ=0.000000D+00  E= 3.531537D+00  Symmetry=b1
              MO Center= -1.1D-11, -1.0D-15, -9.9D-02, r^2= 1.2D+00
   Bfn.  Coefficient  Atom+Function         Bfn.  Coefficient  Atom+Function  
  ----- ------------  ---------------      ----- ------------  ---------------
    12      2.569375  1 O  dxz                7     -1.342129  1 O  px         
    16      1.186403  2 H  s                 21     -1.186403  3 H  s          
    18     -0.806744  2 H  px                23     -0.806744  3 H  px         
    20      0.699999  2 H  pz                25     -0.699999  3 H  pz         
     3     -0.692379  1 O  px                17      0.537130  2 H  s          

 Vector   25  Occ=0.000000D+00  E= 3.692901D+00  Symmetry=a1
              MO Center= -1.3D-12, -2.1D-14,  2.3D-01, r^2= 9.1D-01
   Bfn.  Coefficient  Atom+Function         Bfn.  Coefficient  Atom+Function  
  ----- ------------  ---------------      ----- ------------  ---------------
     6      2.599375  1 O  s                 10     -1.938344  1 O  dxx        
    15     -1.577550  1 O  dzz               13     -1.139792  1 O  dyy        
    16      0.658835  2 H  s                 21      0.658835  3 H  s          
    18     -0.486130  2 H  px                23      0.486130  3 H  px         
     5      0.458461  1 O  pz                20      0.429484  2 H  pz         


   alpha - beta orbital overlaps 
   ----------------------------- 


   alpha      1      2      3      4      5      6      7      8      9     10
    beta      1      2      3      4      5      6      7      8      9     10
 overlap   1.000  1.000  1.000  1.000  1.000  1.000  1.000  1.000  1.000  1.000


   alpha     11     12     13     14     15     16     17     18     19     20
    beta     11     12     13     14     15     16     17     18     19     20
 overlap   1.000  1.000  1.000  1.000  1.000  1.000  1.000  1.000  1.000  1.000


   alpha     21     22     23     24     25
    beta     21     22     23     24     25
 overlap   1.000  1.000  1.000  1.000  1.000

     --------------------------
     Expectation value of S2:  
     --------------------------
      <S2> =     -0.0000 (Exact =     0.0000)


 center of mass
 --------------
 x =   0.00000000 y =   0.00000000 z =   0.09921406

 moments of inertia (a.u.)
 ------------------
           2.270969023714           0.000000000000           0.000000000000
           0.000000000000           6.421267634361           0.000000000000
           0.000000000000           0.000000000000           4.150298610647

     Multipole analysis of the density
     ---------------------------------

     L   x y z        total         alpha         beta         nuclear
     -   - - -        -----         -----         ----         -------
     0   0 0 0     -0.000000     -5.000000     -5.000000     10.000000

     1   1 0 0      0.000000     -0.000000      0.000000      0.000000
     1   0 1 0      0.000000      0.000000      0.000000      0.000000
     1   0 0 1     -0.803751     -0.401875     -0.401875      0.000000

     2   2 0 0     -3.194726     -3.656400     -3.656400      4.118075
     2   1 1 0     -0.000000     -0.000000     -0.000000      0.000000
     2   1 0 1     -0.000000     -0.000000     -0.000000      0.000000
     2   0 2 0     -5.306780     -2.653390     -2.653390      0.000000
     2   0 1 1     -0.000000      0.000000     -0.000000      0.000000
     2   0 0 2     -4.442836     -3.236337     -3.236337      2.029839


 Parallel integral file used       4 records with       0 large values

                                NWChem TDDFT Module
                                -------------------


                          TDDFT H2O B3LYP/6-31G** QA TEST


            General Information
            -------------------
           No. of orbitals :      50
            Alpha orbitals :      25
             Beta orbitals :      25
        Alpha frozen cores :       0
         Beta frozen cores :       0
     Alpha frozen virtuals :       0
      Beta frozen virtuals :       0
         Spin multiplicity :       1
    Number of AO functions :      25
        Use of symmetry is : off
      Symmetry adaption is : on 
         Schwarz screening :  0.10D-07

              XC Information
              --------------
                  B3LYP Method XC Potential
              Hartree-Fock (Exact) Exchange   0.20          
                 Slater Exchange Functional   0.80 local    
             Becke 1988 Exchange Functional   0.72 non-local
       Lee-Yang-Parr Correlation Functional   0.81          
           VWN I RPA Correlation Functional   0.19 local    

             TDDFT Information
             -----------------
          Calculation type : Tamm-Dancoff TDDFT
         Wavefunction type : Unrestricted
          No. of electrons :      10
           Alpha electrons :       5
            Beta electrons :       5
              No. of roots :      10
          Max subspacesize :    6000
            Max iterations :     100
               Target root :       1
           Target symmetry : none
      Symmetry restriction : off
                 Algorithm : Optimal
        Davidson threshold :  0.10D-03

            Memory Information
            ------------------
          Available GA space size is         104856350 doubles
          Available MA space size is          26212604 doubles
          Length of a trial vector is          100     100
          Algorithm : Incore multiple tensor contraction
          Estimated peak GA usage is           3805750 doubles
          Estimated peak MA usage is             51000 doubles

   10 smallest eigenvalue differences (eV) 
--------------------------------------------------------
  No. Spin  Occ  Vir  Irrep   E(Occ)    E(Vir)   E(Diff)
--------------------------------------------------------
    1    2    5    6 b2       -0.292     0.065     9.723
    2    1    5    6 b2       -0.292     0.065     9.723
    3    1    4    6 a1       -0.371     0.065    11.874
    4    2    4    6 a1       -0.371     0.065    11.874
    5    1    5    7 a2       -0.292     0.151    12.060
    6    2    5    7 a2       -0.292     0.151    12.060
    7    1    4    7 b1       -0.371     0.151    14.211
    8    2    4    7 b1       -0.371     0.151    14.211
    9    1    3    6 b1       -0.515     0.065    15.792
   10    2    3    6 b1       -0.515     0.065    15.792
--------------------------------------------------------

  Entering Davidson iterations
  Unrestricted

  Iter   NTrls   NConv    DeltaV     DeltaE      Time   
  ----  ------  ------  ---------  ---------  --------- 
    1     10       0     0.15E+00   0.10+100        1.1
    2     20       0     0.21E-01   0.18E-01        1.3
    3     30       2     0.23E-02   0.43E-03        1.3
    4     38       9     0.21E-03   0.24E-05        1.1
    5     39      10     0.84E-04   0.31E-07        0.3
  ----  ------  ------  ---------  ---------  --------- 
  Convergence criterion met

  Ground state a1        -76.419737926504 a.u.
  <S2> =  -0.0000

  ----------------------------------------------------------------------------
  Root   1         b2             0.267147394 a.u.                7.2695 eV 
  <S2> =   2.0000
  ----------------------------------------------------------------------------
     Transition Moments    X -0.00000   Y -0.00000   Z -0.00000
     Transition Moments   XX  0.00000  XY -0.00000  XZ  0.00000
     Transition Moments   YY  0.00000  YZ  0.00000  ZZ  0.00000
     Dipole Oscillator Strength                    0.0000000000
     Electric Quadrupole                           0.0000000000
     Magnetic Dipole                               0.0000000000
     Total Oscillator Strength                     0.0000000000

     Occ.    5 alpha b2  ---  Virt.    6 alpha a1       0.70601
     Occ.    5 beta  b2  ---  Virt.    6 beta  a1      -0.70601
  ----------------------------------------------------------------------------
  Root   2         b2             0.295377101 a.u.                8.0376 eV 
  <S2> =   0.0000
  ----------------------------------------------------------------------------
     Transition Moments    X  0.00000   Y  0.26343   Z  0.00000
     Transition Moments   XX -0.00000  XY  0.00000  XZ -0.00000
     Transition Moments   YY -0.00000  YZ -0.07628  ZZ -0.00000
     Dipole Oscillator Strength                    0.0136648731
     Electric Quadrupole                           0.0000000008
     Magnetic Dipole                               0.0000001150
     Total Oscillator Strength                     0.0136649889

     Occ.    5 alpha b2  ---  Virt.    6 alpha a1       0.70676
     Occ.    5 beta  b2  ---  Virt.    6 beta  a1       0.70676
  ----------------------------------------------------------------------------
  Root   3         a1             0.344563430 a.u.                9.3761 eV 
  <S2> =   2.0000
  ----------------------------------------------------------------------------
     Transition Moments    X -0.00000   Y -0.00000   Z -0.00000
     Transition Moments   XX  0.00000  XY -0.00000  XZ  0.00000
     Transition Moments   YY  0.00000  YZ  0.00000  ZZ  0.00000
     Dipole Oscillator Strength                    0.0000000000
     Electric Quadrupole                           0.0000000000
     Magnetic Dipole                               0.0000000000
     Total Oscillator Strength                     0.0000000000

     Occ.    4 alpha a1  ---  Virt.    6 alpha a1      -0.70387
     Occ.    4 beta  a1  ---  Virt.    6 beta  a1       0.70387
  ----------------------------------------------------------------------------
  Root   4         a2             0.349308066 a.u.                9.5052 eV 
  <S2> =   2.0000
  ----------------------------------------------------------------------------
     Transition Moments    X -0.00000   Y -0.00000   Z -0.00000
     Transition Moments   XX  0.00000  XY -0.00000  XZ  0.00000
     Transition Moments   YY -0.00000  YZ -0.00000  ZZ  0.00000
     Dipole Oscillator Strength                    0.0000000000
     Electric Quadrupole                           0.0000000000
     Magnetic Dipole                               0.0000000000
     Total Oscillator Strength                     0.0000000000

     Occ.    5 alpha b2  ---  Virt.    7 alpha b1       0.70567
     Occ.    5 beta  b2  ---  Virt.    7 beta  b1      -0.70567
  ----------------------------------------------------------------------------
  Root   5         a2             0.369342125 a.u.               10.0503 eV 
  <S2> =   0.0000
  ----------------------------------------------------------------------------
     Transition Moments    X -0.00000   Y -0.00000   Z  0.00000
     Transition Moments   XX  0.00000  XY  0.24182  XZ  0.00000
     Transition Moments   YY -0.00000  YZ  0.00000  ZZ  0.00000
     Dipole Oscillator Strength                    0.0000000000
     Electric Quadrupole                           0.0000000157
     Magnetic Dipole                               0.0000003363
     Total Oscillator Strength                     0.0000003520

     Occ.    5 alpha b2  ---  Virt.    7 alpha b1      -0.70660
     Occ.    5 beta  b2  ---  Virt.    7 beta  b1      -0.70660
  ----------------------------------------------------------------------------
  Root   6         a1             0.390030668 a.u.               10.6133 eV 
  <S2> =   0.0000
  ----------------------------------------------------------------------------
     Transition Moments    X -0.00000   Y -0.00000   Z  0.63051
     Transition Moments   XX -0.66916  XY -0.00000  XZ  0.00000
     Transition Moments   YY -0.11255  YZ  0.00000  ZZ -0.47961
     Dipole Oscillator Strength                    0.1033690338
     Electric Quadrupole                           0.0000000253
     Magnetic Dipole                               0.0000000000
     Total Oscillator Strength                     0.1033690591

     Occ.    3 alpha b1  ---  Virt.    7 alpha b1      -0.10161
     Occ.    4 alpha a1  ---  Virt.    6 alpha a1       0.69801
     Occ.    3 beta  b1  ---  Virt.    7 beta  b1      -0.10161
     Occ.    4 beta  a1  ---  Virt.    6 beta  a1       0.69801
  ----------------------------------------------------------------------------
  Root   7         b1             0.418901621 a.u.               11.3989 eV 
  <S2> =   2.0000
  ----------------------------------------------------------------------------
     Transition Moments    X  0.00000   Y  0.00000   Z -0.00000
     Transition Moments   XX  0.00000  XY -0.00000  XZ -0.00000
     Transition Moments   YY  0.00000  YZ -0.00000  ZZ  0.00000
     Dipole Oscillator Strength                    0.0000000000
     Electric Quadrupole                           0.0000000000
     Magnetic Dipole                               0.0000000000
     Total Oscillator Strength                     0.0000000000

     Occ.    3 alpha b1  ---  Virt.    6 alpha a1       0.17039
     Occ.    4 alpha a1  ---  Virt.    7 alpha b1       0.68359
     Occ.    3 beta  b1  ---  Virt.    6 beta  a1      -0.17039
     Occ.    4 beta  a1  ---  Virt.    7 beta  b1      -0.68359
  ----------------------------------------------------------------------------
  Root   8         b1             0.469576737 a.u.               12.7778 eV 
  <S2> =   0.0000
  ----------------------------------------------------------------------------
     Transition Moments    X -0.49420   Y -0.00000   Z -0.00000
     Transition Moments   XX  0.00000  XY -0.00000  XZ  0.57166
     Transition Moments   YY  0.00000  YZ -0.00000  ZZ  0.00000
     Dipole Oscillator Strength                    0.0764591171
     Electric Quadrupole                           0.0000001802
     Magnetic Dipole                               0.0000005511
     Total Oscillator Strength                     0.0764598484

     Occ.    3 alpha b1  ---  Virt.    6 alpha a1       0.15206
     Occ.    4 alpha a1  ---  Virt.    7 alpha b1      -0.68897
     Occ.    3 beta  b1  ---  Virt.    6 beta  a1       0.15206
     Occ.    4 beta  a1  ---  Virt.    7 beta  b1      -0.68897
  ----------------------------------------------------------------------------
  Root   9         b1             0.482245462 a.u.               13.1226 eV 
  <S2> =   2.0000
  ----------------------------------------------------------------------------
     Transition Moments    X -0.00000   Y -0.00000   Z -0.00000
     Transition Moments   XX  0.00000  XY  0.00000  XZ  0.00000
     Transition Moments   YY  0.00000  YZ  0.00000  ZZ  0.00000
     Dipole Oscillator Strength                    0.0000000000
     Electric Quadrupole                           0.0000000000
     Magnetic Dipole                               0.0000000000
     Total Oscillator Strength                     0.0000000000

     Occ.    3 alpha b1  ---  Virt.    6 alpha a1      -0.68374
     Occ.    4 alpha a1  ---  Virt.    7 alpha b1       0.17215
     Occ.    3 beta  b1  ---  Virt.    6 beta  a1       0.68374
     Occ.    4 beta  a1  ---  Virt.    7 beta  b1      -0.17215
  ----------------------------------------------------------------------------
  Root  10         b1             0.535612370 a.u.               14.5748 eV 
  <S2> =   0.0000
  ----------------------------------------------------------------------------
     Transition Moments    X  1.12071   Y -0.00000   Z -0.00000
     Transition Moments   XX  0.00000  XY  0.00000  XZ -1.01277
     Transition Moments   YY  0.00000  YZ  0.00000  ZZ  0.00000
     Dipole Oscillator Strength                    0.4484818494
     Electric Quadrupole                           0.0000008393
     Magnetic Dipole                               0.0000000210
     Total Oscillator Strength                     0.4484827097

     Occ.    3 alpha b1  ---  Virt.    6 alpha a1       0.68961
     Occ.    4 alpha a1  ---  Virt.    7 alpha b1       0.15030
     Occ.    3 beta  b1  ---  Virt.    6 beta  a1       0.68961
     Occ.    4 beta  a1  ---  Virt.    7 beta  b1       0.15030

              Target root =      1
          Target symmetry = none
      Ground state energy =    -76.419737926504
        Excitation energy =      0.267147393759
     Excited state energy =    -76.152590532745

  stored tddft:energy   -76.152590532745279     

 Task  times  cpu:        5.6s     wall:        5.7s


                                NWChem Input Module
                                -------------------



                                 NWChem DFT Module
                                 -----------------


                          TDDFT H2O B3LYP/6-31G** QA TEST




 Summary of "ao basis" -> "ao basis" (cartesian)
 ------------------------------------------------------------------------------
       Tag                 Description            Shells   Functions and Types
 ---------------- ------------------------------  ------  ---------------------
 O                          6-31G**                  6       15   3s2p1d
 H                          6-31G**                  3        5   2s1p


      Symmetry analysis of basis
      --------------------------

        a1         12
        a2          2
        b1          7
        b2          4

  Caching 1-el integrals 

            General Information
            -------------------
          SCF calculation type: DFT
          Wavefunction type:  spin polarized.
          No. of atoms     :     3
          No. of electrons :    10
           Alpha electrons :     5
            Beta electrons :     5
          Charge           :     0
          Spin multiplicity:     1
          Use of symmetry is: off; symmetry adaption is: on 
          Maximum number of iterations:  30
          AO basis - number of functions:    25
                     number of shells:    12
          Convergence on energy requested:  1.00D-06
          Convergence on density requested:  1.00D-05
          Convergence on gradient requested:  5.00D-04

              XC Information
              --------------
                         B3LYP Method XC Potential
                     Hartree-Fock (Exact) Exchange  0.200          
                        Slater Exchange Functional  0.800 local    
                    Becke 1988 Exchange Functional  0.720 non-local
              Lee-Yang-Parr Correlation Functional  0.810          
                  VWN I RPA Correlation Functional  0.190 local    

             Grid Information
             ----------------
          Grid used for XC integration:  medium    
          Radial quadrature: Mura-Knowles        
          Angular quadrature: Lebedev. 
          Tag              B.-S. Rad. Rad. Pts. Rad. Cut. Ang. Pts.
          ---              ---------- --------- --------- ---------
          O                   0.60       49           5.0       434
          H                   0.35       45           6.0       434
          Grid pruning is: on 
          Number of quadrature shells:   139
          Spatial weights used:  Erf1

          Convergence Information
          -----------------------
          Convergence aids based upon iterative change in 
          total energy or number of iterations. 
          Levelshifting, if invoked, occurs when the 
          HOMO/LUMO gap drops below (HL_TOL):  1.00D-02
          DIIS, if invoked, will attempt to extrapolate 
          using up to (NFOCK): 10 stored Fock matrices.

                    Damping( 0%)  Levelshifting(0.5)       DIIS
                  --------------- ------------------- ---------------
          dE  on:    start            ASAP                start   
          dE off:    2 iters         30 iters            30 iters 


      Screening Tolerance Information
      -------------------------------
          Density screening/tol_rho:  1.00D-10
          AO Gaussian exp screening on grid/accAOfunc:  14
          CD Gaussian exp screening on grid/accCDfunc:  20
          XC Gaussian exp screening on grid/accXCfunc:  20
          Schwarz screening/accCoul:  1.00D-08


 Loading old vectors from job with title :

TDDFT H2O B3LYP/6-31G** QA TEST


   Symmetry analysis of molecular orbitals - initial alpha
   -------------------------------------------------------

  Numbering of irreducible representations: 

     1 a1          2 a2          3 b1          4 b2      

  Orbital symmetries:

     1 a1          2 a1          3 b1          4 a1          5 b2      
     6 a1          7 b1          8 b1          9 a1         10 b2      
    11 a1         12 b1         13 a1         14 a2         15 a1      


   Symmetry analysis of molecular orbitals - initial beta
   ------------------------------------------------------

  Numbering of irreducible representations: 

     1 a1          2 a2          3 b1          4 b2      

  Orbital symmetries:

     1 a1          2 a1          3 b1          4 a1          5 b2      
     6 a1          7 b1          8 b1          9 a1         10 b2      
    11 a1         12 b1         13 a1         14 a2         15 a1      

   Time after variat. SCF:      5.7
   Time prior to 1st pass:      5.7

 #quartets = 3.081D+03 #integrals = 2.937D+04 #direct =  0.0% #cached =100.0%


 Integral file          = ./tddft_h2o_dat.aoints.0
 Record size in doubles =  65536        No. of integs per rec  =  43688
 Max. records in memory =      2        Max. records in file   = 143620
 No. of bits per label  =      8        No. of bits per value  =     64


File balance: exchanges=     0  moved=     0  time=   0.0


 Grid_pts file          = ./tddft_h2o_dat.gridpts.0
 Record size in doubles =  12289        No. of grid_pts per rec  =   3070
 Max. records in memory =      7        Max. recs in file   =    765916


           Memory utilization after 1st SCF pass: 
           Heap Space remaining (MW):       12.89            12888368
          Stack Space remaining (MW):       13.11            13106844

   convergence    iter        energy       DeltaE   RMS-Dens  Diis-err    time
 ---------------- ----- ----------------- --------- --------- ---------  ------
 d= 0,ls=0.0,diis     1    -76.4197379267 -8.55D+01  5.32D-08  1.92D-12     5.8
                                                     5.32D-08  1.92D-12
 d= 0,ls=0.0,diis     2    -76.4197379267  4.26D-14  3.37D-08  2.85D-12     5.9
                                                     3.37D-08  2.85D-12


         Total DFT energy =      -76.419737926658
      One electron energy =     -123.023468234648
           Coulomb energy =       46.835818725533
    Exchange-Corr. energy =       -9.351529800095
 Nuclear repulsion energy =        9.119441382552

 Numeric. integr. density =       10.000001105830

     Total iterative time =      0.2s



                  Occupations of the irreducible representations
                  ----------------------------------------------

                     irrep           alpha         beta
                     --------     --------     --------
                     a1                3.0          3.0
                     a2                0.0          0.0
                     b1                1.0          1.0
                     b2                1.0          1.0


                    DFT Final Alpha Molecular Orbital Analysis
                    ------------------------------------------

 Vector    1  Occ=1.000000D+00  E=-1.913801D+01  Symmetry=a1
              MO Center= -9.2D-15,  7.4D-18,  1.2D-01, r^2= 1.5D-02
   Bfn.  Coefficient  Atom+Function         Bfn.  Coefficient  Atom+Function  
  ----- ------------  ---------------      ----- ------------  ---------------
     1      0.992881  1 O  s                  2      0.026225  1 O  s          

 Vector    2  Occ=1.000000D+00  E=-9.973141D-01  Symmetry=a1
              MO Center= -1.6D-12, -8.2D-15, -8.7D-02, r^2= 5.0D-01
   Bfn.  Coefficient  Atom+Function         Bfn.  Coefficient  Atom+Function  
  ----- ------------  ---------------      ----- ------------  ---------------
     2      0.467607  1 O  s                  6      0.422148  1 O  s          
     1     -0.210485  1 O  s                 16      0.151985  2 H  s          
    21      0.151985  3 H  s                  5     -0.119188  1 O  pz         
     9     -0.041120  1 O  pz         

 Vector    3  Occ=1.000000D+00  E=-5.149839D-01  Symmetry=b1
              MO Center=  2.8D-12,  5.8D-15, -1.1D-01, r^2= 7.9D-01
   Bfn.  Coefficient  Atom+Function         Bfn.  Coefficient  Atom+Function  
  ----- ------------  ---------------      ----- ------------  ---------------
     3      0.513996  1 O  px                 7      0.247229  1 O  px         
    16      0.244124  2 H  s                 21     -0.244124  3 H  s          
    17      0.157240  2 H  s                 22     -0.157240  3 H  s          
    12     -0.049950  1 O  dxz        

 Vector    4  Occ=1.000000D+00  E=-3.710237D-01  Symmetry=a1
              MO Center=  2.8D-13,  8.4D-14,  1.9D-01, r^2= 7.0D-01
   Bfn.  Coefficient  Atom+Function         Bfn.  Coefficient  Atom+Function  
  ----- ------------  ---------------      ----- ------------  ---------------
     5      0.552652  1 O  pz                 6      0.416361  1 O  s          
     9      0.364042  1 O  pz                 2      0.174171  1 O  s          
    16     -0.144230  2 H  s                 21     -0.144230  3 H  s          
    17     -0.116335  2 H  s                 22     -0.116335  3 H  s          
     1     -0.087630  1 O  s                 15     -0.046206  1 O  dzz        

 Vector    5  Occ=1.000000D+00  E=-2.919624D-01  Symmetry=b2
              MO Center=  1.3D-14, -4.7D-14,  9.4D-02, r^2= 5.9D-01
   Bfn.  Coefficient  Atom+Function         Bfn.  Coefficient  Atom+Function  
  ----- ------------  ---------------      ----- ------------  ---------------
     4      0.643967  1 O  py                 8      0.494567  1 O  py         
    14     -0.050376  1 O  dyz        

 Vector    6  Occ=0.000000D+00  E= 6.534604D-02  Symmetry=a1
              MO Center=  4.6D-12, -3.2D-14, -6.2D-01, r^2= 2.4D+00
   Bfn.  Coefficient  Atom+Function         Bfn.  Coefficient  Atom+Function  
  ----- ------------  ---------------      ----- ------------  ---------------
     6      1.261195  1 O  s                 17     -0.969306  2 H  s          
    22     -0.969306  3 H  s                  9     -0.469996  1 O  pz         
     5     -0.275960  1 O  pz                 2      0.117652  1 O  s          
     1     -0.101134  1 O  s                 16     -0.090305  2 H  s          
    21     -0.090305  3 H  s                 13     -0.057597  1 O  dyy        

 Vector    7  Occ=0.000000D+00  E= 1.512261D-01  Symmetry=b1
              MO Center= -6.6D-12, -9.9D-27, -5.7D-01, r^2= 2.5D+00
   Bfn.  Coefficient  Atom+Function         Bfn.  Coefficient  Atom+Function  
  ----- ------------  ---------------      ----- ------------  ---------------
    17      1.286510  2 H  s                 22     -1.286510  3 H  s          
     7     -0.758485  1 O  px                 3     -0.410623  1 O  px         
    16      0.103599  2 H  s                 21     -0.103599  3 H  s          
    12      0.031835  1 O  dxz        

 Vector    8  Occ=0.000000D+00  E= 7.568468D-01  Symmetry=b1
              MO Center=  6.9D-13,  3.8D-27, -2.6D-01, r^2= 1.7D+00
   Bfn.  Coefficient  Atom+Function         Bfn.  Coefficient  Atom+Function  
  ----- ------------  ---------------      ----- ------------  ---------------
    17     -0.795376  2 H  s                 22      0.795376  3 H  s          
    16      0.770846  2 H  s                 21     -0.770846  3 H  s          
    12     -0.460025  1 O  dxz                3     -0.202259  1 O  px         
     7     -0.166493  1 O  px                20     -0.099565  2 H  pz         
    25      0.099565  3 H  pz                18      0.049540  2 H  px         

 Vector    9  Occ=0.000000D+00  E= 8.055101D-01  Symmetry=a1
              MO Center=  3.9D-13,  1.8D-13, -1.7D-01, r^2= 1.5D+00
   Bfn.  Coefficient  Atom+Function         Bfn.  Coefficient  Atom+Function  
  ----- ------------  ---------------      ----- ------------  ---------------
     5      0.647807  1 O  pz                17     -0.601436  2 H  s          
    22     -0.601436  3 H  s                 16      0.566894  2 H  s          
    21      0.566894  3 H  s                  9     -0.558049  1 O  pz         
    10      0.262150  1 O  dxx                6      0.238812  1 O  s          
    18      0.164396  2 H  px                23     -0.164396  3 H  px         

 Vector   10  Occ=0.000000D+00  E= 8.913503D-01  Symmetry=b2
              MO Center= -2.7D-28, -1.5D-13,  1.1D-01, r^2= 1.1D+00
   Bfn.  Coefficient  Atom+Function         Bfn.  Coefficient  Atom+Function  
  ----- ------------  ---------------      ----- ------------  ---------------
     8     -1.037304  1 O  py                 4      0.959670  1 O  py         
    14      0.027785  1 O  dyz        

 Vector   11  Occ=0.000000D+00  E= 8.935286D-01  Symmetry=a1
              MO Center=  1.4D-12, -1.9D-15,  2.6D-01, r^2= 1.5D+00
   Bfn.  Coefficient  Atom+Function         Bfn.  Coefficient  Atom+Function  
  ----- ------------  ---------------      ----- ------------  ---------------
     6      1.350166  1 O  s                  2     -0.816728  1 O  s          
     9      0.807033  1 O  pz                 5     -0.529854  1 O  pz         
    16      0.502429  2 H  s                 21      0.502429  3 H  s          
    17     -0.381525  2 H  s                 22     -0.381525  3 H  s          
    13     -0.323630  1 O  dyy               15     -0.272322  1 O  dzz        

 Vector   12  Occ=0.000000D+00  E= 1.015566D+00  Symmetry=b1
              MO Center= -2.0D-12,  7.9D-15,  1.2D-01, r^2= 1.6D+00
   Bfn.  Coefficient  Atom+Function         Bfn.  Coefficient  Atom+Function  
  ----- ------------  ---------------      ----- ------------  ---------------
     7      1.795569  1 O  px                17     -0.963662  2 H  s          
    22      0.963662  3 H  s                  3     -0.864461  1 O  px         
    12     -0.157552  1 O  dxz               16     -0.152363  2 H  s          
    21      0.152363  3 H  s                 18      0.144803  2 H  px         
    23      0.144803  3 H  px                20     -0.090197  2 H  pz         

 Vector   13  Occ=0.000000D+00  E= 1.175374D+00  Symmetry=a1
              MO Center=  3.0D-13, -9.8D-15, -3.7D-01, r^2= 1.4D+00
   Bfn.  Coefficient  Atom+Function         Bfn.  Coefficient  Atom+Function  
  ----- ------------  ---------------      ----- ------------  ---------------
     6      3.527323  1 O  s                  2     -1.425462  1 O  s          
     9     -0.990461  1 O  pz                17     -0.770199  2 H  s          
    22     -0.770199  3 H  s                 10     -0.625764  1 O  dxx        
     5      0.351436  1 O  pz                15     -0.333460  1 O  dzz        
    16     -0.326676  2 H  s                 21     -0.326676  3 H  s          

 Vector   14  Occ=0.000000D+00  E= 1.529509D+00  Symmetry=a2
              MO Center=  1.9D-13, -1.4D-14, -1.3D-01, r^2= 7.7D-01
   Bfn.  Coefficient  Atom+Function         Bfn.  Coefficient  Atom+Function  
  ----- ------------  ---------------      ----- ------------  ---------------
    11      1.177966  1 O  dxy               19      0.350698  2 H  py         
    24     -0.350698  3 H  py         

 Vector   15  Occ=0.000000D+00  E= 1.537657D+00  Symmetry=a1
              MO Center=  3.4D-14,  4.2D-17,  2.5D-02, r^2= 8.4D-01
   Bfn.  Coefficient  Atom+Function         Bfn.  Coefficient  Atom+Function  
  ----- ------------  ---------------      ----- ------------  ---------------
     6      0.901910  1 O  s                 15     -0.788597  1 O  dzz        
     9     -0.519667  1 O  pz                 2     -0.323896  1 O  s          
    10      0.255739  1 O  dxx               20      0.248206  2 H  pz         
    25      0.248206  3 H  pz                13      0.245549  1 O  dyy        
    16     -0.237555  2 H  s                 21     -0.237555  3 H  s          

 Vector   16  Occ=0.000000D+00  E= 1.643631D+00  Symmetry=b2
              MO Center= -6.1D-14, -5.6D-15,  2.1D-02, r^2= 7.6D-01
   Bfn.  Coefficient  Atom+Function         Bfn.  Coefficient  Atom+Function  
  ----- ------------  ---------------      ----- ------------  ---------------
    14      1.357157  1 O  dyz               19     -0.300712  2 H  py         
    24     -0.300712  3 H  py                 8      0.205010  1 O  py         

 Vector   17  Occ=0.000000D+00  E= 2.238693D+00  Symmetry=a1
              MO Center=  3.3D-14,  5.3D-16, -8.8D-02, r^2= 8.8D-01
   Bfn.  Coefficient  Atom+Function         Bfn.  Coefficient  Atom+Function  
  ----- ------------  ---------------      ----- ------------  ---------------
     6      1.366014  1 O  s                 13     -1.066546  1 O  dyy        
     9     -0.636987  1 O  pz                16     -0.624252  2 H  s          
    21     -0.624252  3 H  s                  2     -0.567646  1 O  s          
    10      0.521396  1 O  dxx                5      0.208788  1 O  pz         
    18     -0.161324  2 H  px                23      0.161324  3 H  px         

 Vector   18  Occ=0.000000D+00  E= 2.268206D+00  Symmetry=b1
              MO Center=  4.0D-13, -1.0D-16, -4.2D-01, r^2= 1.0D+00
   Bfn.  Coefficient  Atom+Function         Bfn.  Coefficient  Atom+Function  
  ----- ------------  ---------------      ----- ------------  ---------------
    20      0.582475  2 H  pz                25     -0.582475  3 H  pz         
     7     -0.478616  1 O  px                18      0.479651  2 H  px         
    23      0.479651  3 H  px                12     -0.252035  1 O  dxz        
    16      0.103943  2 H  s                 21     -0.103943  3 H  s          
    17      0.103074  2 H  s                 22     -0.103074  3 H  s          

 Vector   19  Occ=0.000000D+00  E= 2.450067D+00  Symmetry=b1
              MO Center= -3.5D-13,  6.1D-16, -1.7D-01, r^2= 9.8D-01
   Bfn.  Coefficient  Atom+Function         Bfn.  Coefficient  Atom+Function  
  ----- ------------  ---------------      ----- ------------  ---------------
    12      1.381886  1 O  dxz               16      0.538420  2 H  s          
    21     -0.538420  3 H  s                  7     -0.482584  1 O  px         
     3      0.340708  1 O  px                18      0.332142  2 H  px         
    23      0.332142  3 H  px                20     -0.232925  2 H  pz         
    25      0.232925  3 H  pz                17     -0.202035  2 H  s          

[...]
  ----- ------------  ---------------      ----- ------------  ---------------
    15      0.948120  1 O  dzz               10     -0.749899  1 O  dxx        
    20      0.676568  2 H  pz                25      0.676568  3 H  pz         
     9     -0.461343  1 O  pz                18      0.448041  2 H  px         
    23     -0.448041  3 H  px                 2     -0.181815  1 O  s          
     6      0.131856  1 O  s                 16     -0.090645  2 H  s          

 Vector   23  Occ=0.000000D+00  E= 3.307190D+00  Symmetry=a1
              MO Center=  2.7D-13, -9.6D-14, -3.5D-01, r^2= 1.1D+00
   Bfn.  Coefficient  Atom+Function         Bfn.  Coefficient  Atom+Function  
  ----- ------------  ---------------      ----- ------------  ---------------
     6      2.846459  1 O  s                 13     -1.191333  1 O  dyy        
     9     -0.859565  1 O  pz                16     -0.780979  2 H  s          
    21     -0.780979  3 H  s                 18      0.765113  2 H  px         
    23     -0.765113  3 H  px                17     -0.575369  2 H  s          
    22     -0.575369  3 H  s                 20     -0.458301  2 H  pz         

 Vector   24  Occ=0.000000D+00  E= 3.531537D+00  Symmetry=b1
              MO Center=  6.1D-12,  8.0D-16, -9.9D-02, r^2= 1.2D+00
   Bfn.  Coefficient  Atom+Function         Bfn.  Coefficient  Atom+Function  
  ----- ------------  ---------------      ----- ------------  ---------------
    12      2.569375  1 O  dxz                7     -1.342129  1 O  px         
    16      1.186403  2 H  s                 21     -1.186403  3 H  s          
    18     -0.806744  2 H  px                23     -0.806744  3 H  px         
    20      0.699999  2 H  pz                25     -0.699999  3 H  pz         
     3     -0.692379  1 O  px                17      0.537130  2 H  s          

 Vector   25  Occ=0.000000D+00  E= 3.692901D+00  Symmetry=a1
              MO Center= -1.8D-12,  1.9D-13,  2.3D-01, r^2= 9.1D-01
   Bfn.  Coefficient  Atom+Function         Bfn.  Coefficient  Atom+Function  
  ----- ------------  ---------------      ----- ------------  ---------------
     6      2.599376  1 O  s                 10     -1.938344  1 O  dxx        
    15     -1.577551  1 O  dzz               13     -1.139792  1 O  dyy        
    16      0.658835  2 H  s                 21      0.658835  3 H  s          
    18     -0.486130  2 H  px                23      0.486130  3 H  px         
     5      0.458461  1 O  pz                20      0.429484  2 H  pz         


   alpha - beta orbital overlaps 
   ----------------------------- 


   alpha      1      2      3      4      5      6      7      8      9     10
    beta      1      2      3      4      5      6      7      8      9     10
 overlap   1.000  1.000  1.000  1.000  1.000  1.000  1.000  1.000  1.000  1.000


   alpha     11     12     13     14     15     16     17     18     19     20
    beta     11     12     13     14     15     16     17     18     19     20
 overlap   1.000  1.000  1.000  1.000  1.000  1.000  1.000  1.000  1.000  1.000


   alpha     21     22     23     24     25
    beta     21     22     23     24     25
 overlap   1.000  1.000  1.000  1.000  1.000

     --------------------------
     Expectation value of S2:  
     --------------------------
      <S2> =     -0.0000 (Exact =     0.0000)


 center of mass
 --------------
 x =   0.00000000 y =   0.00000000 z =   0.09921406

 moments of inertia (a.u.)
 ------------------
           2.270969023714           0.000000000000           0.000000000000
           0.000000000000           6.421267634361           0.000000000000
           0.000000000000           0.000000000000           4.150298610647

     Multipole analysis of the density
     ---------------------------------

     L   x y z        total         alpha         beta         nuclear
     -   - - -        -----         -----         ----         -------
     0   0 0 0     -0.000000     -5.000000     -5.000000     10.000000

     1   1 0 0     -0.000000     -0.000000     -0.000000      0.000000
     1   0 1 0     -0.000000     -0.000000     -0.000000      0.000000
     1   0 0 1     -0.803750     -0.401875     -0.401875      0.000000

     2   2 0 0     -3.194729     -3.656402     -3.656402      4.118075
     2   1 1 0      0.000000      0.000000      0.000000      0.000000
     2   1 0 1      0.000000      0.000000      0.000000      0.000000
     2   0 2 0     -5.306781     -2.653391     -2.653391      0.000000
     2   0 1 1      0.000000      0.000000      0.000000      0.000000
     2   0 0 2     -4.442837     -3.236338     -3.236338      2.029839


 Parallel integral file used       4 records with       0 large values

                                NWChem TDDFT Module
                                -------------------


                          TDDFT H2O B3LYP/6-31G** QA TEST


            General Information
            -------------------
           No. of orbitals :      50
            Alpha orbitals :      25
             Beta orbitals :      25
        Alpha frozen cores :       0
         Beta frozen cores :       0
     Alpha frozen virtuals :       0
      Beta frozen virtuals :       0
         Spin multiplicity :       1
    Number of AO functions :      25
        Use of symmetry is : off
      Symmetry adaption is : on 
         Schwarz screening :  0.10D-07

              XC Information
              --------------
                  B3LYP Method XC Potential
              Hartree-Fock (Exact) Exchange   0.20          
                 Slater Exchange Functional   0.80 local    
             Becke 1988 Exchange Functional   0.72 non-local
       Lee-Yang-Parr Correlation Functional   0.81          
           VWN I RPA Correlation Functional   0.19 local    

             TDDFT Information
             -----------------
          Calculation type : TDDFT             
         Wavefunction type : Unrestricted
          No. of electrons :      10
           Alpha electrons :       5
            Beta electrons :       5
              No. of roots :       9
          Max subspacesize :    5800
            Max iterations :     100
               Target root :       1
           Target symmetry : none
      Symmetry restriction : off
                 Algorithm : Disk-based multiple tensor contraction
        Davidson threshold :  0.10D-03

            Memory Information
            ------------------
          Available GA space size is         104856350 doubles
          Available MA space size is          26212604 doubles
          Length of a trial vector is          100     100
          Estimated peak GA usage is            189000 doubles
          Estimated peak MA usage is           1307600 doubles
          Estimated peak DRA usage is          4640000 doubles

 Reading initial trial vectors from:
  ./tddft_h2o_dat.trials

    9 smallest eigenvalue differences (eV) 
--------------------------------------------------------
  No. Spin  Occ  Vir  Irrep   E(Occ)    E(Vir)   E(Diff)
--------------------------------------------------------
    1    2    5    6 b2       -0.292     0.065     9.723
    2    1    5    6 b2       -0.292     0.065     9.723
    3    1    4    6 a1       -0.371     0.065    11.874
    4    2    4    6 a1       -0.371     0.065    11.874
    5    2    5    7 a2       -0.292     0.151    12.060
    6    1    5    7 a2       -0.292     0.151    12.060
    7    1    4    7 b1       -0.371     0.151    14.211
    8    2    4    7 b1       -0.371     0.151    14.211
    9    1    3    6 b1       -0.515     0.065    15.792
--------------------------------------------------------

  Entering Davidson iterations
  Unrestricted

  Iter   NTrls   NConv    DeltaV     DeltaE      Time   
  ----  ------  ------  ---------  ---------  --------- 
    1     18       7     0.56E-03   0.10+100        2.3
    2     21       9     0.86E-04   0.74E-07        0.6
  ----  ------  ------  ---------  ---------  --------- 
  Convergence criterion met

  Ground state a1        -76.419737926654 a.u.
  <S2> =  -0.0000

  ----------------------------------------------------------------------------
  Root   1         b2             0.265905121 a.u.                7.2356 eV 
  <S2> =   2.0000
  ----------------------------------------------------------------------------
     Transition Moments    X -0.00000   Y  0.00000   Z -0.00000
     Transition Moments   XX -0.00000  XY -0.00000  XZ  0.00000
     Transition Moments   YY  0.00000  YZ -0.00000  ZZ  0.00000
     Dipole Oscillator Strength                    0.0000000000
     Electric Quadrupole                           0.0000000000
     Magnetic Dipole                               0.0000000000
     Total Oscillator Strength                     0.0000000000

     Occ.    5 alpha b2  ---  Virt.    6 alpha a1  -0.70637 X
     Occ.    5 beta  b2  ---  Virt.    6 beta  a1   0.70637 X
  ----------------------------------------------------------------------------
  Root   2         b2             0.294221001 a.u.                8.0062 eV 
  <S2> =  -0.0000
  ----------------------------------------------------------------------------
     Transition Moments    X  0.00000   Y  0.26890   Z -0.00000
     Transition Moments   XX  0.00000  XY  0.00000  XZ  0.00000
     Transition Moments   YY -0.00000  YZ -0.08066  ZZ  0.00000
     Dipole Oscillator Strength                    0.0141833761
     Electric Quadrupole                           0.0000000009
     Magnetic Dipole                               0.0000001219
     Total Oscillator Strength                     0.0141834989

     Occ.    5 alpha b2  ---  Virt.    6 alpha a1   0.70712 X
     Occ.    5 beta  b2  ---  Virt.    6 beta  a1   0.70712 X
  ----------------------------------------------------------------------------
  Root   3         a1             0.342027717 a.u.                9.3071 eV 
  <S2> =   2.0000
  ----------------------------------------------------------------------------
     Transition Moments    X  0.00000   Y  0.00000   Z -0.00000
     Transition Moments   XX  0.00000  XY  0.00000  XZ -0.00000
     Transition Moments   YY  0.00000  YZ  0.00000  ZZ  0.00000
     Dipole Oscillator Strength                    0.0000000000
     Electric Quadrupole                           0.0000000000
     Magnetic Dipole                               0.0000000000
     Total Oscillator Strength                     0.0000000000

     Occ.    3 alpha b1  ---  Virt.    7 alpha b1  -0.05593 X
     Occ.    4 alpha a1  ---  Virt.    6 alpha a1  -0.70377 X
     Occ.    3 beta  b1  ---  Virt.    7 beta  b1   0.05593 X
     Occ.    4 beta  a1  ---  Virt.    6 beta  a1   0.70377 X
  ----------------------------------------------------------------------------
  Root   4         a2             0.348121082 a.u.                9.4729 eV 
  <S2> =   2.0000
  ----------------------------------------------------------------------------
     Transition Moments    X  0.00000   Y  0.00000   Z  0.00000
     Transition Moments   XX -0.00000  XY  0.00000  XZ -0.00000
     Transition Moments   YY  0.00000  YZ -0.00000  ZZ -0.00000
     Dipole Oscillator Strength                    0.0000000000
     Electric Quadrupole                           0.0000000000
     Magnetic Dipole                               0.0000000000
     Total Oscillator Strength                     0.0000000000

     Occ.    5 alpha b2  ---  Virt.    7 alpha b1   0.70590 X
     Occ.    5 beta  b2  ---  Virt.    7 beta  b1  -0.70590 X
  ----------------------------------------------------------------------------
  Root   5         a2             0.369097182 a.u.               10.0436 eV 
  <S2> =  -0.0000
  ----------------------------------------------------------------------------
     Transition Moments    X  0.00000   Y  0.00000   Z -0.00000
     Transition Moments   XX  0.00000  XY -0.24936  XZ  0.00000
     Transition Moments   YY -0.00000  YZ -0.00000  ZZ  0.00000
     Dipole Oscillator Strength                    0.0000000000
     Electric Quadrupole                           0.0000000166
     Magnetic Dipole                               0.0000003348
     Total Oscillator Strength                     0.0000003515

     Occ.    5 alpha b2  ---  Virt.    7 alpha b1   0.70666 X
     Occ.    5 beta  b2  ---  Virt.    7 beta  b1   0.70666 X
  ----------------------------------------------------------------------------
  Root   6         a1             0.387064422 a.u.               10.5326 eV 
  <S2> =   0.0000
  ----------------------------------------------------------------------------
     Transition Moments    X  0.00000   Y  0.00000   Z  0.60462
     Transition Moments   XX -0.62352  XY -0.00000  XZ -0.00000
     Transition Moments   YY -0.09429  YZ  0.00000  ZZ -0.45942
     Dipole Oscillator Strength                    0.0943302489
     Electric Quadrupole                           0.0000000227
     Magnetic Dipole                               0.0000000000
     Total Oscillator Strength                     0.0943302715

     Occ.    3 alpha b1  ---  Virt.    7 alpha b1  -0.08397 X
     Occ.    4 alpha a1  ---  Virt.    6 alpha a1   0.70174 X
     Occ.    3 beta  b1  ---  Virt.    7 beta  b1  -0.08397 X
     Occ.    4 beta  a1  ---  Virt.    6 beta  a1   0.70174 X
  ----------------------------------------------------------------------------
  Root   7         b1             0.415497570 a.u.               11.3063 eV 
  <S2> =   2.0000
  ----------------------------------------------------------------------------
     Transition Moments    X  0.00000   Y -0.00000   Z  0.00000
     Transition Moments   XX -0.00000  XY -0.00000  XZ -0.00000
     Transition Moments   YY -0.00000  YZ  0.00000  ZZ -0.00000
     Dipole Oscillator Strength                    0.0000000000
     Electric Quadrupole                           0.0000000000
     Magnetic Dipole                               0.0000000000
     Total Oscillator Strength                     0.0000000000

     Occ.    3 alpha b1  ---  Virt.    6 alpha a1   0.18810 X
     Occ.    4 alpha a1  ---  Virt.    7 alpha b1   0.67963 X
     Occ.    3 beta  b1  ---  Virt.    6 beta  a1  -0.18810 X
     Occ.    4 beta  a1  ---  Virt.    7 beta  b1  -0.67963 X
  ----------------------------------------------------------------------------
  Root   8         b1             0.466992133 a.u.               12.7075 eV 
  <S2> =  -0.0000
  ----------------------------------------------------------------------------
     Transition Moments    X  0.47326   Y -0.00000   Z  0.00000
     Transition Moments   XX  0.00000  XY -0.00000  XZ -0.58527
     Transition Moments   YY -0.00000  YZ  0.00000  ZZ -0.00000
     Dipole Oscillator Strength                    0.0697298199
     Electric Quadrupole                           0.0000001858
     Magnetic Dipole                               0.0000005783
     Total Oscillator Strength                     0.0697305840

     Occ.    3 alpha b1  ---  Virt.    6 alpha a1  -0.13669 X
     Occ.    4 alpha a1  ---  Virt.    7 alpha b1   0.69308 X
     Occ.    3 beta  b1  ---  Virt.    6 beta  a1  -0.13669 X
     Occ.    4 beta  a1  ---  Virt.    7 beta  b1   0.69308 X
  ----------------------------------------------------------------------------
  Root   9         b1             0.480288084 a.u.               13.0693 eV 
  <S2> =   2.0000
  ----------------------------------------------------------------------------
     Transition Moments    X -0.00001   Y -0.00000   Z -0.00000
     Transition Moments   XX  0.00000  XY -0.00000  XZ  0.00001
     Transition Moments   YY -0.00000  YZ  0.00000  ZZ -0.00000
     Dipole Oscillator Strength                    0.0000000000
     Electric Quadrupole                           0.0000000000
     Magnetic Dipole                               0.0000000000
     Total Oscillator Strength                     0.0000000000

     Occ.    3 alpha b1  ---  Virt.    6 alpha a1   0.67953 X
     Occ.    4 alpha a1  ---  Virt.    7 alpha b1  -0.18911 X
     Occ.    3 beta  b1  ---  Virt.    6 beta  a1  -0.67952 X
     Occ.    4 beta  a1  ---  Virt.    7 beta  b1   0.18911 X

              Target root =      1
          Target symmetry = none
      Ground state energy =    -76.419737926654
        Excitation energy =      0.265905121228
     Excited state energy =    -76.153832805425

  stored tddft:energy   -76.153832805425154     

 Task  times  cpu:        3.1s     wall:        3.2s


                                NWChem Input Module
                                -------------------


 Summary of allocated global arrays
-----------------------------------
  No active global arrays



                         GA Statistics for process    0
                         ------------------------------

       create   destroy   get      put      acc     scatter   gather  read&inc
calls: 4281     4281     3.96e+05 1.45e+05 1.44e+05 1766        0      643     
number of processes/call 1.30e+00 1.74e+00 1.71e+00 0.00e+00 0.00e+00
bytes total:             1.95e+08 4.17e+07 1.30e+08 1.40e+03 0.00e+00 5.14e+03
bytes remote:            6.16e+07 7.08e+06 4.41e+07 0.00e+00 0.00e+00 0.00e+00
Max memory consumed for GA by this process: 8054400 bytes

MA_summarize_allocated_blocks: starting scan ...
MA_summarize_allocated_blocks: scan completed: 0 heap blocks, 0 stack blocks
MA usage statistics:

	allocation statistics:
					      heap	     stack
					      ----	     -----
	current number of blocks	         0	         0
	maximum number of blocks	        22	        51
	current total bytes		         0	         0
	maximum total bytes		   1750624	  22511496
	maximum total K-bytes		      1751	     22512
	maximum total M-bytes		         2	        23


                                     CITATION
                                     --------
                Please cite the following reference when publishing
                           results obtained with NWChem:

                 M. Valiev, E.J. Bylaska, N. Govind, K. Kowalski,
              T.P. Straatsma, H.J.J. van Dam, D. Wang, J. Nieplocha,
                        E. Apra, T.L. Windus, W.A. de Jong
                 "NWChem: a comprehensive and scalable open-source
                  solution for large scale molecular simulations"
                      Comput. Phys. Commun. 181, 1477 (2010)
                           doi:10.1016/j.cpc.2010.04.018

                                      AUTHORS
                                      -------
          E. Apra, E. J. Bylaska, W. A. de Jong, N. Govind, K. Kowalski,
       T. P. Straatsma, M. Valiev, H. J. J. van Dam, D. Wang, T. L. Windus,
        J. Hammond, J. Autschbach, K. Bhaskaran-Nair, J. Brabec, K. Lopata,
       S. A. Fischer, S. Krishnamoorthy, W. Ma, M. Klemm, O. Villa, Y. Chen,
    V. Anisimov, F. Aquino, S. Hirata, M. T. Hackler, V. Konjkov, T. Risthaus,
       M. Malagoli, A. Marenich, A. Otero-de-la-Roza, J. Mullin, P. Nichols,
      R. Peverati, J. Pittner, Y. Zhao, P.-D. Fan, A. Fonari, M. Williamson,
      R. J. Harrison, J. R. Rehr, M. Dupuis, D. Silverstein, D. M. A. Smith,
            J. Nieplocha, V. Tipparaju, M. Krishnan, B. E. Van Kuiken,
        A. Vazquez-Mayagoitia, L. Jensen, M. Swart, Q. Wu, T. Van Voorhis,
     A. A. Auer, M. Nooijen, L. D. Crosby, E. Brown, G. Cisneros, G. I. Fann,
   H. Fruchtl, J. Garza, K. Hirao, R. A. Kendall, J. A. Nichols, K. Tsemekhman,
    K. Wolinski, J. Anchell, D. E. Bernholdt, P. Borowski, T. Clark, D. Clerc,
   H. Dachsel, M. J. O. Deegan, K. Dyall, D. Elwood, E. Glendening, M. Gutowski,
   A. C. Hess, J. Jaffe, B. G. Johnson, J. Ju, R. Kobayashi, R. Kutteh, Z. Lin,
   R. Littlefield, X. Long, B. Meng, T. Nakajima, S. Niu, L. Pollack, M. Rosing,
   K. Glaesemann, G. Sandrone, M. Stave, H. Taylor, G. Thomas, J. H. van Lenthe,
                               A. T. Wong, Z. Zhang.

 Total times  cpu:       21.0s     wall:       21.3s
