 argument  1 = h2o-dft-pbe.nw



============================== echo of input deck ==============================
echo
start h2o-dat

memory heap 100 mb stack 1024 mb global 2048 mb

geometry
  load ../xyz/h2o.xyz
end

basis "cc-pvdz" spherical
  * library cc-pvdz
end
basis "cc-pvtz" spherical
  * library cc-pvtz
end
basis "cc-pvqz" spherical
  * library cc-pvqz
end
basis "cc-pv5z" spherical
  * library cc-pv5z
end
basis "cc-pv6z" spherical
  * library cc-pv6z
end

dft
  direct
  # select PBE functional following https://doi.org/10.1002/aic.15517
  xc xpbe96 cpbe96
end

set int:txs:limxmem              50000000

set "ao basis" "cc-pvdz"
task dft optimize

set "ao basis" "cc-pvtz"
task dft optimize

set "ao basis" "cc-pvqz"
task dft optimize

set "ao basis" "cc-pv5z"
task dft optimize

set "ao basis" "cc-pv6z"
task dft optimize
================================================================================


                                         
                                         


             Northwest Computational Chemistry Package (NWChem) 7.0.1
             --------------------------------------------------------


                    Environmental Molecular Sciences Laboratory
                       Pacific Northwest National Laboratory
                                Richland, WA 99352

                              Copyright (c) 1994-2020
                       Pacific Northwest National Laboratory
                            Battelle Memorial Institute

             NWChem is an open-source computational chemistry package
                        distributed under the terms of the
                      Educational Community License (ECL) 2.0
             A copy of the license is included with this distribution
                              in the LICENSE.TXT file

                                  ACKNOWLEDGMENT
                                  --------------

            This software and its documentation were developed at the
            EMSL at Pacific Northwest National Laboratory, a multiprogram
            national laboratory, operated for the U.S. Department of Energy
            by Battelle under Contract Number DE-AC05-76RL01830. Support
            for this work was provided by the Department of Energy Office
            of Biological and Environmental Research, Office of Basic
            Energy Sciences, and the Office of Advanced Scientific Computing.


           Job information
           ---------------

    hostname        = erato
    program         = ../../../../bin/LINUX64/nwchem
    date            = Thu Jul  7 14:34:23 2022

    compiled        = Tue_Mar_08_23:56:35_2022
    source          = /home/hvandam/nwchem-7-mod
    nwchem branch   = 7.0.0
    nwchem revision = nwchem_on_git-2024-gf50bd8920b
    ga revision     = 5.7.2
    use scalapack   = F
    input           = h2o-dft-pbe.nw
    prefix          = h2o-dat.
    data base       = ./h2o-dat.db
    status          = startup
    nproc           =        1
    time left       =     -1s



           Memory information
           ------------------

    heap     =   13107198 doubles =    100.0 Mbytes
    stack    =  134217723 doubles =   1024.0 Mbytes
    global   =  268435456 doubles =   2048.0 Mbytes (distinct from heap & stack)
    total    =  415760377 doubles =   3172.0 Mbytes
    verify   = yes
    hardfail = no 


           Directory information
           ---------------------

  0 permanent = .
  0 scratch   = .




                                NWChem Input Module
                                -------------------



 Scaling coordinates for geometry "geometry" by  1.889725989
 (inverse scale =  0.529177249)

 C2V symmetry detected

          ------
          auto-z
          ------
  no constraints, skipping    0.0000000000000000     
  no constraints, skipping    0.0000000000000000     


                             Geometry "geometry" -> ""
                             -------------------------

 Output coordinates in angstroms (scale by  1.889725989 to convert to a.u.)

  No.       Tag          Charge          X              Y              Z
 ---- ---------------- ---------- -------------- -------------- --------------
    1 O                    8.0000     0.00000000     0.00000000    -0.11934379
    2 H                    1.0000     0.76346565     0.00000000     0.47737514
    3 H                    1.0000    -0.76346565     0.00000000     0.47737514

      Atomic Mass 
      ----------- 

      O                 15.994910
      H                  1.007825


 Effective nuclear repulsion energy (a.u.)       9.0843033521

            Nuclear Dipole moment (a.u.) 
            ----------------------------
        X                 Y               Z
 ---------------- ---------------- ----------------
     0.0000000000     0.0000000000     0.0000000000

      Symmetry information
      --------------------

 Group name             C2v       
 Group number             16
 Group order               4
 No. of unique centers     2

      Symmetry unique atoms

     1    2



                                Z-matrix (autoz)
                                -------- 

 Units are Angstrom for bonds and degrees for angles

      Type          Name      I     J     K     L     M      Value
      ----------- --------  ----- ----- ----- ----- ----- ----------
    1 Stretch                  1     2                       0.96900
    2 Stretch                  1     3                       0.96900
    3 Bend                     2     1     3               103.97818


            XYZ format geometry
            -------------------
     3
 geometry
 O                     0.00000000     0.00000000    -0.11934379
 H                     0.76346565     0.00000000     0.47737514
 H                    -0.76346565     0.00000000     0.47737514

 ==============================================================================
                                internuclear distances
 ------------------------------------------------------------------------------
       center one      |      center two      | atomic units |  angstroms
 ------------------------------------------------------------------------------
    2 H                |   1 O                |     1.83114  |     0.96900
    3 H                |   1 O                |     1.83114  |     0.96900
 ------------------------------------------------------------------------------
                         number of included internuclear distances:          2
 ==============================================================================



 ==============================================================================
                                 internuclear angles
 ------------------------------------------------------------------------------
        center 1       |       center 2       |       center 3       |  degrees
 ------------------------------------------------------------------------------
    2 H                |   1 O                |   3 H                |   103.98
 ------------------------------------------------------------------------------
                            number of included internuclear angles:          1
 ==============================================================================





 Summary of "cc-pvdz" -> "" (spherical)
 ------------------------------------------------------------------------------
       Tag                 Description            Shells   Functions and Types
 ---------------- ------------------------------  ------  ---------------------
 *                          cc-pvdz                   on all atoms 




 Summary of "cc-pvtz" -> "" (spherical)
 ------------------------------------------------------------------------------
       Tag                 Description            Shells   Functions and Types
 ---------------- ------------------------------  ------  ---------------------
 *                          cc-pvtz                   on all atoms 




 Summary of "cc-pvqz" -> "" (spherical)
 ------------------------------------------------------------------------------
       Tag                 Description            Shells   Functions and Types
 ---------------- ------------------------------  ------  ---------------------
 *                          cc-pvqz                   on all atoms 




 Summary of "cc-pv5z" -> "" (spherical)
 ------------------------------------------------------------------------------
       Tag                 Description            Shells   Functions and Types
 ---------------- ------------------------------  ------  ---------------------
 *                          cc-pv5z                   on all atoms 




 Summary of "cc-pv6z" -> "" (spherical)
 ------------------------------------------------------------------------------
       Tag                 Description            Shells   Functions and Types
 ---------------- ------------------------------  ------  ---------------------
 *                          cc-pv6z                   on all atoms 


  pbe96 is a nonlocal functional; adding pw91lda local functional. 


                           NWChem Geometry Optimization
                           ----------------------------


  no constraints, skipping    0.0000000000000000     
 maximum gradient threshold         (gmax) =   0.000450
 rms gradient threshold             (grms) =   0.000300
 maximum cartesian step threshold   (xmax) =   0.001800
 rms cartesian step threshold       (xrms) =   0.001200
 fixed trust radius                (trust) =   0.300000
 maximum step size to saddle      (sadstp) =   0.100000
 energy precision                  (eprec) =   5.0D-06
 maximum number of steps          (nptopt) =   20
 initial hessian option           (inhess) =    0
 line search option               (linopt) =    1
 hessian update option            (modupd) =    1
 saddle point option              (modsad) =    0
 initial eigen-mode to follow     (moddir) =    0
 initial variable to follow       (vardir) =    0
 follow first negative mode     (firstneg) =    T
 apply conjugacy                    (opcg) =    F
 source of zmatrix                         =   autoz   


          -------------------
          Energy Minimization
          -------------------


 Names of Z-matrix variables 
    1              2              3         

 Variables with the same non-blank name are constrained to be equal


 Using old Hessian from previous optimization

          --------
          Step   0
          --------


                         Geometry "geometry" -> "geometry"
                         ---------------------------------

 Output coordinates in angstroms (scale by  1.889725989 to convert to a.u.)

  No.       Tag          Charge          X              Y              Z
 ---- ---------------- ---------- -------------- -------------- --------------
    1 O                    8.0000     0.00000000     0.00000000    -0.11934379
    2 H                    1.0000     0.76346565     0.00000000     0.47737514
    3 H                    1.0000    -0.76346565     0.00000000     0.47737514

      Atomic Mass 
      ----------- 

      O                 15.994910
      H                  1.007825


 Effective nuclear repulsion energy (a.u.)       9.0843033521

            Nuclear Dipole moment (a.u.) 
            ----------------------------
        X                 Y               Z
 ---------------- ---------------- ----------------
     0.0000000000     0.0000000000     0.0000000000

      Symmetry information
      --------------------

 Group name             C2v       
 Group number             16
 Group order               4
 No. of unique centers     2

      Symmetry unique atoms

     1    2


                                 NWChem DFT Module
                                 -----------------


                      Basis "ao basis" -> "cc-pvdz" (spherical)
                      -----
  O (Oxygen)
  ----------
            Exponent  Coefficients 
       -------------- ---------------------------------------------------------
  1 S  1.17200000E+04  0.000710
  1 S  1.75900000E+03  0.005470
  1 S  4.00800000E+02  0.027837
  1 S  1.13700000E+02  0.104800
  1 S  3.70300000E+01  0.283062
  1 S  1.32700000E+01  0.448719
  1 S  5.02500000E+00  0.270952
  1 S  1.01300000E+00  0.015458

  2 S  1.17200000E+04 -0.000160
  2 S  1.75900000E+03 -0.001263
  2 S  4.00800000E+02 -0.006267
  2 S  1.13700000E+02 -0.025716
  2 S  3.70300000E+01 -0.070924
  2 S  1.32700000E+01 -0.165411
  2 S  5.02500000E+00 -0.116955
  2 S  1.01300000E+00  0.557368

  3 S  3.02300000E-01  1.000000

  4 P  1.77000000E+01  0.043018
  4 P  3.85400000E+00  0.228913
  4 P  1.04600000E+00  0.508728

  5 P  2.75300000E-01  1.000000

  6 D  1.18500000E+00  1.000000

  H (Hydrogen)
  ------------
            Exponent  Coefficients 
       -------------- ---------------------------------------------------------
  1 S  1.30100000E+01  0.019685
  1 S  1.96200000E+00  0.137977
  1 S  4.44600000E-01  0.478148

  2 S  1.22000000E-01  1.000000

  3 P  7.27000000E-01  1.000000



 Summary of "ao basis" -> "cc-pvdz" (spherical)
 ------------------------------------------------------------------------------
       Tag                 Description            Shells   Functions and Types
 ---------------- ------------------------------  ------  ---------------------
 O                          cc-pvdz                  6       14   3s2p1d
 H                          cc-pvdz                  3        5   2s1p




 Summary of "ao basis" -> "cc-pvdz" (spherical)
 ------------------------------------------------------------------------------
       Tag                 Description            Shells   Functions and Types
 ---------------- ------------------------------  ------  ---------------------
 O                          cc-pvdz                  6       14   3s2p1d
 H                          cc-pvdz                  3        5   2s1p


      Symmetry analysis of basis
      --------------------------

        a1         11
        a2          2
        b1          7
        b2          4

  texas integral default override: limxmem =             50000000
  Caching 1-el integrals 

            General Information
            -------------------
          SCF calculation type: DFT
          Wavefunction type:  closed shell.
          No. of atoms     :     3
          No. of electrons :    10
           Alpha electrons :     5
            Beta electrons :     5
          Charge           :     0
          Spin multiplicity:     1
          Use of symmetry is: on ; symmetry adaption is: on 
          Maximum number of iterations:  30
          This is a Direct SCF calculation.
          AO basis - number of functions:    24
                     number of shells:    12
          Convergence on energy requested:  1.00D-06
          Convergence on density requested:  1.00D-05
          Convergence on gradient requested:  5.00D-04

              XC Information
              --------------
          PerdewBurkeErnzerhof Exchange Functional  1.000          
            Perdew 1991 LDA Correlation Functional  1.000 local    
           PerdewBurkeErnz. Correlation Functional  1.000 non-local

             Grid Information
             ----------------
          Grid used for XC integration:  medium    
          Radial quadrature: Mura-Knowles        
          Angular quadrature: Lebedev. 
          Tag              B.-S. Rad. Rad. Pts. Rad. Cut. Ang. Pts.
          ---              ---------- --------- --------- ---------
          O                   0.60       49           5.0       434
          H                   0.35       45           7.0       434
          Grid pruning is: on 
          Number of quadrature shells:    94
          Spatial weights used:  Erf1

          Convergence Information
          -----------------------
          Convergence aids based upon iterative change in 
          total energy or number of iterations. 
          Levelshifting, if invoked, occurs when the 
          HOMO/LUMO gap drops below (HL_TOL):  1.00D-02
          DIIS, if invoked, will attempt to extrapolate 
          using up to (NFOCK): 10 stored Fock matrices.

                    Damping( 0%)  Levelshifting(0.5)       DIIS
                  --------------- ------------------- ---------------
          dE  on:    start            ASAP                start   
          dE off:    2 iters         30 iters            30 iters 


      Screening Tolerance Information
      -------------------------------
          Density screening/tol_rho:  1.00D-10
          AO Gaussian exp screening on grid/accAOfunc:  14
          CD Gaussian exp screening on grid/accCDfunc:  20
          XC Gaussian exp screening on grid/accXCfunc:  20
          Schwarz screening/accCoul:  1.00D-08


      Superposition of Atomic Density Guess
      -------------------------------------

 Sum of atomic energies:         -75.76222910

      Non-variational initial energy
      ------------------------------

 Total energy =     -75.903647
 1-e energy   =    -121.596890
 2-e energy   =      36.608939
 HOMO         =      -0.465743
 LUMO         =       0.088266


      Symmetry analysis of molecular orbitals - initial
      -------------------------------------------------

  Numbering of irreducible representations: 

     1 a1          2 a2          3 b1          4 b2      

  Orbital symmetries:

     1 a1          2 a1          3 b1          4 a1          5 b2      
     6 a1          7 b1          8 b1          9 a1         10 a1      
    11 b2         12 b1         13 a1         14 a2         15 b2      

   Time after variat. SCF:      1.6
   Time prior to 1st pass:      1.6

 Grid_pts file          = ./h2o-dat.gridpts.0
 Record size in doubles =  12289        No. of grid_pts per rec  =   3070
 Max. records in memory =     16        Max. recs in file   =  15544656


           Memory utilization after 1st SCF pass: 
           Heap Space remaining (MW):       12.91            12908758
          Stack Space remaining (MW):      134.22           134217452

   convergence    iter        energy       DeltaE   RMS-Dens  Diis-err    time
 ---------------- ----- ----------------- --------- --------- ---------  ------
 d= 0,ls=0.0,diis     1    -76.2949623984 -8.54D+01  2.94D-02  3.93D-01     2.0
 d= 0,ls=0.0,diis     2    -76.2607872410  3.42D-02  1.79D-02  7.83D-01     2.1
 d= 0,ls=0.0,diis     3    -76.3325451772 -7.18D-02  2.21D-03  1.61D-02     2.2
 d= 0,ls=0.0,diis     4    -76.3339663322 -1.42D-03  2.06D-04  1.73D-04     2.3
 d= 0,ls=0.0,diis     5    -76.3339816805 -1.53D-05  1.65D-05  1.58D-07     2.4
 d= 0,ls=0.0,diis     6    -76.3339817046 -2.41D-08  2.11D-06  9.19D-09     2.5


         Total DFT energy =      -76.333981704580
      One electron energy =     -122.980735719147
           Coulomb energy =       46.831558035795
    Exchange-Corr. energy =       -9.269107373355
 Nuclear repulsion energy =        9.084303352127

 Numeric. integr. density =       10.000000477563

     Total iterative time =      0.9s



                  Occupations of the irreducible representations
                  ----------------------------------------------

                     irrep           alpha         beta
                     --------     --------     --------
                     a1                3.0          3.0
                     a2                0.0          0.0
                     b1                1.0          1.0
                     b2                1.0          1.0


                       DFT Final Molecular Orbital Analysis
                       ------------------------------------

 Vector    1  Occ=2.000000D+00  E=-1.874085D+01  Symmetry=a1
              MO Center=  1.1D-18,  7.1D-22, -1.2D-01, r^2= 1.5D-02
   Bfn.  Coefficient  Atom+Function         Bfn.  Coefficient  Atom+Function  
  ----- ------------  ---------------      ----- ------------  ---------------
     1      1.003563  1 O  s          

 Vector    2  Occ=2.000000D+00  E=-8.987178D-01  Symmetry=a1
              MO Center= -2.5D-16, -8.4D-17,  9.3D-02, r^2= 5.0D-01
   Bfn.  Coefficient  Atom+Function         Bfn.  Coefficient  Atom+Function  
  ----- ------------  ---------------      ----- ------------  ---------------
     2      0.439545  1 O  s                  3      0.351405  1 O  s          
    15      0.204655  2 H  s                 20      0.204655  3 H  s          
     6      0.122810  1 O  pz                17     -0.037031  2 H  px         
    22      0.037031  3 H  px         

 Vector    3  Occ=2.000000D+00  E=-4.528072D-01  Symmetry=b1
              MO Center= -8.4D-16, -7.0D-17,  1.2D-01, r^2= 7.9D-01
   Bfn.  Coefficient  Atom+Function         Bfn.  Coefficient  Atom+Function  
  ----- ------------  ---------------      ----- ------------  ---------------
     4      0.503814  1 O  px                15      0.330471  2 H  s          
    20     -0.330471  3 H  s                  7      0.196257  1 O  px         
    16      0.113465  2 H  s                 21     -0.113465  3 H  s          
    19     -0.028054  2 H  pz                24      0.028054  3 H  pz         

 Vector    4  Occ=2.000000D+00  E=-3.044609D-01  Symmetry=a1
              MO Center=  6.4D-16, -5.3D-16, -1.9D-01, r^2= 6.8D-01
   Bfn.  Coefficient  Atom+Function         Bfn.  Coefficient  Atom+Function  
  ----- ------------  ---------------      ----- ------------  ---------------
     6      0.541997  1 O  pz                 3     -0.387543  1 O  s          
     9      0.349429  1 O  pz                15      0.201699  2 H  s          
    20      0.201699  3 H  s                  2     -0.171381  1 O  s          
    16      0.052468  2 H  s                 21      0.052468  3 H  s          

 Vector    5  Occ=2.000000D+00  E=-2.241657D-01  Symmetry=b2
              MO Center=  2.5D-17,  4.3D-16, -9.3D-02, r^2= 6.0D-01
   Bfn.  Coefficient  Atom+Function         Bfn.  Coefficient  Atom+Function  
  ----- ------------  ---------------      ----- ------------  ---------------
     5      0.634264  1 O  py                 8      0.490479  1 O  py         
    18      0.033948  2 H  py                23      0.033948  3 H  py         

 Vector    6  Occ=0.000000D+00  E= 3.110603D-02  Symmetry=a1
              MO Center=  1.1D-14, -3.1D-18,  5.8D-01, r^2= 2.7D+00
   Bfn.  Coefficient  Atom+Function         Bfn.  Coefficient  Atom+Function  
  ----- ------------  ---------------      ----- ------------  ---------------
     3      0.867162  1 O  s                 16     -0.743418  2 H  s          
    21     -0.743418  3 H  s                  9      0.310327  1 O  pz         
     6      0.265856  1 O  pz                 2      0.143537  1 O  s          
    15     -0.129378  2 H  s                 20     -0.129378  3 H  s          

 Vector    7  Occ=0.000000D+00  E= 1.061694D-01  Symmetry=b1
              MO Center= -1.0D-14, -1.0D-32,  5.6D-01, r^2= 3.1D+00
   Bfn.  Coefficient  Atom+Function         Bfn.  Coefficient  Atom+Function  
  ----- ------------  ---------------      ----- ------------  ---------------
    16      1.252129  2 H  s                 21     -1.252129  3 H  s          
     7     -0.599277  1 O  px                 4     -0.394901  1 O  px         
    15      0.133941  2 H  s                 20     -0.133941  3 H  s          

 Vector    8  Occ=0.000000D+00  E= 5.115153D-01  Symmetry=b1
              MO Center= -2.7D-15, -5.6D-17,  3.0D-01, r^2= 2.0D+00
   Bfn.  Coefficient  Atom+Function         Bfn.  Coefficient  Atom+Function  
  ----- ------------  ---------------      ----- ------------  ---------------
    15      0.934233  2 H  s                 20     -0.934233  3 H  s          
    16     -0.917812  2 H  s                 21      0.917812  3 H  s          
     4     -0.291624  1 O  px                 7     -0.286051  1 O  px         
    19      0.129632  2 H  pz                24     -0.129632  3 H  pz         
    13     -0.104890  1 O  d  1              17      0.054469  2 H  px         

 Vector    9  Occ=0.000000D+00  E= 5.621404D-01  Symmetry=a1
              MO Center=  2.9D-15,  3.0D-17,  4.8D-01, r^2= 1.8D+00
   Bfn.  Coefficient  Atom+Function         Bfn.  Coefficient  Atom+Function  
  ----- ------------  ---------------      ----- ------------  ---------------
    15      0.814226  2 H  s                 20      0.814226  3 H  s          
    16     -0.633191  2 H  s                 21     -0.633191  3 H  s          
     6     -0.380806  1 O  pz                 3      0.342569  1 O  s          
    17      0.238807  2 H  px                22     -0.238807  3 H  px         
     2     -0.237530  1 O  s                 14      0.095072  1 O  d  2       

 Vector   10  Occ=0.000000D+00  E= 8.542069D-01  Symmetry=a1
              MO Center=  2.4D-16,  9.0D-17, -1.3D-01, r^2= 1.2D+00
   Bfn.  Coefficient  Atom+Function         Bfn.  Coefficient  Atom+Function  
  ----- ------------  ---------------      ----- ------------  ---------------
     9      1.223178  1 O  pz                 6     -0.752539  1 O  pz         
     3      0.607868  1 O  s                 15     -0.522532  2 H  s          
    20     -0.522532  3 H  s                 19      0.239700  2 H  pz         
    24      0.239700  3 H  pz                 2      0.149915  1 O  s          
    16     -0.083706  2 H  s                 21     -0.083706  3 H  s          

 Vector   11  Occ=0.000000D+00  E= 8.695158D-01  Symmetry=b2
              MO Center=  5.2D-16, -1.8D-17, -9.5D-02, r^2= 1.1D+00
   Bfn.  Coefficient  Atom+Function         Bfn.  Coefficient  Atom+Function  
  ----- ------------  ---------------      ----- ------------  ---------------
     8     -0.996146  1 O  py                 5      0.965500  1 O  py         
    18     -0.044253  2 H  py                23     -0.044253  3 H  py         

 Vector   12  Occ=0.000000D+00  E= 9.495086D-01  Symmetry=b1
              MO Center= -3.6D-16,  8.8D-17, -1.4D-01, r^2= 1.8D+00
   Bfn.  Coefficient  Atom+Function         Bfn.  Coefficient  Atom+Function  
  ----- ------------  ---------------      ----- ------------  ---------------
     7      1.756828  1 O  px                16     -0.836669  2 H  s          
    21      0.836669  3 H  s                  4     -0.750796  1 O  px         
    15     -0.369233  2 H  s                 20      0.369233  3 H  s          
    17      0.255439  2 H  px                22      0.255439  3 H  px         
    19      0.117060  2 H  pz                24     -0.117060  3 H  pz         

 Vector   13  Occ=0.000000D+00  E= 1.151163D+00  Symmetry=a1
              MO Center= -5.0D-16, -5.6D-17,  3.7D-02, r^2= 1.4D+00
   Bfn.  Coefficient  Atom+Function         Bfn.  Coefficient  Atom+Function  
  ----- ------------  ---------------      ----- ------------  ---------------
     9      0.746545  1 O  pz                 2      0.557034  1 O  s          
     3     -0.520192  1 O  s                 19     -0.517099  2 H  pz         
    24     -0.517099  3 H  pz                17      0.345660  2 H  px         
    22     -0.345660  3 H  px                15     -0.333244  2 H  s          
    20     -0.333244  3 H  s                 16      0.215419  2 H  s          

 Vector   14  Occ=0.000000D+00  E= 1.178132D+00  Symmetry=a2
              MO Center= -5.8D-15, -7.0D-17,  4.3D-01, r^2= 1.1D+00
   Bfn.  Coefficient  Atom+Function         Bfn.  Coefficient  Atom+Function  
  ----- ------------  ---------------      ----- ------------  ---------------
    18      0.681174  2 H  py                23     -0.681174  3 H  py         
    10      0.144199  1 O  d -2       

 Vector   15  Occ=0.000000D+00  E= 1.369047D+00  Symmetry=b2
              MO Center=  6.2D-15, -6.5D-18,  2.7D-01, r^2= 1.2D+00
   Bfn.  Coefficient  Atom+Function         Bfn.  Coefficient  Atom+Function  
  ----- ------------  ---------------      ----- ------------  ---------------
    18      0.757445  2 H  py                23      0.757445  3 H  py         
     8     -0.668790  1 O  py                11      0.175575  1 O  d -1       
     5      0.027854  1 O  py         

 Vector   16  Occ=0.000000D+00  E= 1.537965D+00  Symmetry=a1
              MO Center=  7.8D-16, -3.6D-17,  8.5D-02, r^2= 1.2D+00
   Bfn.  Coefficient  Atom+Function         Bfn.  Coefficient  Atom+Function  
  ----- ------------  ---------------      ----- ------------  ---------------
     3      2.981888  1 O  s                  2     -1.611031  1 O  s          
     9      0.994917  1 O  pz                15     -0.787028  2 H  s          
    20     -0.787028  3 H  s                  1     -0.730187  1 O  s          
    16     -0.400971  2 H  s                 21     -0.400971  3 H  s          
    17      0.347274  2 H  px                22     -0.347274  3 H  px         

 Vector   17  Occ=0.000000D+00  E= 1.605946D+00  Symmetry=b1
              MO Center=  2.4D-15,  1.6D-16,  4.0D-01, r^2= 1.3D+00
   Bfn.  Coefficient  Atom+Function         Bfn.  Coefficient  Atom+Function  
  ----- ------------  ---------------      ----- ------------  ---------------
     7      0.929211  1 O  px                19      0.703390  2 H  pz         
    24     -0.703390  3 H  pz                17     -0.449048  2 H  px         
    22     -0.449048  3 H  px                15     -0.385020  2 H  s          
    20      0.385020  3 H  s                 16     -0.113569  2 H  s          
    21      0.113569  3 H  s                 13      0.034561  1 O  d  1       

 Vector   18  Occ=0.000000D+00  E= 2.021833D+00  Symmetry=b1
              MO Center= -4.5D-14, -8.4D-17,  3.9D-01, r^2= 1.2D+00
   Bfn.  Coefficient  Atom+Function         Bfn.  Coefficient  Atom+Function  
  ----- ------------  ---------------      ----- ------------  ---------------
     4      0.755382  1 O  px                17      0.737450  2 H  px         
    22      0.737450  3 H  px                19      0.546620  2 H  pz         
    24     -0.546620  3 H  pz                16     -0.394425  2 H  s          
    21      0.394425  3 H  s                 15     -0.249725  2 H  s          
    20      0.249725  3 H  s                  7      0.199871  1 O  px         

 Vector   19  Occ=0.000000D+00  E= 2.059138D+00  Symmetry=a1
              MO Center=  4.6D-14,  3.2D-17,  3.8D-01, r^2= 1.0D+00
   Bfn.  Coefficient  Atom+Function         Bfn.  Coefficient  Atom+Function  
  ----- ------------  ---------------      ----- ------------  ---------------
     3      0.922098  1 O  s                 17      0.755381  2 H  px         
    22     -0.755381  3 H  px                 2      0.622599  1 O  s          
     6      0.619062  1 O  pz                19      0.549996  2 H  pz         
    24      0.549996  3 H  pz                15     -0.465194  2 H  s          
    20     -0.465194  3 H  s                  9      0.234453  1 O  pz         

 Vector   20  Occ=0.000000D+00  E= 2.826760D+00  Symmetry=b2
              MO Center=  1.1D-14,  9.7D-17, -4.6D-02, r^2= 6.0D-01
   Bfn.  Coefficient  Atom+Function         Bfn.  Coefficient  Atom+Function  
  ----- ------------  ---------------      ----- ------------  ---------------
    11      1.037703  1 O  d -1              18     -0.400739  2 H  py         
    23     -0.400739  3 H  py                 8      0.316416  1 O  py         

 Vector   21  Occ=0.000000D+00  E= 2.864399D+00  Symmetry=a2
              MO Center= -1.2D-14,  2.9D-17, -5.1D-02, r^2= 5.9D-01
   Bfn.  Coefficient  Atom+Function         Bfn.  Coefficient  Atom+Function  
  ----- ------------  ---------------      ----- ------------  ---------------
    10      1.059905  1 O  d -2              18     -0.370472  2 H  py         
    23      0.370472  3 H  py         

 Vector   22  Occ=0.000000D+00  E= 3.029829D+00  Symmetry=a1
              MO Center= -1.2D-15,  8.9D-18, -4.5D-02, r^2= 6.6D-01
   Bfn.  Coefficient  Atom+Function         Bfn.  Coefficient  Atom+Function  
  ----- ------------  ---------------      ----- ------------  ---------------
    12      1.069476  1 O  d  0               9      0.510829  1 O  pz         
     3      0.476338  1 O  s                 17      0.332553  2 H  px         
    19     -0.332941  2 H  pz                22     -0.332553  3 H  px         
    24     -0.332941  3 H  pz                15     -0.259747  2 H  s          
    20     -0.259747  3 H  s                 14     -0.223222  1 O  d  2       

 Vector   23  Occ=0.000000D+00  E= 3.363215D+00  Symmetry=a1
              MO Center=  5.2D-15,  5.2D-17, -7.2D-03, r^2= 7.9D-01
   Bfn.  Coefficient  Atom+Function         Bfn.  Coefficient  Atom+Function  
  ----- ------------  ---------------      ----- ------------  ---------------
     3      2.307662  1 O  s                 15     -1.213402  2 H  s          
    20     -1.213402  3 H  s                 14      1.144587  1 O  d  2       
     9      0.963283  1 O  pz                17      0.637823  2 H  px         
    22     -0.637823  3 H  px                19      0.486485  2 H  pz         
    24      0.486485  3 H  pz                 6      0.374710  1 O  pz         

 Vector   24  Occ=0.000000D+00  E= 3.635878D+00  Symmetry=b1
              MO Center= -7.7D-15, -1.6D-18, -8.1D-02, r^2= 8.1D-01
   Bfn.  Coefficient  Atom+Function         Bfn.  Coefficient  Atom+Function  
  ----- ------------  ---------------      ----- ------------  ---------------
    13      1.321194  1 O  d  1               7     -1.166791  1 O  px         
    15      1.050354  2 H  s                 20     -1.050354  3 H  s          
    17     -0.608231  2 H  px                22     -0.608231  3 H  px         
    19     -0.507565  2 H  pz                24      0.507565  3 H  pz         
     4     -0.430956  1 O  px                16      0.313949  2 H  s          


 center of mass
 --------------
 x =   0.00000000 y =   0.00000000 z =  -0.09932787

 moments of inertia (a.u.)
 ------------------
           2.276182099401           0.000000000000           0.000000000000
           0.000000000000           6.471760092361           0.000000000000
           0.000000000000           0.000000000000           4.195577992960

     Multipole analysis of the density
     ---------------------------------

     L   x y z        total         alpha         beta         nuclear
     -   - - -        -----         -----         ----         -------
     0   0 0 0     -0.000000     -5.000000     -5.000000     10.000000

     1   1 0 0      0.000000      0.000000      0.000000      0.000000
     1   0 1 0     -0.000000     -0.000000     -0.000000      0.000000
     1   0 0 1      0.737169      0.368585      0.368585      0.000000

     2   2 0 0     -3.213398     -3.688200     -3.688200      4.163002
     2   1 1 0     -0.000000     -0.000000     -0.000000      0.000000
     2   1 0 1     -0.000000     -0.000000     -0.000000      0.000000
     2   0 2 0     -5.213499     -2.606750     -2.606750      0.000000
     2   0 1 1      0.000000      0.000000      0.000000      0.000000
     2   0 0 2     -4.407669     -3.221083     -3.221083      2.034498


            General Information
            -------------------
          SCF calculation type: DFT
          Wavefunction type:  closed shell.
          No. of atoms     :     3
          No. of electrons :    10
           Alpha electrons :     5
            Beta electrons :     5
          Charge           :     0
          Spin multiplicity:     1
          Use of symmetry is: on ; symmetry adaption is: on 
          Maximum number of iterations:  30
          This is a Direct SCF calculation.
          AO basis - number of functions:    24
                     number of shells:    12
          Convergence on energy requested:  1.00D-06
          Convergence on density requested:  1.00D-05
          Convergence on gradient requested:  5.00D-04

              XC Information
              --------------
          PerdewBurkeErnzerhof Exchange Functional  1.000          
            Perdew 1991 LDA Correlation Functional  1.000 local    
           PerdewBurkeErnz. Correlation Functional  1.000 non-local

             Grid Information
             ----------------
          Grid used for XC integration:  medium    
          Radial quadrature: Mura-Knowles        
          Angular quadrature: Lebedev. 
          Tag              B.-S. Rad. Rad. Pts. Rad. Cut. Ang. Pts.
          ---              ---------- --------- --------- ---------
          O                   0.60       49           5.0       434
          H                   0.35       45           7.0       434
          Grid pruning is: on 
          Number of quadrature shells:    94
          Spatial weights used:  Erf1

          Convergence Information
          -----------------------
          Convergence aids based upon iterative change in 
          total energy or number of iterations. 
          Levelshifting, if invoked, occurs when the 
          HOMO/LUMO gap drops below (HL_TOL):  1.00D-02
          DIIS, if invoked, will attempt to extrapolate 
          using up to (NFOCK): 10 stored Fock matrices.

                    Damping( 0%)  Levelshifting(0.5)       DIIS
                  --------------- ------------------- ---------------
          dE  on:    start            ASAP                start   
          dE off:    2 iters         30 iters            30 iters 


      Screening Tolerance Information
      -------------------------------
          Density screening/tol_rho:  1.00D-10
          AO Gaussian exp screening on grid/accAOfunc:  14
          CD Gaussian exp screening on grid/accCDfunc:  20
          XC Gaussian exp screening on grid/accXCfunc:  20
          Schwarz screening/accCoul:  1.00D-08

  texas integral default override: limxmem =             50000000
  texas integral default override: limxmem =             50000000


                            NWChem DFT Gradient Module
                            --------------------------



  charge          =   0.00
  wavefunction    = closed shell

  Using symmetry
  texas integral default override: limxmem =             50000000
  texas integral default override: limxmem =             50000000


                         DFT ENERGY GRADIENTS

    atom               coordinates                        gradient
                 x          y          z           x          y          z
   1 O       0.000000   0.000000  -0.225527    0.000000   0.000000   0.012339
   2 H       1.442741   0.000000   0.902108   -0.003006   0.000000  -0.006169
   3 H      -1.442741   0.000000   0.902108    0.003006  -0.000000  -0.006169

                 ----------------------------------------
                 |  Time  |  1-e(secs)   |  2-e(secs)   |
                 ----------------------------------------
                 |  CPU   |       0.00   |       0.12   |
                 ----------------------------------------
                 |  WALL  |       0.00   |       0.13   |
                 ----------------------------------------
  no constraints, skipping    0.0000000000000000     

@ Step       Energy      Delta E   Gmax     Grms     Xrms     Xmax   Walltime
@ ---- ---------------- -------- -------- -------- -------- -------- --------
@    0     -76.33398170  0.0D+00  0.00617  0.00531  0.00000  0.00000      2.7
                                                                    



                                Z-matrix (autoz)
                                -------- 

 Units are Angstrom for bonds and degrees for angles

      Type          Name      I     J     K     L     M      Value     Gradient
      ----------- --------  ----- ----- ----- ----- ----- ---------- ----------
    1 Stretch                  1     2                       0.96900   -0.00617
    2 Stretch                  1     3                       0.96900   -0.00617
    3 Bend                     2     1     3               103.97818    0.00292

  no constraints, skipping    0.0000000000000000     
  no constraints, skipping    0.0000000000000000     
  no constraints, skipping    0.0000000000000000     
  no constraints, skipping    0.0000000000000000     

                                 NWChem DFT Module
                                 -----------------




 Summary of "ao basis" -> "cc-pvdz" (spherical)
 ------------------------------------------------------------------------------
       Tag                 Description            Shells   Functions and Types
 ---------------- ------------------------------  ------  ---------------------
 O                          cc-pvdz                  6       14   3s2p1d
 H                          cc-pvdz                  3        5   2s1p


      Symmetry analysis of basis
      --------------------------

        a1         11
        a2          2
        b1          7
        b2          4

  texas integral default override: limxmem =             50000000
  Caching 1-el integrals 

            General Information
            -------------------
          SCF calculation type: DFT
          Wavefunction type:  closed shell.
          No. of atoms     :     3
          No. of electrons :    10
           Alpha electrons :     5
            Beta electrons :     5
          Charge           :     0
          Spin multiplicity:     1
          Use of symmetry is: on ; symmetry adaption is: on 
          Maximum number of iterations:  30
          This is a Direct SCF calculation.
          AO basis - number of functions:    24
                     number of shells:    12
          Convergence on energy requested:  1.00D-06
          Convergence on density requested:  1.00D-05
          Convergence on gradient requested:  5.00D-04

              XC Information
              --------------
          PerdewBurkeErnzerhof Exchange Functional  1.000          
            Perdew 1991 LDA Correlation Functional  1.000 local    
           PerdewBurkeErnz. Correlation Functional  1.000 non-local

             Grid Information
             ----------------
          Grid used for XC integration:  medium    
          Radial quadrature: Mura-Knowles        
          Angular quadrature: Lebedev. 
          Tag              B.-S. Rad. Rad. Pts. Rad. Cut. Ang. Pts.
          ---              ---------- --------- --------- ---------
          O                   0.60       49           5.0       434
          H                   0.35       45           7.0       434
          Grid pruning is: on 
          Number of quadrature shells:    94
          Spatial weights used:  Erf1

          Convergence Information
          -----------------------
          Convergence aids based upon iterative change in 
          total energy or number of iterations. 
          Levelshifting, if invoked, occurs when the 
          HOMO/LUMO gap drops below (HL_TOL):  1.00D-02
          DIIS, if invoked, will attempt to extrapolate 
          using up to (NFOCK): 10 stored Fock matrices.

                    Damping( 0%)  Levelshifting(0.5)       DIIS
                  --------------- ------------------- ---------------
          dE  on:    start            ASAP                start   
          dE off:    2 iters         30 iters            30 iters 


      Screening Tolerance Information
      -------------------------------
          Density screening/tol_rho:  1.00D-10
          AO Gaussian exp screening on grid/accAOfunc:  14
          CD Gaussian exp screening on grid/accCDfunc:  20
          XC Gaussian exp screening on grid/accXCfunc:  20
          Schwarz screening/accCoul:  1.00D-08


 Loading old vectors from job with title :




      Symmetry analysis of molecular orbitals - initial
      -------------------------------------------------

  Numbering of irreducible representations: 

     1 a1          2 a2          3 b1          4 b2      

  Orbital symmetries:

     1 a1          2 a1          3 b1          4 a1          5 b2      
     6 a1          7 b1          8 b1          9 a1         10 a1      
    11 b2         12 b1         13 a1         14 a2         15 b2      

   Time after variat. SCF:      2.8
   Time prior to 1st pass:      2.8

 Grid_pts file          = ./h2o-dat.gridpts.0
 Record size in doubles =  12289        No. of grid_pts per rec  =   3070
 Max. records in memory =     16        Max. recs in file   =  15544656


           Memory utilization after 1st SCF pass: 
           Heap Space remaining (MW):       12.91            12908758
          Stack Space remaining (MW):      134.22           134217452

   convergence    iter        energy       DeltaE   RMS-Dens  Diis-err    time
 ---------------- ----- ----------------- --------- --------- ---------  ------
 d= 0,ls=0.0,diis     1    -76.3340449841 -8.53D+01  1.74D-03  7.70D-04     2.9
 d= 0,ls=0.0,diis     2    -76.3341678287 -1.23D-04  4.72D-04  1.92D-04     3.0
 d= 0,ls=0.0,diis     3    -76.3341672716  5.57D-07  2.46D-04  2.03D-04     3.1
 d= 0,ls=0.0,diis     4    -76.3341853528 -1.81D-05  1.57D-05  7.43D-07     3.2
 d= 0,ls=0.0,diis     5    -76.3341854202 -6.74D-08  1.29D-06  3.88D-09     3.3


         Total DFT energy =      -76.334185420187
      One electron energy =     -122.843818983979
           Coulomb energy =       46.759329457945
    Exchange-Corr. energy =       -9.261473840913
 Nuclear repulsion energy =        9.011777946759

 Numeric. integr. density =        9.999999969066

     Total iterative time =      0.5s



                  Occupations of the irreducible representations
                  ----------------------------------------------

                     irrep           alpha         beta
                     --------     --------     --------
                     a1                3.0          3.0
                     a2                0.0          0.0
                     b1                1.0          1.0
                     b2                1.0          1.0


                       DFT Final Molecular Orbital Analysis
                       ------------------------------------

 Vector    1  Occ=2.000000D+00  E=-1.874332D+01  Symmetry=a1
              MO Center= -4.0D-19,  6.4D-22, -1.3D-01, r^2= 1.5D-02
   Bfn.  Coefficient  Atom+Function         Bfn.  Coefficient  Atom+Function  
  ----- ------------  ---------------      ----- ------------  ---------------
     1      1.003542  1 O  s          

 Vector    2  Occ=2.000000D+00  E=-8.972701D-01  Symmetry=a1
              MO Center=  7.7D-16, -2.1D-16,  8.4D-02, r^2= 5.0D-01
   Bfn.  Coefficient  Atom+Function         Bfn.  Coefficient  Atom+Function  
  ----- ------------  ---------------      ----- ------------  ---------------
     2      0.440091  1 O  s                  3      0.355227  1 O  s          
    15      0.202682  2 H  s                 20      0.202682  3 H  s          
     6      0.124053  1 O  pz                17     -0.036086  2 H  px         
    22      0.036086  3 H  px         

 Vector    3  Occ=2.000000D+00  E=-4.461429D-01  Symmetry=b1
              MO Center= -6.9D-16,  1.9D-31,  1.1D-01, r^2= 8.0D-01
   Bfn.  Coefficient  Atom+Function         Bfn.  Coefficient  Atom+Function  
  ----- ------------  ---------------      ----- ------------  ---------------
     4      0.504358  1 O  px                15      0.327396  2 H  s          
    20     -0.327396  3 H  s                  7      0.202542  1 O  px         
    16      0.117138  2 H  s                 21     -0.117138  3 H  s          
    19     -0.028218  2 H  pz                24      0.028218  3 H  pz         

 Vector    4  Occ=2.000000D+00  E=-3.089203D-01  Symmetry=a1
              MO Center= -5.1D-17,  1.2D-17, -2.0D-01, r^2= 6.8D-01
   Bfn.  Coefficient  Atom+Function         Bfn.  Coefficient  Atom+Function  
  ----- ------------  ---------------      ----- ------------  ---------------
     6      0.537840  1 O  pz                 3     -0.392992  1 O  s          
     9      0.342907  1 O  pz                15      0.206471  2 H  s          
    20      0.206471  3 H  s                  2     -0.174049  1 O  s          
    16      0.054447  2 H  s                 21      0.054447  3 H  s          

 Vector    5  Occ=2.000000D+00  E=-2.242367D-01  Symmetry=b2
              MO Center= -8.1D-17,  3.0D-16, -1.1D-01, r^2= 6.0D-01
   Bfn.  Coefficient  Atom+Function         Bfn.  Coefficient  Atom+Function  
  ----- ------------  ---------------      ----- ------------  ---------------
     5      0.634754  1 O  py                 8      0.490388  1 O  py         
    18      0.033936  2 H  py                23      0.033936  3 H  py         

 Vector    6  Occ=0.000000D+00  E= 2.844149D-02  Symmetry=a1
              MO Center=  6.6D-15, -1.6D-16,  5.8D-01, r^2= 2.6D+00
   Bfn.  Coefficient  Atom+Function         Bfn.  Coefficient  Atom+Function  
  ----- ------------  ---------------      ----- ------------  ---------------
     3      0.852553  1 O  s                 16     -0.736890  2 H  s          
    21     -0.736890  3 H  s                  9      0.317968  1 O  pz         
     6      0.273873  1 O  pz                 2      0.142041  1 O  s          
    15     -0.129075  2 H  s                 20     -0.129075  3 H  s          

 Vector    7  Occ=0.000000D+00  E= 1.033272D-01  Symmetry=b1
              MO Center= -6.1D-15, -1.6D-31,  5.6D-01, r^2= 3.0D+00
   Bfn.  Coefficient  Atom+Function         Bfn.  Coefficient  Atom+Function  
  ----- ------------  ---------------      ----- ------------  ---------------
    16      1.240742  2 H  s                 21     -1.240742  3 H  s          
     7     -0.597282  1 O  px                 4     -0.399392  1 O  px         
    15      0.143381  2 H  s                 20     -0.143381  3 H  s          

 Vector    8  Occ=0.000000D+00  E= 5.010548D-01  Symmetry=b1
              MO Center=  7.3D-16, -9.4D-17,  3.1D-01, r^2= 2.1D+00
   Bfn.  Coefficient  Atom+Function         Bfn.  Coefficient  Atom+Function  
  ----- ------------  ---------------      ----- ------------  ---------------
    16     -0.943804  2 H  s                 21      0.943804  3 H  s          
    15      0.932797  2 H  s                 20     -0.932797  3 H  s          
     4     -0.281501  1 O  px                 7     -0.272993  1 O  px         
    19      0.121841  2 H  pz                24     -0.121841  3 H  pz         
    13     -0.103524  1 O  d  1              17      0.051912  2 H  px         

 Vector    9  Occ=0.000000D+00  E= 5.633673D-01  Symmetry=a1
              MO Center= -1.2D-15, -7.9D-17,  4.8D-01, r^2= 1.8D+00
   Bfn.  Coefficient  Atom+Function         Bfn.  Coefficient  Atom+Function  
  ----- ------------  ---------------      ----- ------------  ---------------
    15      0.806063  2 H  s                 20      0.806063  3 H  s          
    16     -0.641545  2 H  s                 21     -0.641545  3 H  s          
     6     -0.400352  1 O  pz                 3      0.373979  1 O  s          
     2     -0.243299  1 O  s                 17      0.234113  2 H  px         
    22     -0.234113  3 H  px                14      0.092284  1 O  d  2       

 Vector   10  Occ=0.000000D+00  E= 8.573206D-01  Symmetry=a1
              MO Center= -1.1D-15, -1.7D-17, -1.4D-01, r^2= 1.2D+00
   Bfn.  Coefficient  Atom+Function         Bfn.  Coefficient  Atom+Function  
  ----- ------------  ---------------      ----- ------------  ---------------
     9      1.218005  1 O  pz                 6     -0.738558  1 O  pz         
     3      0.568321  1 O  s                 15     -0.535335  2 H  s          
    20     -0.535335  3 H  s                 19      0.247474  2 H  pz         
    24      0.247474  3 H  pz                 2      0.170172  1 O  s          
    16     -0.067810  2 H  s                 21     -0.067810  3 H  s          

 Vector   11  Occ=0.000000D+00  E= 8.684905D-01  Symmetry=b2
              MO Center= -2.5D-16, -1.1D-19, -1.0D-01, r^2= 1.1D+00
   Bfn.  Coefficient  Atom+Function         Bfn.  Coefficient  Atom+Function  
  ----- ------------  ---------------      ----- ------------  ---------------
     8     -0.989611  1 O  py                 5      0.964621  1 O  py         
    18     -0.052064  2 H  py                23     -0.052064  3 H  py         

 Vector   12  Occ=0.000000D+00  E= 9.507550D-01  Symmetry=b1
              MO Center=  6.7D-16,  9.1D-17, -1.5D-01, r^2= 1.8D+00
   Bfn.  Coefficient  Atom+Function         Bfn.  Coefficient  Atom+Function  
  ----- ------------  ---------------      ----- ------------  ---------------
     7      1.737820  1 O  px                16     -0.830919  2 H  s          
    21      0.830919  3 H  s                  4     -0.762052  1 O  px         
    15     -0.353652  2 H  s                 20      0.353652  3 H  s          
    17      0.245598  2 H  px                22      0.245598  3 H  px         
    19      0.125438  2 H  pz                24     -0.125438  3 H  pz         

 Vector   13  Occ=0.000000D+00  E= 1.131913D+00  Symmetry=a1
              MO Center= -8.0D-16, -1.8D-17,  3.0D-02, r^2= 1.4D+00
   Bfn.  Coefficient  Atom+Function         Bfn.  Coefficient  Atom+Function  
  ----- ------------  ---------------      ----- ------------  ---------------
     9      0.789011  1 O  pz                 2      0.506232  1 O  s          
    19     -0.493138  2 H  pz                24     -0.493138  3 H  pz         
     3     -0.393405  1 O  s                 17      0.378116  2 H  px         
    22     -0.378116  3 H  px                15     -0.365486  2 H  s          
    20     -0.365486  3 H  s                 16      0.193497  2 H  s          

 Vector   14  Occ=0.000000D+00  E= 1.183568D+00  Symmetry=a2
              MO Center= -4.1D-15, -8.6D-17,  4.4D-01, r^2= 1.0D+00
   Bfn.  Coefficient  Atom+Function         Bfn.  Coefficient  Atom+Function  
  ----- ------------  ---------------      ----- ------------  ---------------
    18      0.682608  2 H  py                23     -0.682608  3 H  py         
    10      0.145734  1 O  d -2       

 Vector   15  Occ=0.000000D+00  E= 1.355923D+00  Symmetry=b2
              MO Center=  5.2D-15, -7.4D-18,  2.7D-01, r^2= 1.2D+00
   Bfn.  Coefficient  Atom+Function         Bfn.  Coefficient  Atom+Function  
  ----- ------------  ---------------      ----- ------------  ---------------
    18      0.752246  2 H  py                23      0.752246  3 H  py         
     8     -0.671326  1 O  py                11      0.175807  1 O  d -1       
     5      0.042766  1 O  py         

 Vector   16  Occ=0.000000D+00  E= 1.534361D+00  Symmetry=a1
              MO Center=  4.2D-16,  3.7D-17,  7.2D-02, r^2= 1.2D+00
   Bfn.  Coefficient  Atom+Function         Bfn.  Coefficient  Atom+Function  
  ----- ------------  ---------------      ----- ------------  ---------------
     3      2.982222  1 O  s                  2     -1.633447  1 O  s          
     9      0.995432  1 O  pz                15     -0.781137  2 H  s          
    20     -0.781137  3 H  s                  1     -0.739711  1 O  s          
    16     -0.398718  2 H  s                 21     -0.398718  3 H  s          
    17      0.327700  2 H  px                22     -0.327700  3 H  px         

 Vector   17  Occ=0.000000D+00  E= 1.609969D+00  Symmetry=b1
              MO Center=  1.3D-15,  7.8D-17,  4.1D-01, r^2= 1.3D+00
   Bfn.  Coefficient  Atom+Function         Bfn.  Coefficient  Atom+Function  
  ----- ------------  ---------------      ----- ------------  ---------------
     7      0.886219  1 O  px                19      0.714964  2 H  pz         
    24     -0.714964  3 H  pz                17     -0.439810  2 H  px         
    22     -0.439810  3 H  px                15     -0.360079  2 H  s          
    20      0.360079  3 H  s                 16     -0.112405  2 H  s          
    21      0.112405  3 H  s                 13      0.037256  1 O  d  1       

 Vector   18  Occ=0.000000D+00  E= 2.001137D+00  Symmetry=b1
              MO Center= -3.9D-16, -3.1D-17,  3.9D-01, r^2= 1.2D+00
   Bfn.  Coefficient  Atom+Function         Bfn.  Coefficient  Atom+Function  
  ----- ------------  ---------------      ----- ------------  ---------------
    17      0.746633  2 H  px                22      0.746633  3 H  px         
     4      0.732715  1 O  px                19      0.523835  2 H  pz         
    24     -0.523835  3 H  pz                16     -0.396731  2 H  s          
    21      0.396731  3 H  s                 15     -0.223040  2 H  s          
    20      0.223040  3 H  s                  7      0.163394  1 O  px         

 Vector   19  Occ=0.000000D+00  E= 2.043759D+00  Symmetry=a1
              MO Center=  1.3D-15, -1.2D-17,  3.9D-01, r^2= 1.0D+00
   Bfn.  Coefficient  Atom+Function         Bfn.  Coefficient  Atom+Function  
  ----- ------------  ---------------      ----- ------------  ---------------
     3      0.936392  1 O  s                 17      0.734232  2 H  px         
    22     -0.734232  3 H  px                 6      0.625831  1 O  pz         
     2      0.584908  1 O  s                 19      0.573002  2 H  pz         
    24      0.573002  3 H  pz                15     -0.452919  2 H  s          
    20     -0.452919  3 H  s                  9      0.236148  1 O  pz         

 Vector   20  Occ=0.000000D+00  E= 2.830153D+00  Symmetry=b2
              MO Center=  2.1D-14,  9.6D-17, -5.7D-02, r^2= 6.0D-01
   Bfn.  Coefficient  Atom+Function         Bfn.  Coefficient  Atom+Function  
  ----- ------------  ---------------      ----- ------------  ---------------
    11      1.037886  1 O  d -1              18     -0.398994  2 H  py         
    23     -0.398994  3 H  py                 8      0.313964  1 O  py         

 Vector   21  Occ=0.000000D+00  E= 2.848372D+00  Symmetry=a2
              MO Center= -2.2D-14,  4.5D-17, -6.4D-02, r^2= 5.9D-01
   Bfn.  Coefficient  Atom+Function         Bfn.  Coefficient  Atom+Function  
  ----- ------------  ---------------      ----- ------------  ---------------
    10      1.054782  1 O  d -2              18     -0.362317  2 H  py         
    23      0.362317  3 H  py         

 Vector   22  Occ=0.000000D+00  E= 3.022799D+00  Symmetry=a1
              MO Center=  1.4D-17,  1.1D-17, -5.5D-02, r^2= 6.6D-01
   Bfn.  Coefficient  Atom+Function         Bfn.  Coefficient  Atom+Function  
  ----- ------------  ---------------      ----- ------------  ---------------
    12      1.045014  1 O  d  0               9      0.439120  1 O  pz         
    19     -0.350242  2 H  pz                24     -0.350242  3 H  pz         
    14     -0.324694  1 O  d  2               3      0.317714  1 O  s          
    17      0.288854  2 H  px                22     -0.288854  3 H  px         
    15     -0.182723  2 H  s                 20     -0.182723  3 H  s          

 Vector   23  Occ=0.000000D+00  E= 3.342794D+00  Symmetry=a1
              MO Center=  5.2D-15,  4.1D-17, -2.5D-02, r^2= 7.9D-01
   Bfn.  Coefficient  Atom+Function         Bfn.  Coefficient  Atom+Function  
  ----- ------------  ---------------      ----- ------------  ---------------
     3      2.311684  1 O  s                 15     -1.205259  2 H  s          
    20     -1.205259  3 H  s                 14      1.107598  1 O  d  2       
     9      1.016182  1 O  pz                17      0.637555  2 H  px         
    22     -0.637555  3 H  px                19      0.467086  2 H  pz         
    24      0.467086  3 H  pz                 6      0.361539  1 O  pz         

 Vector   24  Occ=0.000000D+00  E= 3.638536D+00  Symmetry=b1
              MO Center= -7.2D-15, -2.1D-18, -8.8D-02, r^2= 8.1D-01
   Bfn.  Coefficient  Atom+Function         Bfn.  Coefficient  Atom+Function  
  ----- ------------  ---------------      ----- ------------  ---------------
    13      1.321740  1 O  d  1               7     -1.136295  1 O  px         
    15      1.020380  2 H  s                 20     -1.020380  3 H  s          
    17     -0.593209  2 H  px                22     -0.593209  3 H  px         
    19     -0.525276  2 H  pz                24      0.525276  3 H  pz         
     4     -0.411148  1 O  px                16      0.312223  2 H  s          


 center of mass
 --------------
 x =   0.00000000 y =   0.00000000 z =  -0.12113921

 moments of inertia (a.u.)
 ------------------
           2.437676728000           0.000000000000           0.000000000000
           0.000000000000           6.569260247362           0.000000000000
           0.000000000000           0.000000000000           4.131583519361

     Multipole analysis of the density
     ---------------------------------

     L   x y z        total         alpha         beta         nuclear
     -   - - -        -----         -----         ----         -------
     0   0 0 0     -0.000000     -5.000000     -5.000000     10.000000

     1   1 0 0     -0.000000     -0.000000     -0.000000      0.000000
     1   0 1 0     -0.000000     -0.000000     -0.000000      0.000000
     1   0 0 1      0.749535      0.466508      0.466508     -0.183481

     2   2 0 0     -3.276884     -3.688195     -3.688195      4.099505
     2   1 1 0     -0.000000     -0.000000     -0.000000      0.000000
     2   1 0 1      0.000000      0.000000      0.000000      0.000000
     2   0 2 0     -5.225967     -2.612983     -2.612983      0.000000
     2   0 1 1      0.000000      0.000000      0.000000      0.000000
     2   0 0 2     -4.395074     -3.288643     -3.288643      2.182212

 Line search: 
     step= 1.00 grad=-4.2D-04 hess= 2.2D-04 energy=    -76.334185 mode=accept  
 new step= 1.00                   predicted energy=    -76.334185
  no constraints, skipping    0.0000000000000000     
  no constraints, skipping    0.0000000000000000     
  no constraints, skipping    0.0000000000000000     
  no constraints, skipping    0.0000000000000000     

          --------
          Step   1
          --------


                         Geometry "geometry" -> "geometry"
                         ---------------------------------

 Output coordinates in angstroms (scale by  1.889725989 to convert to a.u.)

  No.       Tag          Charge          X              Y              Z
 ---- ---------------- ---------- -------------- -------------- --------------
    1 O                    8.0000     0.00000000     0.00000000    -0.13321433
    2 H                    1.0000     0.75762077     0.00000000     0.48431041
    3 H                    1.0000    -0.75762077     0.00000000     0.48431041

      Atomic Mass 
      ----------- 

      O                 15.994910
      H                  1.007825


 Effective nuclear repulsion energy (a.u.)       9.0117779468

            Nuclear Dipole moment (a.u.) 
            ----------------------------
        X                 Y               Z
 ---------------- ---------------- ----------------
     0.0000000000     0.0000000000    -0.1834807349

      Symmetry information
      --------------------

 Group name             C2v       
 Group number             16
 Group order               4
 No. of unique centers     2

      Symmetry unique atoms

     1    2


                                 NWChem DFT Module
                                 -----------------




 Summary of "ao basis" -> "cc-pvdz" (spherical)
 ------------------------------------------------------------------------------
       Tag                 Description            Shells   Functions and Types
 ---------------- ------------------------------  ------  ---------------------
 O                          cc-pvdz                  6       14   3s2p1d
 H                          cc-pvdz                  3        5   2s1p


      Symmetry analysis of basis
      --------------------------

        a1         11
        a2          2
        b1          7
        b2          4


  The DFT is already converged 

         Total DFT energy =    -76.334185420187


            General Information
            -------------------
          SCF calculation type: DFT
          Wavefunction type:  closed shell.
          No. of atoms     :     3
          No. of electrons :    10
           Alpha electrons :     5
            Beta electrons :     5
          Charge           :     0
          Spin multiplicity:     1
          Use of symmetry is: on ; symmetry adaption is: on 
          Maximum number of iterations:  30
          This is a Direct SCF calculation.
          AO basis - number of functions:    24
                     number of shells:    12
          Convergence on energy requested:  1.00D-06
          Convergence on density requested:  1.00D-05
          Convergence on gradient requested:  5.00D-04

              XC Information
              --------------
          PerdewBurkeErnzerhof Exchange Functional  1.000          
            Perdew 1991 LDA Correlation Functional  1.000 local    
           PerdewBurkeErnz. Correlation Functional  1.000 non-local

             Grid Information
             ----------------
          Grid used for XC integration:  medium    
          Radial quadrature: Mura-Knowles        
          Angular quadrature: Lebedev. 
          Tag              B.-S. Rad. Rad. Pts. Rad. Cut. Ang. Pts.
          ---              ---------- --------- --------- ---------
          O                   0.60       49           5.0       434
          H                   0.35       45           7.0       434
          Grid pruning is: on 
          Number of quadrature shells:    94
          Spatial weights used:  Erf1

          Convergence Information
          -----------------------
          Convergence aids based upon iterative change in 
          total energy or number of iterations. 
          Levelshifting, if invoked, occurs when the 
          HOMO/LUMO gap drops below (HL_TOL):  1.00D-02
          DIIS, if invoked, will attempt to extrapolate 
          using up to (NFOCK): 10 stored Fock matrices.

                    Damping( 0%)  Levelshifting(0.5)       DIIS
                  --------------- ------------------- ---------------
          dE  on:    start            ASAP                start   
          dE off:    2 iters         30 iters            30 iters 


      Screening Tolerance Information
      -------------------------------
          Density screening/tol_rho:  1.00D-10
          AO Gaussian exp screening on grid/accAOfunc:  14
          CD Gaussian exp screening on grid/accCDfunc:  20
          XC Gaussian exp screening on grid/accXCfunc:  20
          Schwarz screening/accCoul:  1.00D-08

  texas integral default override: limxmem =             50000000
  texas integral default override: limxmem =             50000000


                            NWChem DFT Gradient Module
                            --------------------------



  charge          =   0.00
  wavefunction    = closed shell

  Using symmetry
  texas integral default override: limxmem =             50000000
  texas integral default override: limxmem =             50000000


                         DFT ENERGY GRADIENTS

    atom               coordinates                        gradient
                 x          y          z           x          y          z
   1 O       0.000000   0.000000  -0.251739    0.000000   0.000000  -0.000496
   2 H       1.431696   0.000000   0.915214    0.000269   0.000000   0.000248
   3 H      -1.431696   0.000000   0.915214   -0.000269  -0.000000   0.000248

                 ----------------------------------------
                 |  Time  |  1-e(secs)   |  2-e(secs)   |
                 ----------------------------------------
                 |  CPU   |       0.00   |       0.12   |
                 ----------------------------------------
                 |  WALL  |       0.00   |       0.13   |
                 ----------------------------------------
  no constraints, skipping    0.0000000000000000     

  Step       Energy      Delta E   Gmax     Grms     Xrms     Xmax   Walltime
  ---- ---------------- -------- -------- -------- -------- -------- --------
@    1     -76.33418542 -2.0D-04  0.00037  0.00030  0.01201  0.02622      3.5
                                     ok       ok                    



                                Z-matrix (autoz)
                                -------- 

 Units are Angstrom for bonds and degrees for angles

      Type          Name      I     J     K     L     M      Value     Gradient
      ----------- --------  ----- ----- ----- ----- ----- ---------- ----------
    1 Stretch                  1     2                       0.97741    0.00037
    2 Stretch                  1     3                       0.97741    0.00037
    3 Bend                     2     1     3               101.63413   -0.00002

  no constraints, skipping    0.0000000000000000     
  no constraints, skipping    0.0000000000000000     
  no constraints, skipping    0.0000000000000000     

                                 NWChem DFT Module
                                 -----------------




 Summary of "ao basis" -> "cc-pvdz" (spherical)
 ------------------------------------------------------------------------------
       Tag                 Description            Shells   Functions and Types
 ---------------- ------------------------------  ------  ---------------------
 O                          cc-pvdz                  6       14   3s2p1d
 H                          cc-pvdz                  3        5   2s1p


      Symmetry analysis of basis
      --------------------------

        a1         11
        a2          2
        b1          7
        b2          4

  texas integral default override: limxmem =             50000000
  Caching 1-el integrals 

            General Information
            -------------------
          SCF calculation type: DFT
          Wavefunction type:  closed shell.
          No. of atoms     :     3
          No. of electrons :    10
           Alpha electrons :     5
            Beta electrons :     5
          Charge           :     0
          Spin multiplicity:     1
          Use of symmetry is: on ; symmetry adaption is: on 
          Maximum number of iterations:  30
          This is a Direct SCF calculation.
          AO basis - number of functions:    24
                     number of shells:    12
          Convergence on energy requested:  1.00D-06
          Convergence on density requested:  1.00D-05
          Convergence on gradient requested:  5.00D-04

              XC Information
              --------------
          PerdewBurkeErnzerhof Exchange Functional  1.000          
            Perdew 1991 LDA Correlation Functional  1.000 local    
           PerdewBurkeErnz. Correlation Functional  1.000 non-local

             Grid Information
             ----------------
          Grid used for XC integration:  medium    
          Radial quadrature: Mura-Knowles        
          Angular quadrature: Lebedev. 
          Tag              B.-S. Rad. Rad. Pts. Rad. Cut. Ang. Pts.
          ---              ---------- --------- --------- ---------
          O                   0.60       49           5.0       434
          H                   0.35       45           7.0       434
          Grid pruning is: on 
          Number of quadrature shells:    94
          Spatial weights used:  Erf1

          Convergence Information
          -----------------------
          Convergence aids based upon iterative change in 
          total energy or number of iterations. 
          Levelshifting, if invoked, occurs when the 
          HOMO/LUMO gap drops below (HL_TOL):  1.00D-02
          DIIS, if invoked, will attempt to extrapolate 
          using up to (NFOCK): 10 stored Fock matrices.

                    Damping( 0%)  Levelshifting(0.5)       DIIS
                  --------------- ------------------- ---------------
          dE  on:    start            ASAP                start   
          dE off:    2 iters         30 iters            30 iters 


      Screening Tolerance Information
      -------------------------------
          Density screening/tol_rho:  1.00D-10
          AO Gaussian exp screening on grid/accAOfunc:  14
          CD Gaussian exp screening on grid/accCDfunc:  20
          XC Gaussian exp screening on grid/accXCfunc:  20
          Schwarz screening/accCoul:  1.00D-08


 Loading old vectors from job with title :




      Symmetry analysis of molecular orbitals - initial
      -------------------------------------------------

  Numbering of irreducible representations: 

     1 a1          2 a2          3 b1          4 b2      

  Orbital symmetries:

     1 a1          2 a1          3 b1          4 a1          5 b2      
     6 a1          7 b1          8 b1          9 a1         10 a1      
    11 b2         12 b1         13 a1         14 a2         15 b2      

   Time after variat. SCF:      3.6
   Time prior to 1st pass:      3.6

 Grid_pts file          = ./h2o-dat.gridpts.0
 Record size in doubles =  12289        No. of grid_pts per rec  =   3070
 Max. records in memory =     16        Max. recs in file   =  15544656


           Memory utilization after 1st SCF pass: 
           Heap Space remaining (MW):       12.91            12908758
          Stack Space remaining (MW):      134.22           134217452

   convergence    iter        energy       DeltaE   RMS-Dens  Diis-err    time
 ---------------- ----- ----------------- --------- --------- ---------  ------
 d= 0,ls=0.0,diis     1    -76.3341856013 -8.53D+01  4.81D-05  7.49D-07     3.7
 d= 0,ls=0.0,diis     2    -76.3341856973 -9.60D-08  1.61D-05  2.78D-07     3.8
 d= 0,ls=0.0,diis     3    -76.3341857059 -8.63D-09  7.60D-06  1.88D-07     3.9


         Total DFT energy =      -76.334185705919
      One electron energy =     -122.849484135798
           Coulomb energy =       46.761577797554
    Exchange-Corr. energy =       -9.261714016634
 Nuclear repulsion energy =        9.015434648960

 Numeric. integr. density =        9.999999972668

     Total iterative time =      0.3s



                  Occupations of the irreducible representations
                  ----------------------------------------------

                     irrep           alpha         beta
                     --------     --------     --------
                     a1                3.0          3.0
                     a2                0.0          0.0
                     b1                1.0          1.0
                     b2                1.0          1.0


                       DFT Final Molecular Orbital Analysis
                       ------------------------------------

 Vector    1  Occ=2.000000D+00  E=-1.874325D+01  Symmetry=a1
              MO Center= -2.0D-19,  6.4D-22, -1.3D-01, r^2= 1.5D-02
   Bfn.  Coefficient  Atom+Function         Bfn.  Coefficient  Atom+Function  
  ----- ------------  ---------------      ----- ------------  ---------------
     1      1.003543  1 O  s          

 Vector    2  Occ=2.000000D+00  E=-8.974006D-01  Symmetry=a1
              MO Center=  1.1D-16, -3.8D-17,  8.4D-02, r^2= 5.0D-01
   Bfn.  Coefficient  Atom+Function         Bfn.  Coefficient  Atom+Function  
  ----- ------------  ---------------      ----- ------------  ---------------
     2      0.440050  1 O  s                  3      0.354973  1 O  s          
    15      0.202825  2 H  s                 20      0.202825  3 H  s          
     6      0.124072  1 O  pz                17     -0.036116  2 H  px         
    22      0.036116  3 H  px         

 Vector    3  Occ=2.000000D+00  E=-4.463249D-01  Symmetry=b1
              MO Center= -7.3D-16, -5.0D-17,  1.1D-01, r^2= 8.0D-01
   Bfn.  Coefficient  Atom+Function         Bfn.  Coefficient  Atom+Function  
  ----- ------------  ---------------      ----- ------------  ---------------
     4      0.504381  1 O  px                15      0.327485  2 H  s          
    20     -0.327485  3 H  s                  7      0.202384  1 O  px         
    16      0.117040  2 H  s                 21     -0.117040  3 H  s          
    19     -0.028218  2 H  pz                24      0.028218  3 H  pz         

 Vector    4  Occ=2.000000D+00  E=-3.088673D-01  Symmetry=a1
              MO Center= -6.3D-16, -1.3D-16, -2.0D-01, r^2= 6.8D-01
   Bfn.  Coefficient  Atom+Function         Bfn.  Coefficient  Atom+Function  
  ----- ------------  ---------------      ----- ------------  ---------------
     6      0.537931  1 O  pz                 3     -0.392962  1 O  s          
     9      0.342999  1 O  pz                15      0.206375  2 H  s          
    20      0.206375  3 H  s                  2     -0.174026  1 O  s          
    16      0.054347  2 H  s                 21      0.054347  3 H  s          

 Vector    5  Occ=2.000000D+00  E=-2.242555D-01  Symmetry=b2
              MO Center= -5.6D-17,  1.5D-16, -1.1D-01, r^2= 6.0D-01
   Bfn.  Coefficient  Atom+Function         Bfn.  Coefficient  Atom+Function  
  ----- ------------  ---------------      ----- ------------  ---------------
     5      0.634738  1 O  py                 8      0.490377  1 O  py         
    18      0.033944  2 H  py                23      0.033944  3 H  py         

 Vector    6  Occ=0.000000D+00  E= 2.855755D-02  Symmetry=a1
              MO Center=  1.0D-14, -1.7D-16,  5.8D-01, r^2= 2.6D+00
   Bfn.  Coefficient  Atom+Function         Bfn.  Coefficient  Atom+Function  
  ----- ------------  ---------------      ----- ------------  ---------------
     3      0.853052  1 O  s                 16     -0.737168  2 H  s          
    21     -0.737168  3 H  s                  9      0.317735  1 O  pz         
     6      0.273605  1 O  pz                 2      0.142056  1 O  s          
    15     -0.128941  2 H  s                 20     -0.128941  3 H  s          

 Vector    7  Occ=0.000000D+00  E= 1.034592D-01  Symmetry=b1
              MO Center= -9.3D-15, -4.9D-17,  5.6D-01, r^2= 3.0D+00
   Bfn.  Coefficient  Atom+Function         Bfn.  Coefficient  Atom+Function  
  ----- ------------  ---------------      ----- ------------  ---------------
    16      1.241563  2 H  s                 21     -1.241563  3 H  s          
     7     -0.597340  1 O  px                 4     -0.399209  1 O  px         
    15      0.143077  2 H  s                 20     -0.143077  3 H  s          

 Vector    8  Occ=0.000000D+00  E= 5.013541D-01  Symmetry=b1
              MO Center= -9.4D-15, -2.9D-17,  3.1D-01, r^2= 2.1D+00
   Bfn.  Coefficient  Atom+Function         Bfn.  Coefficient  Atom+Function  
  ----- ------------  ---------------      ----- ------------  ---------------
    16     -0.943004  2 H  s                 21      0.943004  3 H  s          
    15      0.932889  2 H  s                 20     -0.932889  3 H  s          
     4     -0.281665  1 O  px                 7     -0.273686  1 O  px         
    19      0.122039  2 H  pz                24     -0.122039  3 H  pz         
    13     -0.103585  1 O  d  1              17      0.052026  2 H  px         

 Vector    9  Occ=0.000000D+00  E= 5.635817D-01  Symmetry=a1
              MO Center=  1.0D-14, -1.0D-16,  4.8D-01, r^2= 1.8D+00
   Bfn.  Coefficient  Atom+Function         Bfn.  Coefficient  Atom+Function  
  ----- ------------  ---------------      ----- ------------  ---------------
    15      0.805970  2 H  s                 20      0.805970  3 H  s          
    16     -0.641210  2 H  s                 21     -0.641210  3 H  s          
     6     -0.400177  1 O  pz                 3      0.373507  1 O  s          
     2     -0.243221  1 O  s                 17      0.234403  2 H  px         
    22     -0.234403  3 H  px                14      0.092374  1 O  d  2       

 Vector   10  Occ=0.000000D+00  E= 8.572778D-01  Symmetry=a1
              MO Center=  1.5D-16, -8.8D-16, -1.4D-01, r^2= 1.2D+00
   Bfn.  Coefficient  Atom+Function         Bfn.  Coefficient  Atom+Function  
[...]
    39      8.811185  1 O  d  1              44      8.122158  1 O  d  1       

 Vector  320  Occ=0.000000D+00  E= 4.003632D+01  Symmetry=a1
              MO Center= -2.0D-11,  1.3D-17,  4.2D-01, r^2= 7.6D-01
   Bfn.  Coefficient  Atom+Function         Bfn.  Coefficient  Atom+Function  
  ----- ------------  ---------------      ----- ------------  ---------------
     6     29.154239  1 O  s                  5     26.332302  1 O  s          
   143    -15.652702  2 H  s                234    -15.652702  3 H  s          
   144    -13.522434  2 H  s                235    -13.522434  3 H  s          
    19     13.274820  1 O  pz               156     10.812071  2 H  px         
   247    -10.812071  3 H  px                16      9.699311  1 O  pz         

 Vector  321  Occ=0.000000D+00  E= 4.069302D+01  Symmetry=b1
              MO Center=  2.0D-11, -2.7D-17,  4.3D-01, r^2= 8.0D-01
   Bfn.  Coefficient  Atom+Function         Bfn.  Coefficient  Atom+Function  
  ----- ------------  ---------------      ----- ------------  ---------------
    14     18.358300  1 O  px               144    -16.105730  2 H  s          
   235     16.105730  3 H  s                143    -15.136268  2 H  s          
   234     15.136268  3 H  s                 17     13.769930  1 O  px         
   156     12.162370  2 H  px               247     12.162370  3 H  px         
   158      9.803486  2 H  pz               249     -9.803486  3 H  pz         

 Vector  322  Occ=0.000000D+00  E= 1.050248D+02  Symmetry=a1
              MO Center= -3.0D-14, -1.4D-20, -1.3D-01, r^2= 9.9D-02
   Bfn.  Coefficient  Atom+Function         Bfn.  Coefficient  Atom+Function  
  ----- ------------  ---------------      ----- ------------  ---------------
     2     30.470806  1 O  s                  1     27.340314  1 O  s          
     6     19.426703  1 O  s                 19      9.034192  1 O  pz         
     4     -8.387322  1 O  s                  3      7.753623  1 O  s          
   143     -6.273152  2 H  s                234     -6.273152  3 H  s          
   144     -5.441930  2 H  s                235     -5.441930  3 H  s          


 center of mass
 --------------
 x =   0.00000000 y =   0.00000000 z =  -0.09771227

 moments of inertia (a.u.)
 ------------------
           2.264440153828           0.000000000000           0.000000000000
           0.000000000000           6.469619505791           0.000000000000
           0.000000000000           0.000000000000           4.205179351963

     Multipole analysis of the density
     ---------------------------------

     L   x y z        total         alpha         beta         nuclear
     -   - - -        -----         -----         ----         -------
     0   0 0 0     -0.000000     -5.000000     -5.000000     10.000000

     1   1 0 0     -0.000000     -0.000000     -0.000000      0.000000
     1   0 1 0     -0.000000     -0.000000     -0.000000      0.000000
     1   0 0 1      0.720475      0.353442      0.353442      0.013591

     2   2 0 0     -3.367755     -3.770142     -3.770142      4.172529
     2   1 1 0      0.000000      0.000000      0.000000      0.000000
     2   1 0 1      0.000000      0.000000      0.000000      0.000000
     2   0 2 0     -5.816528     -2.908264     -2.908264      0.000000
     2   0 1 1      0.000000      0.000000      0.000000      0.000000
     2   0 0 2     -4.840267     -3.432144     -3.432144      2.024021

 Line search: 
     step= 1.00 grad=-6.7D-08 hess= 1.1D-08 energy=    -76.388348 mode=accept  
 new step= 1.00                   predicted energy=    -76.388348
  no constraints, skipping    0.0000000000000000     
  no constraints, skipping    0.0000000000000000     
  no constraints, skipping    0.0000000000000000     

          --------
          Step   1
          --------


                         Geometry "geometry" -> "geometry"
                         ---------------------------------

 Output coordinates in angstroms (scale by  1.889725989 to convert to a.u.)

  No.       Tag          Charge          X              Y              Z
 ---- ---------------- ---------- -------------- -------------- --------------
    1 O                    8.0000     0.00000000     0.00000000    -0.11831638
    2 H                    1.0000     0.76433873     0.00000000     0.47686144
    3 H                    1.0000    -0.76433873     0.00000000     0.47686144

      Atomic Mass 
      ----------- 

      O                 15.994910
      H                  1.007825


 Effective nuclear repulsion energy (a.u.)       9.0862486390

            Nuclear Dipole moment (a.u.) 
            ----------------------------
        X                 Y               Z
 ---------------- ---------------- ----------------
     0.0000000000     0.0000000000     0.0135906325

      Symmetry information
      --------------------

 Group name             C2v       
 Group number             16
 Group order               4
 No. of unique centers     2

      Symmetry unique atoms

     1    2


                                 NWChem DFT Module
                                 -----------------




 Summary of "ao basis" -> "cc-pv6z" (spherical)
 ------------------------------------------------------------------------------
       Tag                 Description            Shells   Functions and Types
 ---------------- ------------------------------  ------  ---------------------
 O                          cc-pv6z                 28      140   7s6p5d4f3g2h1i
 H                          cc-pv6z                 21       91   6s5p4d3f2g1h


      Symmetry analysis of basis
      --------------------------

        a1        106
        a2         57
        b1         90
        b2         69


  The DFT is already converged 

         Total DFT energy =    -76.388348103877


            General Information
            -------------------
          SCF calculation type: DFT
          Wavefunction type:  closed shell.
          No. of atoms     :     3
          No. of electrons :    10
           Alpha electrons :     5
            Beta electrons :     5
          Charge           :     0
          Spin multiplicity:     1
          Use of symmetry is: on ; symmetry adaption is: on 
          Maximum number of iterations:  30
          This is a Direct SCF calculation.
          AO basis - number of functions:   322
                     number of shells:    70
          Convergence on energy requested:  1.00D-06
          Convergence on density requested:  1.00D-05
          Convergence on gradient requested:  5.00D-04

              XC Information
              --------------
          PerdewBurkeErnzerhof Exchange Functional  1.000          
            Perdew 1991 LDA Correlation Functional  1.000 local    
           PerdewBurkeErnz. Correlation Functional  1.000 non-local

             Grid Information
             ----------------
          Grid used for XC integration:  medium    
          Radial quadrature: Mura-Knowles        
          Angular quadrature: Lebedev. 
          Tag              B.-S. Rad. Rad. Pts. Rad. Cut. Ang. Pts.
          ---              ---------- --------- --------- ---------
          O                   0.60       49           7.0       434
          H                   0.35       45           8.0       434
          Grid pruning is: on 
          Number of quadrature shells:    94
          Spatial weights used:  Erf1

          Convergence Information
          -----------------------
          Convergence aids based upon iterative change in 
          total energy or number of iterations. 
          Levelshifting, if invoked, occurs when the 
          HOMO/LUMO gap drops below (HL_TOL):  1.00D-02
          DIIS, if invoked, will attempt to extrapolate 
          using up to (NFOCK): 10 stored Fock matrices.

                    Damping( 0%)  Levelshifting(0.5)       DIIS
                  --------------- ------------------- ---------------
          dE  on:    start            ASAP                start   
          dE off:    2 iters         30 iters            30 iters 


      Screening Tolerance Information
      -------------------------------
          Density screening/tol_rho:  1.00D-10
          AO Gaussian exp screening on grid/accAOfunc:  14
          CD Gaussian exp screening on grid/accCDfunc:  20
          XC Gaussian exp screening on grid/accXCfunc:  20
          Schwarz screening/accCoul:  1.00D-08

  texas integral default override: limxmem =             50000000
  texas integral default override: limxmem =             50000000


                            NWChem DFT Gradient Module
                            --------------------------



  charge          =   0.00
  wavefunction    = closed shell

  Using symmetry
  texas integral default override: limxmem =             50000000
  texas integral default override: limxmem =             50000000


                         DFT ENERGY GRADIENTS

    atom               coordinates                        gradient
                 x          y          z           x          y          z
   1 O       0.000000   0.000000  -0.223586    0.000000   0.000000   0.000041
   2 H       1.444391   0.000000   0.901137   -0.000036   0.000000  -0.000021
   3 H      -1.444391   0.000000   0.901137    0.000036   0.000000  -0.000021

                 ----------------------------------------
                 |  Time  |  1-e(secs)   |  2-e(secs)   |
                 ----------------------------------------
                 |  CPU   |       0.19   |      84.01   |
                 ----------------------------------------
                 |  WALL  |       0.19   |      86.10   |
                 ----------------------------------------
  no constraints, skipping    0.0000000000000000     

  Step       Energy      Delta E   Gmax     Grms     Xrms     Xmax   Walltime
  ---- ---------------- -------- -------- -------- -------- -------- --------
@    1     -76.38834810 -5.7D-08  0.00004  0.00003  0.00019  0.00037   3050.8
                                     ok       ok       ok       ok  



                                Z-matrix (autoz)
                                -------- 

 Units are Angstrom for bonds and degrees for angles

      Type          Name      I     J     K     L     M      Value     Gradient
      ----------- --------  ----- ----- ----- ----- ----- ---------- ----------
    1 Stretch                  1     2                       0.96874   -0.00004
    2 Stretch                  1     3                       0.96874   -0.00004
    3 Bend                     2     1     3               104.18541   -0.00001


      ----------------------
      Optimization converged
      ----------------------


  Step       Energy      Delta E   Gmax     Grms     Xrms     Xmax   Walltime
  ---- ---------------- -------- -------- -------- -------- -------- --------
@    1     -76.38834810 -5.7D-08  0.00004  0.00003  0.00019  0.00037   3050.8
                                     ok       ok       ok       ok  



                                Z-matrix (autoz)
                                -------- 

 Units are Angstrom for bonds and degrees for angles

      Type          Name      I     J     K     L     M      Value     Gradient
      ----------- --------  ----- ----- ----- ----- ----- ---------- ----------
    1 Stretch                  1     2                       0.96874   -0.00004
    2 Stretch                  1     3                       0.96874   -0.00004
    3 Bend                     2     1     3               104.18541   -0.00001



                         Geometry "geometry" -> "geometry"
                         ---------------------------------

 Output coordinates in angstroms (scale by  1.889725989 to convert to a.u.)

  No.       Tag          Charge          X              Y              Z
 ---- ---------------- ---------- -------------- -------------- --------------
    1 O                    8.0000     0.00000000     0.00000000    -0.11831638
    2 H                    1.0000     0.76433873     0.00000000     0.47686144
    3 H                    1.0000    -0.76433873     0.00000000     0.47686144

      Atomic Mass 
      ----------- 

      O                 15.994910
      H                  1.007825


 Effective nuclear repulsion energy (a.u.)       9.0862486390

            Nuclear Dipole moment (a.u.) 
            ----------------------------
        X                 Y               Z
 ---------------- ---------------- ----------------
     0.0000000000     0.0000000000     0.0135906325

      Symmetry information
      --------------------

 Group name             C2v       
 Group number             16
 Group order               4
 No. of unique centers     2

      Symmetry unique atoms

     1    2


                Final and change from initial internal coordinates
                --------------------------------------------------



                                Z-matrix (autoz)
                                -------- 

 Units are Angstrom for bonds and degrees for angles

      Type          Name      I     J     K     L     M      Value       Change
      ----------- --------  ----- ----- ----- ----- ----- ---------- ----------
    1 Stretch                  1     2                       0.96874    0.00005
    2 Stretch                  1     3                       0.96874    0.00005
    3 Bend                     2     1     3               104.18541    0.02970

 ==============================================================================
                                internuclear distances
 ------------------------------------------------------------------------------
       center one      |      center two      | atomic units |  angstroms
 ------------------------------------------------------------------------------
    2 H                |   1 O                |     1.83065  |     0.96874
    3 H                |   1 O                |     1.83065  |     0.96874
 ------------------------------------------------------------------------------
                         number of included internuclear distances:          2
 ==============================================================================



 ==============================================================================
                                 internuclear angles
 ------------------------------------------------------------------------------
        center 1       |       center 2       |       center 3       |  degrees
 ------------------------------------------------------------------------------
    2 H                |   1 O                |   3 H                |   104.19
 ------------------------------------------------------------------------------
                            number of included internuclear angles:          1
 ==============================================================================




 Task  times  cpu:     2662.1s     wall:     2692.6s


                                NWChem Input Module
                                -------------------


 Summary of allocated global arrays
-----------------------------------
  No active global arrays



                         GA Statistics for process    0
                         ------------------------------

       create   destroy   get      put      acc     scatter   gather  read&inc
calls: 2450     2450     7.11e+06 9.78e+04 2.14e+04    0        0     8180     
number of processes/call 0.00e+00 0.00e+00 0.00e+00 0.00e+00 0.00e+00
bytes total:             3.00e+09 4.51e+08 8.12e+08 0.00e+00 0.00e+00 6.54e+04
bytes remote:            0.00e+00 0.00e+00 0.00e+00 0.00e+00 0.00e+00 0.00e+00
Max memory consumed for GA by this process: 32349408 bytes

MA_summarize_allocated_blocks: starting scan ...
MA_summarize_allocated_blocks: scan completed: 0 heap blocks, 0 stack blocks
MA usage statistics:

	allocation statistics:
					      heap	     stack
					      ----	     -----
	current number of blocks	         0	         0
	maximum number of blocks	        25	        58
	current total bytes		         0	         0
	maximum total bytes		   1656624	 572493880
	maximum total K-bytes		      1657	    572494
	maximum total M-bytes		         2	       573


                                     CITATION
                                     --------
                Please cite the following reference when publishing
                           results obtained with NWChem:

          E. Apr, E. J. Bylaska, W. A. de Jong, N. Govind, K. Kowalski,
       T. P. Straatsma, M. Valiev, H. J. J. van Dam, Y. Alexeev, J. Anchell,
       V. Anisimov, F. W. Aquino, R. Atta-Fynn, J. Autschbach, N. P. Bauman,
     J. C. Becca, D. E. Bernholdt, K. Bhaskaran-Nair, S. Bogatko, P. Borowski,
        J. Boschen, J. Brabec, A. Bruner, E. Caut, Y. Chen, G. N. Chuev,
      C. J. Cramer, J. Daily, M. J. O. Deegan, T. H. Dunning Jr., M. Dupuis,
   K. G. Dyall, G. I. Fann, S. A. Fischer, A. Fonari, H. Frchtl, L. Gagliardi,
      J. Garza, N. Gawande, S. Ghosh, K. Glaesemann, A. W. Gtz, J. Hammond,
       V. Helms, E. D. Hermes, K. Hirao, S. Hirata, M. Jacquelin, L. Jensen,
   B. G. Johnson, H. Jnsson, R. A. Kendall, M. Klemm, R. Kobayashi, V. Konkov,
      S. Krishnamoorthy, M. Krishnan, Z. Lin, R. D. Lins, R. J. Littlefield,
      A. J. Logsdail, K. Lopata, W. Ma, A. V. Marenich, J. Martin del Campo,
   D. Mejia-Rodriguez, J. E. Moore, J. M. Mullin, T. Nakajima, D. R. Nascimento,
    J. A. Nichols, P. J. Nichols, J. Nieplocha, A. Otero-de-la-Roza, B. Palmer,
    A. Panyala, T. Pirojsirikul, B. Peng, R. Peverati, J. Pittner, L. Pollack,
   R. M. Richard, P. Sadayappan, G. C. Schatz, W. A. Shelton, D. W. Silverstein,
   D. M. A. Smith, T. A. Soares, D. Song, M. Swart, H. L. Taylor, G. S. Thomas,
            V. Tipparaju, D. G. Truhlar, K. Tsemekhman, T. Van Voorhis,
     . Vzquez-Mayagoitia, P. Verma, O. Villa, A. Vishnu, K. D. Vogiatzis,
        D. Wang, J. H. Weare, M. J. Williamson, T. L. Windus, K. Woliski,
        A. T. Wong, Q. Wu, C. Yang, Q. Yu, M. Zacharias, Z. Zhang, Y. Zhao,
                                and R. J. Harrison
                        "NWChem: Past, present, and future
                         J. Chem. Phys. 152, 184102 (2020)
                               doi:10.1063/5.0004997

                                      AUTHORS
                                      -------
     E. Apra, E. J. Bylaska, N. Govind, K. Kowalski, M. Valiev, W. A. de Jong,
      T. P. Straatsma, H. J. J. van Dam, D. Wang, T. L. Windus, N. P. Bauman,
       A. Panyala, J. Hammond, J. Autschbach, K. Bhaskaran-Nair, J. Brabec,
    K. Lopata, S. A. Fischer, S. Krishnamoorthy, M. Jacquelin, W. Ma, M. Klemm,
       O. Villa, Y. Chen, V. Anisimov, F. Aquino, S. Hirata, M. T. Hackler,
           Eric Hermes, L. Jensen, J. E. Moore, J. C. Becca, V. Konjkov,
            D. Mejia-Rodriguez, T. Risthaus, M. Malagoli, A. Marenich,
   A. Otero-de-la-Roza, J. Mullin, P. Nichols, R. Peverati, J. Pittner, Y. Zhao,
        P.-D. Fan, A. Fonari, M. J. Williamson, R. J. Harrison, J. R. Rehr,
      M. Dupuis, D. Silverstein, D. M. A. Smith, J. Nieplocha, V. Tipparaju,
      M. Krishnan, B. E. Van Kuiken, A. Vazquez-Mayagoitia, M. Swart, Q. Wu,
   T. Van Voorhis, A. A. Auer, M. Nooijen, L. D. Crosby, E. Brown, G. Cisneros,
     G. I. Fann, H. Fruchtl, J. Garza, K. Hirao, R. A. Kendall, J. A. Nichols,
       K. Tsemekhman, K. Wolinski, J. Anchell, D. E. Bernholdt, P. Borowski,
       T. Clark, D. Clerc, H. Dachsel, M. J. O. Deegan, K. Dyall, D. Elwood,
      E. Glendening, M. Gutowski, A. C. Hess, J. Jaffe, B. G. Johnson, J. Ju,
        R. Kobayashi, R. Kutteh, Z. Lin, R. Littlefield, X. Long, B. Meng,
      T. Nakajima, S. Niu, L. Pollack, M. Rosing, K. Glaesemann, G. Sandrone,
      M. Stave, H. Taylor, G. Thomas, J. H. van Lenthe, A. T. Wong, Z. Zhang.

 Total times  cpu:     3006.3s     wall:     3050.9s
