 argument  1 = /home/hvandam/nwchem-1-srp-hpc/QA/tests/ZSM-5/nwc/propene-dft-pbe.nw



============================== echo of input deck ==============================
echo
start propene-dat

memory heap 100 mb stack 500 mb global 1024 mb

geometry
  load propene.xyz
end

basis "cc-pvdz" spherical
  * library cc-pvdz
end
basis "cc-pvtz" spherical
  * library cc-pvtz
end
basis "cc-pvqz" spherical
  * library cc-pvqz
end
basis "cc-pv5z" spherical
  * library cc-pv5z
end
basis "cc-pv6z" spherical
  * library cc-pv6z
end

dft
  direct
  # select PBE functional following https://doi.org/10.1002/aic.15517
  xc xpbe96 cpbe96
end

set int:txs:limxmem              50000000

set "ao basis" "cc-pvdz"
task dft optimize

set "ao basis" "cc-pvtz"
task dft optimize

set "ao basis" "cc-pvqz"
task dft optimize

set "ao basis" "cc-pv5z"
task dft optimize

set "ao basis" "cc-pv6z"
task dft optimize
================================================================================


                                         
                                         


             Northwest Computational Chemistry Package (NWChem) 7.0.1
             --------------------------------------------------------


                    Environmental Molecular Sciences Laboratory
                       Pacific Northwest National Laboratory
                                Richland, WA 99352

                              Copyright (c) 1994-2020
                       Pacific Northwest National Laboratory
                            Battelle Memorial Institute

             NWChem is an open-source computational chemistry package
                        distributed under the terms of the
                      Educational Community License (ECL) 2.0
             A copy of the license is included with this distribution
                              in the LICENSE.TXT file

                                  ACKNOWLEDGMENT
                                  --------------

            This software and its documentation were developed at the
            EMSL at Pacific Northwest National Laboratory, a multiprogram
            national laboratory, operated for the U.S. Department of Energy
            by Battelle under Contract Number DE-AC05-76RL01830. Support
            for this work was provided by the Department of Energy Office
            of Biological and Environmental Research, Office of Basic
            Energy Sciences, and the Office of Advanced Scientific Computing.


           Job information
           ---------------

    hostname        = node003
    program         = /home/hvandam/nwchem-1-srp-hpc/bin/LINUX64/nwchem
    date            = Thu Jul  7 22:00:55 2022

    compiled        = Mon_Jul_04_23:39:26_2022
    source          = /home/hvandam/nwchem-1-srp-hpc
    nwchem branch   = 7.0.0
    nwchem revision = nwchem_on_git-4025-gba861c8c44
    ga revision     = 5.8.1
    use scalapack   = F
    input           = /home/hvandam/nwchem-1-srp-hpc/QA/tests/ZSM-5/nwc/propene-dft-pbe.nw
    prefix          = propene-dat.
    data base       = ./propene-dat.db
    status          = startup
    nproc           =       16
    time left       =     -1s



           Memory information
           ------------------

    heap     =   13107198 doubles =    100.0 Mbytes
    stack    =   65535995 doubles =    500.0 Mbytes
    global   =  134217728 doubles =   1024.0 Mbytes (distinct from heap & stack)
    total    =  212860921 doubles =   1624.0 Mbytes
    verify   = yes
    hardfail = no 


           Directory information
           ---------------------

  0 permanent = .
  0 scratch   = .




                                NWChem Input Module
                                -------------------



 Scaling coordinates for geometry "geometry" by  1.889725989
 (inverse scale =  0.529177249)

 CS  symmetry detected

          ------
          auto-z
          ------
  no constraints, skipping    0.0000000000000000     
  no constraints, skipping    0.0000000000000000     


                             Geometry "geometry" -> ""
                             -------------------------

 Output coordinates in angstroms (scale by  1.889725989 to convert to a.u.)

  No.       Tag          Charge          X              Y              Z
 ---- ---------------- ---------- -------------- -------------- --------------
    1 C                    6.0000     0.17254275     1.22172126     0.00000000
    2 C                    6.0000    -0.46981239    -0.12588313     0.00000000
    3 C                    6.0000     0.22286308    -1.27134904     0.00000000
    4 H                    1.0000    -0.59663816     2.00072098     0.00000000
    5 H                    1.0000     0.78915685     1.36084520    -0.89326161
    6 H                    1.0000     0.78915685     1.36084520     0.89326161
    7 H                    1.0000    -1.55676950    -0.16054348     0.00000000
    8 H                    1.0000     1.30854044    -1.27898880     0.00000000
    9 H                    1.0000    -0.28700711    -2.22981362     0.00000000

      Atomic Mass 
      ----------- 

      C                 12.000000
      H                  1.007825


 Effective nuclear repulsion energy (a.u.)      70.8201078290

            Nuclear Dipole moment (a.u.) 
            ----------------------------
        X                 Y               Z
 ---------------- ---------------- ----------------
    -0.0000000000     0.0000000000     0.0000000000

      Symmetry information
      --------------------

 Group name             Cs        
 Group number              2
 Group order               2
 No. of unique centers     8

      Symmetry unique atoms

     1    2    3    4    5    7    8    9



                                Z-matrix (autoz)
                                -------- 

 Units are Angstrom for bonds and degrees for angles

      Type          Name      I     J     K     L     M      Value
      ----------- --------  ----- ----- ----- ----- ----- ----------
    1 Stretch                  1     2                       1.49287
    2 Stretch                  1     4                       1.09475
    3 Stretch                  1     5                       1.09430
    4 Stretch                  1     6                       1.09430
    5 Stretch                  2     3                       1.33862
    6 Stretch                  2     7                       1.08751
    7 Stretch                  3     8                       1.08570
    8 Stretch                  3     9                       1.08564
    9 Bend                     1     2     3               123.35272
   10 Bend                     1     2     7               117.31188
   11 Bend                     2     1     4               109.87789
   12 Bend                     2     1     5               110.92956
   13 Bend                     2     1     6               110.92956
   14 Bend                     2     3     8               121.56498
   15 Bend                     2     3     9               120.82676
   16 Bend                     3     2     7               119.33540
   17 Bend                     4     1     5               107.78457
   18 Bend                     4     1     6               107.78457
   19 Bend                     5     1     6               109.42993
   20 Bend                     8     3     9               117.60827
   21 Torsion                  1     2     3     8           0.00000
   22 Torsion                  1     2     3     9         180.00000
   23 Torsion                  3     2     1     4         180.00000
   24 Torsion                  3     2     1     5          60.92114
   25 Torsion                  3     2     1     6         -60.92114
   26 Torsion                  4     1     2     7           0.00000
   27 Torsion                  5     1     2     7        -119.07886
   28 Torsion                  6     1     2     7         119.07886
   29 Torsion                  7     2     3     8         180.00000
   30 Torsion                  7     2     3     9          -0.00000


            XYZ format geometry
            -------------------
     9
 geometry
 C                     0.17254275     1.22172126     0.00000000
 C                    -0.46981239    -0.12588313     0.00000000
 C                     0.22286308    -1.27134904     0.00000000
 H                    -0.59663816     2.00072098     0.00000000
 H                     0.78915685     1.36084520    -0.89326161
 H                     0.78915685     1.36084520     0.89326161
 H                    -1.55676950    -0.16054348     0.00000000
 H                     1.30854044    -1.27898880     0.00000000
 H                    -0.28700711    -2.22981362     0.00000000

 ==============================================================================
                                internuclear distances
 ------------------------------------------------------------------------------
       center one      |      center two      | atomic units |  angstroms
 ------------------------------------------------------------------------------
    2 C                |   1 C                |     2.82111  |     1.49287
    3 C                |   2 C                |     2.52962  |     1.33862
    4 H                |   1 C                |     2.06878  |     1.09475
    5 H                |   1 C                |     2.06792  |     1.09430
    6 H                |   1 C                |     2.06792  |     1.09430
    7 H                |   2 C                |     2.05510  |     1.08751
    8 H                |   3 C                |     2.05168  |     1.08570
    9 H                |   3 C                |     2.05157  |     1.08564
 ------------------------------------------------------------------------------
                         number of included internuclear distances:          8
 ==============================================================================



 ==============================================================================
                                 internuclear angles
 ------------------------------------------------------------------------------
        center 1       |       center 2       |       center 3       |  degrees
 ------------------------------------------------------------------------------
    2 C                |   1 C                |   4 H                |   109.88
    2 C                |   1 C                |   5 H                |   110.93
    2 C                |   1 C                |   6 H                |   110.93
    4 H                |   1 C                |   5 H                |   107.78
    4 H                |   1 C                |   6 H                |   107.78
    5 H                |   1 C                |   6 H                |   109.43
    1 C                |   2 C                |   3 C                |   123.35
    1 C                |   2 C                |   7 H                |   117.31
    3 C                |   2 C                |   7 H                |   119.34
    2 C                |   3 C                |   8 H                |   121.56
    2 C                |   3 C                |   9 H                |   120.83
    8 H                |   3 C                |   9 H                |   117.61
 ------------------------------------------------------------------------------
                            number of included internuclear angles:         12
 ==============================================================================





 Summary of "cc-pvdz" -> "" (spherical)
 ------------------------------------------------------------------------------
       Tag                 Description            Shells   Functions and Types
 ---------------- ------------------------------  ------  ---------------------
 *                          cc-pvdz                   on all atoms 




 Summary of "cc-pvtz" -> "" (spherical)
 ------------------------------------------------------------------------------
       Tag                 Description            Shells   Functions and Types
 ---------------- ------------------------------  ------  ---------------------
 *                          cc-pvtz                   on all atoms 




 Summary of "cc-pvqz" -> "" (spherical)
 ------------------------------------------------------------------------------
       Tag                 Description            Shells   Functions and Types
 ---------------- ------------------------------  ------  ---------------------
 *                          cc-pvqz                   on all atoms 




 Summary of "cc-pv5z" -> "" (spherical)
 ------------------------------------------------------------------------------
       Tag                 Description            Shells   Functions and Types
 ---------------- ------------------------------  ------  ---------------------
 *                          cc-pv5z                   on all atoms 




 Summary of "cc-pv6z" -> "" (spherical)
 ------------------------------------------------------------------------------
       Tag                 Description            Shells   Functions and Types
 ---------------- ------------------------------  ------  ---------------------
 *                          cc-pv6z                   on all atoms 


  pbe96 is a nonlocal functional; adding pw91lda local functional. 


                           NWChem Geometry Optimization
                           ----------------------------


  no constraints, skipping    0.0000000000000000     
 maximum gradient threshold         (gmax) =   0.000450
 rms gradient threshold             (grms) =   0.000300
 maximum cartesian step threshold   (xmax) =   0.001800
 rms cartesian step threshold       (xrms) =   0.001200
 fixed trust radius                (trust) =   0.300000
 maximum step size to saddle      (sadstp) =   0.100000
 energy precision                  (eprec) =   5.0D-06
 maximum number of steps          (nptopt) =   40
 initial hessian option           (inhess) =    0
 line search option               (linopt) =    1
 hessian update option            (modupd) =    1
 saddle point option              (modsad) =    0
 initial eigen-mode to follow     (moddir) =    0
 initial variable to follow       (vardir) =    0
 follow first negative mode     (firstneg) =    T
 apply conjugacy                    (opcg) =    F
 source of zmatrix                         =   autoz   


          -------------------
          Energy Minimization
          -------------------


 Names of Z-matrix variables 
    1              2              3              4              5         
    6              7              8              9             10         
   11             12             13             14             15         
   16             17             18             19             20         
   21             22             23             24             25         
   26             27             28             29             30         

 Variables with the same non-blank name are constrained to be equal


 Using diagonal initial Hessian 
 Scaling for Hessian diagonals: bonds = 1.00  angles = 0.25  torsions = 0.10

          --------
          Step   0
          --------


                         Geometry "geometry" -> "geometry"
                         ---------------------------------

 Output coordinates in angstroms (scale by  1.889725989 to convert to a.u.)

  No.       Tag          Charge          X              Y              Z
 ---- ---------------- ---------- -------------- -------------- --------------
    1 C                    6.0000     0.17254275     1.22172126     0.00000000
    2 C                    6.0000    -0.46981239    -0.12588313     0.00000000
    3 C                    6.0000     0.22286308    -1.27134904     0.00000000
    4 H                    1.0000    -0.59663816     2.00072098     0.00000000
    5 H                    1.0000     0.78915685     1.36084520    -0.89326161
    6 H                    1.0000     0.78915685     1.36084520     0.89326161
    7 H                    1.0000    -1.55676950    -0.16054348     0.00000000
    8 H                    1.0000     1.30854044    -1.27898880     0.00000000
    9 H                    1.0000    -0.28700711    -2.22981362     0.00000000

      Atomic Mass 
      ----------- 

      C                 12.000000
      H                  1.007825


 Effective nuclear repulsion energy (a.u.)      70.8201078290

            Nuclear Dipole moment (a.u.) 
            ----------------------------
        X                 Y               Z
 ---------------- ---------------- ----------------
    -0.0000000000     0.0000000000     0.0000000000

      Symmetry information
      --------------------

 Group name             Cs        
 Group number              2
 Group order               2
 No. of unique centers     8

      Symmetry unique atoms

     1    2    3    4    5    7    8    9


                                 NWChem DFT Module
                                 -----------------


                      Basis "ao basis" -> "cc-pvdz" (spherical)
                      -----
  C (Carbon)
  ----------
            Exponent  Coefficients 
       -------------- ---------------------------------------------------------
  1 S  6.66500000E+03  0.000692
  1 S  1.00000000E+03  0.005329
  1 S  2.28000000E+02  0.027077
  1 S  6.47100000E+01  0.101718
  1 S  2.10600000E+01  0.274740
  1 S  7.49500000E+00  0.448564
  1 S  2.79700000E+00  0.285074
  1 S  5.21500000E-01  0.015204

  2 S  6.66500000E+03 -0.000146
  2 S  1.00000000E+03 -0.001154
  2 S  2.28000000E+02 -0.005725
  2 S  6.47100000E+01 -0.023312
  2 S  2.10600000E+01 -0.063955
  2 S  7.49500000E+00 -0.149981
  2 S  2.79700000E+00 -0.127262
  2 S  5.21500000E-01  0.544529

  3 S  1.59600000E-01  1.000000

  4 P  9.43900000E+00  0.038109
  4 P  2.00200000E+00  0.209480
  4 P  5.45600000E-01  0.508557

  5 P  1.51700000E-01  1.000000

  6 D  5.50000000E-01  1.000000

  H (Hydrogen)
  ------------
            Exponent  Coefficients 
       -------------- ---------------------------------------------------------
  1 S  1.30100000E+01  0.019685
  1 S  1.96200000E+00  0.137977
  1 S  4.44600000E-01  0.478148

  2 S  1.22000000E-01  1.000000

  3 P  7.27000000E-01  1.000000



 Summary of "ao basis" -> "cc-pvdz" (spherical)
 ------------------------------------------------------------------------------
       Tag                 Description            Shells   Functions and Types
 ---------------- ------------------------------  ------  ---------------------
 C                          cc-pvdz                  6       14   3s2p1d
 H                          cc-pvdz                  3        5   2s1p




 Summary of "ao basis" -> "cc-pvdz" (spherical)
 ------------------------------------------------------------------------------
       Tag                 Description            Shells   Functions and Types
 ---------------- ------------------------------  ------  ---------------------
 C                          cc-pvdz                  6       14   3s2p1d
 H                          cc-pvdz                  3        5   2s1p


      Symmetry analysis of basis
      --------------------------

        a'         51
        a"         21

  texas integral default override: limxmem =             50000000
  Caching 1-el integrals 

            General Information
            -------------------
          SCF calculation type: DFT
          Wavefunction type:  closed shell.
          No. of atoms     :     9
          No. of electrons :    24
           Alpha electrons :    12
            Beta electrons :    12
          Charge           :     0
          Spin multiplicity:     1
          Use of symmetry is: on ; symmetry adaption is: on 
          Maximum number of iterations:  50
          This is a Direct SCF calculation.
          AO basis - number of functions:    72
                     number of shells:    36
          Convergence on energy requested:  1.00D-06
          Convergence on density requested:  1.00D-05
          Convergence on gradient requested:  5.00D-04

              XC Information
              --------------
          PerdewBurkeErnzerhof Exchange Functional  1.000          
            Perdew 1991 LDA Correlation Functional  1.000 local    
           PerdewBurkeErnz. Correlation Functional  1.000 non-local

             Grid Information
             ----------------
          Grid used for XC integration:  medium    
          Radial quadrature: Mura-Knowles        
          Angular quadrature: Lebedev. 
          Tag              B.-S. Rad. Rad. Pts. Rad. Cut. Ang. Pts.
          ---              ---------- --------- --------- ---------
          C                   0.70       49          10.0       434
          H                   0.35       45          11.0       434
          Grid pruning is: on 
          Number of quadrature shells:   372
          Spatial weights used:  Erf1

          Convergence Information
          -----------------------
          Convergence aids based upon iterative change in 
          total energy or number of iterations. 
          Levelshifting, if invoked, occurs when the 
          HOMO/LUMO gap drops below (HL_TOL):  1.00D-02
          DIIS, if invoked, will attempt to extrapolate 
          using up to (NFOCK): 10 stored Fock matrices.

                    Damping( 0%)  Levelshifting(0.5)       DIIS
                  --------------- ------------------- ---------------
          dE  on:    start            ASAP                start   
          dE off:    2 iters         50 iters            50 iters 


      Screening Tolerance Information
      -------------------------------
          Density screening/tol_rho:  1.00D-10
          AO Gaussian exp screening on grid/accAOfunc:  14
          CD Gaussian exp screening on grid/accCDfunc:  20
          XC Gaussian exp screening on grid/accXCfunc:  20
          Schwarz screening/accCoul:  1.00D-08


      Superposition of Atomic Density Guess
      -------------------------------------

 Sum of atomic energies:        -115.99411233

      Non-variational initial energy
      ------------------------------

 Total energy =    -117.934606
 1-e energy   =    -293.685532
 2-e energy   =     104.930818
 HOMO         =      -0.306727
 LUMO         =       0.006288


      Symmetry analysis of molecular orbitals - initial
      -------------------------------------------------

  Numbering of irreducible representations: 

     1 a'          2 a"      

  Orbital symmetries:

     1 a'          2 a'          3 a'          4 a'          5 a'      
     6 a'          7 a'          8 a"          9 a'         10 a'      
    11 a'         12 a"         13 a"         14 a'         15 a'      
    16 a'         17 a'         18 a"         19 a'         20 a'      
    21 a'         22 a'      

   Time after variat. SCF:      9.0
   Time prior to 1st pass:      9.0

 Grid_pts file          = ./propene-dat.gridpts.00
 Record size in doubles =  12289        No. of grid_pts per rec  =   3070
 Max. records in memory =      5        Max. recs in file   =    114822


           Memory utilization after 1st SCF pass: 
           Heap Space remaining (MW):       13.04            13041590
          Stack Space remaining (MW):       65.54            65535380

   convergence    iter        energy       DeltaE   RMS-Dens  Diis-err    time
 ---------------- ----- ----------------- --------- --------- ---------  ------
 d= 0,ls=0.0,diis     1   -117.7044535035 -1.89D+02  7.28D-03  2.58D-01     9.3
 d= 0,ls=0.0,diis     2   -117.7245461503 -2.01D-02  4.40D-03  3.98D-02     9.6
 d= 0,ls=0.0,diis     3   -117.7131206372  1.14D-02  3.00D-03  1.21D-01     9.8
 d= 0,ls=0.0,diis     4   -117.7299739292 -1.69D-02  4.44D-04  1.75D-03    10.1
 d= 0,ls=0.0,diis     5   -117.7301909225 -2.17D-04  1.30D-04  1.55D-04    10.4
  Resetting Diis
 d= 0,ls=0.0,diis     6   -117.7302134095 -2.25D-05  1.37D-05  1.62D-06    10.6
 d= 0,ls=0.0,diis     7   -117.7302136212 -2.12D-07  6.71D-06  1.12D-07    10.9


         Total DFT energy =     -117.730213621183
      One electron energy =     -297.072129031188
           Coulomb energy =      126.831790934374
    Exchange-Corr. energy =      -18.309983353334
 Nuclear repulsion energy =       70.820107828964

 Numeric. integr. density =       24.000002507799

     Total iterative time =      1.9s



                  Occupations of the irreducible representations
                  ----------------------------------------------

                     irrep           alpha         beta
                     --------     --------     --------
                     a'               10.0         10.0
                     a"                2.0          2.0


                       DFT Final Molecular Orbital Analysis
                       ------------------------------------

 Vector    1  Occ=2.000000D+00  E=-9.895645D+00  Symmetry=a'
              MO Center= -4.7D-01, -1.3D-01,  3.4D-19, r^2= 2.9D-02
   Bfn.  Coefficient  Atom+Function         Bfn.  Coefficient  Atom+Function  
  ----- ------------  ---------------      ----- ------------  ---------------
    15      1.007154  2 C  s          

 Vector    2  Occ=2.000000D+00  E=-9.889623D+00  Symmetry=a'
              MO Center=  1.7D-01,  1.2D+00, -6.8D-18, r^2= 2.8D-02
   Bfn.  Coefficient  Atom+Function         Bfn.  Coefficient  Atom+Function  
  ----- ------------  ---------------      ----- ------------  ---------------
     1      1.008016  1 C  s          

 Vector    3  Occ=2.000000D+00  E=-9.881698D+00  Symmetry=a'
              MO Center=  2.2D-01, -1.3D+00,  3.0D-19, r^2= 2.8D-02
   Bfn.  Coefficient  Atom+Function         Bfn.  Coefficient  Atom+Function  
  ----- ------------  ---------------      ----- ------------  ---------------
    29      1.007130  3 C  s          

 Vector    4  Occ=2.000000D+00  E=-7.100854D-01  Symmetry=a'
              MO Center= -8.7D-02,  2.0D-02, -1.6D-17, r^2= 1.6D+00
   Bfn.  Coefficient  Atom+Function         Bfn.  Coefficient  Atom+Function  
  ----- ------------  ---------------      ----- ------------  ---------------
    16      0.289278  2 C  s                 17      0.227717  2 C  s          
     2      0.225891  1 C  s                 30      0.210480  3 C  s          
    31      0.109814  3 C  s                 58      0.102572  7 H  s          
     3      0.102045  1 C  s                 48      0.088087  5 H  s          
    53      0.088087  6 H  s                 33      0.084641  3 C  py         

 Vector    5  Occ=2.000000D+00  E=-6.133797D-01  Symmetry=a'
              MO Center=  1.1D-01,  1.6D-01,  6.7D-16, r^2= 2.6D+00
   Bfn.  Coefficient  Atom+Function         Bfn.  Coefficient  Atom+Function  
  ----- ------------  ---------------      ----- ------------  ---------------
     2      0.290446  1 C  s                 30     -0.264285  3 C  s          
    19      0.199574  2 C  py                31     -0.159858  3 C  s          
     3      0.153451  1 C  s                 43      0.150989  4 H  s          
    48      0.138038  5 H  s                 53      0.138038  6 H  s          
    68     -0.131313  9 H  s                 63     -0.110787  8 H  s          

 Vector    6  Occ=2.000000D+00  E=-4.919282D-01  Symmetry=a'
              MO Center= -1.1D-01, -3.4D-01,  4.2D-16, r^2= 2.7D+00
   Bfn.  Coefficient  Atom+Function         Bfn.  Coefficient  Atom+Function  
  ----- ------------  ---------------      ----- ------------  ---------------
    16      0.250557  2 C  s                 58      0.243965  7 H  s          
    63     -0.198557  8 H  s                 30     -0.181296  3 C  s          
    18     -0.157454  2 C  px                17      0.145539  2 C  s          
    32     -0.141564  3 C  px                68     -0.136728  9 H  s          
    33      0.122383  3 C  py                 4     -0.116002  1 C  px         

 Vector    7  Occ=2.000000D+00  E=-4.108334D-01  Symmetry=a'
              MO Center= -2.0D-01, -3.7D-01, -1.1D-16, r^2= 2.8D+00
   Bfn.  Coefficient  Atom+Function         Bfn.  Coefficient  Atom+Function  
  ----- ------------  ---------------      ----- ------------  ---------------
    33      0.288422  3 C  py                18      0.278798  2 C  px         
    68     -0.257454  9 H  s                  5     -0.221064  1 C  py         
    43     -0.192763  4 H  s                 58     -0.161987  7 H  s          
    32      0.125409  3 C  px                 4      0.105222  1 C  px         
    36      0.092578  3 C  py                 8     -0.090005  1 C  py         

 Vector    8  Occ=2.000000D+00  E=-3.698911D-01  Symmetry=a'
              MO Center=  3.0D-01, -1.1D-01,  4.8D-16, r^2= 2.5D+00
   Bfn.  Coefficient  Atom+Function         Bfn.  Coefficient  Atom+Function  
  ----- ------------  ---------------      ----- ------------  ---------------
    32      0.323854  3 C  px                19      0.300326  2 C  py         
     4     -0.278845  1 C  px                63      0.266371  8 H  s          
    48     -0.150308  5 H  s                 53     -0.150308  6 H  s          
    22      0.124452  2 C  py                64      0.112582  8 H  s          
    33     -0.110843  3 C  py                 5     -0.109297  1 C  py         

 Vector    9  Occ=2.000000D+00  E=-3.674775D-01  Symmetry=a"
              MO Center=  3.6D-01,  1.1D+00,  8.1D-16, r^2= 1.5D+00
   Bfn.  Coefficient  Atom+Function         Bfn.  Coefficient  Atom+Function  
  ----- ------------  ---------------      ----- ------------  ---------------
     6      0.422981  1 C  pz                48     -0.288335  5 H  s          
    53      0.288335  6 H  s                 20      0.167022  2 C  pz         
     9      0.156564  1 C  pz                49     -0.119353  5 H  s          
    54      0.119353  6 H  s                 23      0.090825  2 C  pz         
    34      0.072020  3 C  pz                37      0.031263  3 C  pz         

 Vector   10  Occ=2.000000D+00  E=-3.177145D-01  Symmetry=a'
              MO Center= -1.4D-01,  5.2D-01, -3.8D-16, r^2= 2.9D+00
   Bfn.  Coefficient  Atom+Function         Bfn.  Coefficient  Atom+Function  
  ----- ------------  ---------------      ----- ------------  ---------------
    43      0.327979  4 H  s                  5      0.293242  1 C  py         
    33      0.284969  3 C  py                19     -0.245482  2 C  py         
     4     -0.217223  1 C  px                68     -0.192384  9 H  s          
    44      0.176433  4 H  s                  8      0.125371  1 C  py         
    18      0.109962  2 C  px                69     -0.109825  9 H  s          

 Vector   11  Occ=2.000000D+00  E=-2.980601D-01  Symmetry=a'
              MO Center= -1.3D-01, -2.9D-01, -5.2D-16, r^2= 2.8D+00
   Bfn.  Coefficient  Atom+Function         Bfn.  Coefficient  Atom+Function  
  ----- ------------  ---------------      ----- ------------  ---------------
    58     -0.291885  7 H  s                 18      0.288745  2 C  px         
    32     -0.236340  3 C  px                63     -0.236653  8 H  s          
     4     -0.219590  1 C  px                68      0.212154  9 H  s          
    59     -0.191892  7 H  s                  5     -0.184252  1 C  py         
    64     -0.174525  8 H  s                  3      0.141913  1 C  s          

 Vector   12  Occ=2.000000D+00  E=-2.189144D-01  Symmetry=a"
              MO Center= -2.0D-02, -5.6D-01, -8.5D-18, r^2= 1.9D+00
   Bfn.  Coefficient  Atom+Function         Bfn.  Coefficient  Atom+Function  
  ----- ------------  ---------------      ----- ------------  ---------------
    34      0.416695  3 C  pz                20      0.380477  2 C  pz         
    37      0.283813  3 C  pz                23      0.250945  2 C  pz         
     6     -0.134477  1 C  pz                48      0.134798  5 H  s          
    53     -0.134798  6 H  s                 49      0.081955  5 H  s          
    54     -0.081955  6 H  s                  9     -0.070622  1 C  pz         

 Vector   13  Occ=0.000000D+00  E=-2.051185D-02  Symmetry=a"
              MO Center= -2.7D-02, -5.1D-01,  4.5D-16, r^2= 2.5D+00
   Bfn.  Coefficient  Atom+Function         Bfn.  Coefficient  Atom+Function  
  ----- ------------  ---------------      ----- ------------  ---------------
    37     -0.568429  3 C  pz                23      0.558797  2 C  pz         
    20      0.445167  2 C  pz                34     -0.410044  3 C  pz         
    49      0.328546  5 H  s                 54     -0.328546  6 H  s          
     9      0.144168  1 C  pz                48      0.119911  5 H  s          
    53     -0.119911  6 H  s                  6      0.028413  1 C  pz         

 Vector   14  Occ=0.000000D+00  E= 5.354410D-02  Symmetry=a'
              MO Center= -5.5D-01,  5.1D-01, -2.4D-15, r^2= 6.1D+00
   Bfn.  Coefficient  Atom+Function         Bfn.  Coefficient  Atom+Function  
  ----- ------------  ---------------      ----- ------------  ---------------
     3      1.335710  1 C  s                 44     -0.965134  4 H  s          
    59     -0.877938  7 H  s                 17      0.784386  2 C  s          
    69     -0.660492  9 H  s                 31      0.622204  3 C  s          
    49     -0.467662  5 H  s                 54     -0.467662  6 H  s          
    21     -0.399195  2 C  px                 8      0.375204  1 C  py         

 Vector   15  Occ=0.000000D+00  E= 7.388980D-02  Symmetry=a'
              MO Center=  1.5D-01,  4.6D-01, -5.0D-16, r^2= 6.0D+00
   Bfn.  Coefficient  Atom+Function         Bfn.  Coefficient  Atom+Function  
  ----- ------------  ---------------      ----- ------------  ---------------
     3      1.237989  1 C  s                 59      1.017529  7 H  s          
    49     -0.969355  5 H  s                 54     -0.969355  6 H  s          
    17     -0.659708  2 C  s                 64     -0.652248  8 H  s          
     7      0.498694  1 C  px                69      0.476190  9 H  s          
    35      0.365920  3 C  px                21      0.346745  2 C  px         

 Vector   16  Occ=0.000000D+00  E= 9.070796D-02  Symmetry=a'
              MO Center=  5.6D-01, -1.0D+00, -7.2D-16, r^2= 6.1D+00
   Bfn.  Coefficient  Atom+Function         Bfn.  Coefficient  Atom+Function  
  ----- ------------  ---------------      ----- ------------  ---------------
    31      1.650138  3 C  s                 64     -1.383021  8 H  s          
    69     -0.993998  9 H  s                  3     -0.970648  1 C  s          
    44      0.657990  4 H  s                 36     -0.414406  3 C  py         
    35      0.351589  3 C  px                59      0.276778  7 H  s          
    49      0.265568  5 H  s                 54      0.265568  6 H  s          

 Vector   17  Occ=0.000000D+00  E= 1.263308D-01  Symmetry=a'
              MO Center=  1.8D-01, -3.5D-01, -5.3D-16, r^2= 7.2D+00
   Bfn.  Coefficient  Atom+Function         Bfn.  Coefficient  Atom+Function  
  ----- ------------  ---------------      ----- ------------  ---------------
    69      1.377542  9 H  s                 44     -1.221570  4 H  s          
    64     -1.200325  8 H  s                 35      0.877092  3 C  px         
     7     -0.651610  1 C  px                 8      0.618573  1 C  py         
    49      0.608423  5 H  s                 54      0.608423  6 H  s          
    36      0.458546  3 C  py                17      0.434067  2 C  s          

 Vector   18  Occ=0.000000D+00  E= 1.299896D-01  Symmetry=a"
              MO Center=  8.5D-01,  1.2D+00,  3.3D-15, r^2= 3.9D+00
   Bfn.  Coefficient  Atom+Function         Bfn.  Coefficient  Atom+Function  
  ----- ------------  ---------------      ----- ------------  ---------------
    49      1.628040  5 H  s                 54     -1.628040  6 H  s          
     9      1.275358  1 C  pz                 6      0.419481  1 C  pz         
    23     -0.387918  2 C  pz                37      0.207678  3 C  pz         
    34      0.142295  3 C  pz                20     -0.120002  2 C  pz         
    48      0.064804  5 H  s                 53     -0.064804  6 H  s          

 Vector   19  Occ=0.000000D+00  E= 1.397607D-01  Symmetry=a'
              MO Center= -8.9D-01,  3.6D-01, -6.1D-16, r^2= 6.0D+00
   Bfn.  Coefficient  Atom+Function         Bfn.  Coefficient  Atom+Function  
  ----- ------------  ---------------      ----- ------------  ---------------
    17      1.816003  2 C  s                 59     -1.471771  7 H  s          
    44      1.303052  4 H  s                  7      0.973666  1 C  px         
    69      0.890178  9 H  s                  3     -0.699326  1 C  s          
    35      0.557942  3 C  px                21     -0.553335  2 C  px         
    31     -0.472108  3 C  s                 49     -0.465518  5 H  s          

 Vector   20  Occ=0.000000D+00  E= 2.260004D-01  Symmetry=a'
              MO Center=  8.2D-02,  2.7D-01, -1.1D-16, r^2= 5.4D+00
   Bfn.  Coefficient  Atom+Function         Bfn.  Coefficient  Atom+Function  
  ----- ------------  ---------------      ----- ------------  ---------------
    17      2.454716  2 C  s                  8      1.904876  1 C  py         
    21      1.894518  2 C  px                 3     -1.665025  1 C  s          
    59      1.370480  7 H  s                 36     -1.335442  3 C  py         
    64      1.038803  8 H  s                 31     -1.024530  3 C  s          
    69     -1.021342  9 H  s                 22      1.012912  2 C  py         

 Vector   21  Occ=0.000000D+00  E= 2.855423D-01  Symmetry=a'
              MO Center=  2.4D-01, -7.8D-01, -7.3D-16, r^2= 4.1D+00
   Bfn.  Coefficient  Atom+Function         Bfn.  Coefficient  Atom+Function  
  ----- ------------  ---------------      ----- ------------  ---------------
    31      3.396277  3 C  s                 22      2.911617  2 C  py         
    17     -2.830582  2 C  s                 36      2.462563  3 C  py         
    35     -1.662636  3 C  px                21     -1.430235  2 C  px         
     7      1.058303  1 C  px                64      0.714848  8 H  s          
    59     -0.590886  7 H  s                  3     -0.516615  1 C  s          

 Vector   22  Occ=0.000000D+00  E= 3.739609D-01  Symmetry=a'
              MO Center= -2.7D-01,  5.8D-01,  4.0D-15, r^2= 3.5D+00
   Bfn.  Coefficient  Atom+Function         Bfn.  Coefficient  Atom+Function  
  ----- ------------  ---------------      ----- ------------  ---------------
    22      1.244822  2 C  py                 3     -0.639009  1 C  s          
    31      0.594128  3 C  s                 43     -0.561513  4 H  s          
    44      0.473051  4 H  s                 35     -0.469101  3 C  px         
     8      0.369501  1 C  py                58     -0.364024  7 H  s          
    49     -0.344774  5 H  s                 54     -0.344774  6 H  s          

 Vector   23  Occ=0.000000D+00  E= 3.938924D-01  Symmetry=a'
              MO Center= -1.4D-01, -3.1D-01,  6.6D-16, r^2= 4.3D+00
   Bfn.  Coefficient  Atom+Function         Bfn.  Coefficient  Atom+Function  
  ----- ------------  ---------------      ----- ------------  ---------------
     8      0.710832  1 C  py                22     -0.604525  2 C  py         
    63      0.506994  8 H  s                 36      0.475880  3 C  py         
    35     -0.437497  3 C  px                19      0.358393  2 C  py         
     5     -0.345288  1 C  py                31     -0.346021  3 C  s          
    69      0.305327  9 H  s                 58     -0.275448  7 H  s          

 Vector   24  Occ=0.000000D+00  E= 4.270296D-01  Symmetry=a"
              MO Center=  7.9D-02,  6.7D-01,  8.1D-15, r^2= 3.1D+00
   Bfn.  Coefficient  Atom+Function         Bfn.  Coefficient  Atom+Function  
  ----- ------------  ---------------      ----- ------------  ---------------
     9      0.796942  1 C  pz                48      0.591983  5 H  s          
    53     -0.591983  6 H  s                 20     -0.485283  2 C  pz         
    37      0.379762  3 C  pz                34     -0.318049  3 C  pz         
    13      0.153706  1 C  d  1              49     -0.143576  5 H  s          
    54      0.143576  6 H  s                  6     -0.100792  1 C  pz         

 Vector   25  Occ=0.000000D+00  E= 4.517373D-01  Symmetry=a'
              MO Center= -1.3D-01,  2.0D-01, -8.4D-16, r^2= 3.0D+00
   Bfn.  Coefficient  Atom+Function         Bfn.  Coefficient  Atom+Function  
  ----- ------------  ---------------      ----- ------------  ---------------
     7      0.925106  1 C  px                22      0.820577  2 C  py         
     8      0.626786  1 C  py                 5     -0.491263  1 C  py         
    21     -0.477223  2 C  px                59     -0.447162  7 H  s          
     3     -0.433241  1 C  s                  4     -0.412852  1 C  px         
    58      0.402239  7 H  s                 17      0.322321  2 C  s          

 Vector   26  Occ=0.000000D+00  E= 4.819666D-01  Symmetry=a"
              MO Center=  3.7D-02, -3.6D-01,  1.9D-15, r^2= 3.9D+00
   Bfn.  Coefficient  Atom+Function         Bfn.  Coefficient  Atom+Function  
  ----- ------------  ---------------      ----- ------------  ---------------
     9      0.769788  1 C  pz                34      0.766649  3 C  pz         
    37     -0.759144  3 C  pz                23     -0.467570  2 C  pz         
    48      0.366326  5 H  s                 53     -0.366326  6 H  s          
    20      0.269589  2 C  pz                 6     -0.168156  1 C  pz         
    49     -0.148380  5 H  s                 54      0.148380  6 H  s          

 Vector   27  Occ=0.000000D+00  E= 4.865305D-01  Symmetry=a'
              MO Center=  3.3D-01, -1.2D+00,  2.6D-15, r^2= 3.1D+00
   Bfn.  Coefficient  Atom+Function         Bfn.  Coefficient  Atom+Function  
  ----- ------------  ---------------      ----- ------------  ---------------
    31      0.888262  3 C  s                 22      0.823766  2 C  py         
    68     -0.777246  9 H  s                  7      0.728758  1 C  px         
    69      0.684202  9 H  s                 63     -0.660401  8 H  s          
     3     -0.428119  1 C  s                  8      0.383979  1 C  py         
    21     -0.367838  2 C  px                64      0.310999  8 H  s          

 Vector   28  Occ=0.000000D+00  E= 5.502568D-01  Symmetry=a"
              MO Center= -2.9D-01, -3.0D-01, -2.5D-15, r^2= 3.3D+00
   Bfn.  Coefficient  Atom+Function         Bfn.  Coefficient  Atom+Function  
  ----- ------------  ---------------      ----- ------------  ---------------
    23      1.448765  2 C  pz                37     -0.987399  3 C  pz         
    20     -0.794217  2 C  pz                34      0.477939  3 C  pz         
    49      0.388374  5 H  s                 54     -0.388374  6 H  s          
    48     -0.220152  5 H  s                 53      0.220152  6 H  s          
     6     -0.171583  1 C  pz                 9     -0.124691  1 C  pz         

 Vector   29  Occ=0.000000D+00  E= 5.572886D-01  Symmetry=a'
              MO Center= -3.6D-02,  1.9D-01,  4.1D-15, r^2= 4.2D+00
   Bfn.  Coefficient  Atom+Function         Bfn.  Coefficient  Atom+Function  
  ----- ------------  ---------------      ----- ------------  ---------------
    22      1.303354  2 C  py                31      1.185028  3 C  s          
     7      0.973398  1 C  px                64     -0.926831  8 H  s          
    21     -0.693319  2 C  px                58     -0.650152  7 H  s          
    43      0.473003  4 H  s                 69      0.468236  9 H  s          
    59      0.462500  7 H  s                  3     -0.441829  1 C  s          

 Vector   30  Occ=0.000000D+00  E= 6.013720D-01  Symmetry=a'
              MO Center=  1.9D-01,  1.1D+00,  3.0D-14, r^2= 3.7D+00
   Bfn.  Coefficient  Atom+Function         Bfn.  Coefficient  Atom+Function  
  ----- ------------  ---------------      ----- ------------  ---------------
    44      1.658926  4 H  s                  7      1.616426  1 C  px         
     8     -1.171322  1 C  py                49     -0.937381  5 H  s          
    54     -0.937381  6 H  s                  4     -0.709311  1 C  px         
     3      0.648784  1 C  s                 22     -0.635652  2 C  py         
    36     -0.634098  3 C  py                69     -0.594663  9 H  s          

 Vector   31  Occ=0.000000D+00  E= 6.083519D-01  Symmetry=a"
              MO Center=  4.1D-01,  1.2D+00, -6.8D-15, r^2= 3.3D+00
   Bfn.  Coefficient  Atom+Function         Bfn.  Coefficient  Atom+Function  
  ----- ------------  ---------------      ----- ------------  ---------------
     9      2.296135  1 C  pz                49      1.662710  5 H  s          
    54     -1.662710  6 H  s                  6     -0.862952  1 C  pz         
    23     -0.756408  2 C  pz                37      0.486751  3 C  pz         
    34     -0.225825  3 C  pz                13     -0.209052  1 C  d  1       
    20      0.206037  2 C  pz                48     -0.166109  5 H  s          

 Vector   32  Occ=0.000000D+00  E= 6.204975D-01  Symmetry=a'
              MO Center= -2.4D-01,  5.6D-01, -4.8D-14, r^2= 3.5D+00
   Bfn.  Coefficient  Atom+Function         Bfn.  Coefficient  Atom+Function  
  ----- ------------  ---------------      ----- ------------  ---------------
    21     -1.615412  2 C  px                 3      1.535938  1 C  s          
    59     -1.074783  7 H  s                 17     -0.843537  2 C  s          
    22     -0.831837  2 C  py                 8     -0.735244  1 C  py         
    18      0.549656  2 C  px                43      0.527693  4 H  s          
     2     -0.511171  1 C  s                 44     -0.513090  4 H  s          

 Vector   33  Occ=0.000000D+00  E= 6.392468D-01  Symmetry=a'
              MO Center= -2.1D-02, -2.0D-01, -3.4D-16, r^2= 5.2D+00
   Bfn.  Coefficient  Atom+Function         Bfn.  Coefficient  Atom+Function  
  ----- ------------  ---------------      ----- ------------  ---------------
    35      1.885437  3 C  px                64     -1.499674  8 H  s          
    69      1.344482  9 H  s                 21     -1.307003  2 C  px         
     8     -1.261019  1 C  py                22     -1.160860  2 C  py         
    44      1.160168  4 H  s                 59     -1.005568  7 H  s          
    36      0.904938  3 C  py                32     -0.576327  3 C  px         

 Vector   34  Occ=0.000000D+00  E= 6.507307D-01  Symmetry=a'
              MO Center= -1.1D-01,  1.3D-01, -5.4D-15, r^2= 4.3D+00
   Bfn.  Coefficient  Atom+Function         Bfn.  Coefficient  Atom+Function  
  ----- ------------  ---------------      ----- ------------  ---------------
    21      2.205514  2 C  px                59      1.574616  7 H  s          
     8      1.223081  1 C  py                35      1.117364  3 C  px         
    31     -1.031464  3 C  s                 17      0.940512  2 C  s          
    64     -0.783844  8 H  s                 44     -0.668727  4 H  s          
    18     -0.545371  2 C  px                49     -0.517386  5 H  s          

 Vector   35  Occ=0.000000D+00  E= 6.941684D-01  Symmetry=a'
              MO Center=  1.3D-01, -4.0D-01,  6.8D-15, r^2= 4.5D+00
   Bfn.  Coefficient  Atom+Function         Bfn.  Coefficient  Atom+Function  
  ----- ------------  ---------------      ----- ------------  ---------------
    22      2.599412  2 C  py                36      2.135998  3 C  py         
     8      1.447508  1 C  py                35     -1.273383  3 C  px         
    69      1.138677  9 H  s                 64      1.057220  8 H  s          
    31      0.916481  3 C  s                 49     -0.712732  5 H  s          
    54     -0.712732  6 H  s                  7      0.695844  1 C  px         

 Vector   36  Occ=0.000000D+00  E= 7.725864D-01  Symmetry=a'
              MO Center= -8.4D-02, -6.4D-01,  5.5D-16, r^2= 4.0D+00
   Bfn.  Coefficient  Atom+Function         Bfn.  Coefficient  Atom+Function  
  ----- ------------  ---------------      ----- ------------  ---------------
    31      2.500830  3 C  s                 17      2.438184  2 C  s          
    30     -1.135857  3 C  s                 16     -1.081409  2 C  s          
    59     -0.939344  7 H  s                 64     -0.895489  8 H  s          
    69     -0.838811  9 H  s                  7      0.819349  1 C  px         
    21     -0.773968  2 C  px                22      0.638617  2 C  py         

 Vector   37  Occ=0.000000D+00  E= 8.078917D-01  Symmetry=a"
              MO Center= -9.8D-03,  3.4D-01,  3.2D-15, r^2= 2.4D+00
   Bfn.  Coefficient  Atom+Function         Bfn.  Coefficient  Atom+Function  
  ----- ------------  ---------------      ----- ------------  ---------------
     9      0.430383  1 C  pz                27     -0.374276  2 C  d  1       
    11     -0.366461  1 C  d -1              49      0.339724  5 H  s          
    54     -0.339724  6 H  s                 41     -0.251837  3 C  d  1       
     6     -0.193410  1 C  pz                51      0.193753  5 H  py         
    56     -0.193753  6 H  py                25      0.171773  2 C  d -1       

 Vector   38  Occ=0.000000D+00  E= 9.468571D-01  Symmetry=a"
              MO Center=  1.7D-01, -8.2D-01,  9.1D-15, r^2= 2.5D+00
   Bfn.  Coefficient  Atom+Function         Bfn.  Coefficient  Atom+Function  
  ----- ------------  ---------------      ----- ------------  ---------------
    39      0.428047  3 C  d -1              72     -0.359454  9 H  pz         
    41     -0.308787  3 C  d  1              11      0.295042  1 C  d -1       
     9     -0.265039  1 C  pz                23      0.214657  2 C  pz         
    67      0.213429  8 H  pz                25     -0.180129  2 C  d -1       
    51     -0.141653  5 H  py                56      0.141653  6 H  py         

 Vector   39  Occ=0.000000D+00  E= 9.690675D-01  Symmetry=a'
              MO Center= -3.7D-01, -6.7D-01, -3.8D-15, r^2= 3.7D+00
   Bfn.  Coefficient  Atom+Function         Bfn.  Coefficient  Atom+Function  
  ----- ------------  ---------------      ----- ------------  ---------------
    22     -3.498191  2 C  py                 3      3.236848  1 C  s          
    35      3.144564  3 C  px                31     -2.968198  3 C  s          
    21     -1.953027  2 C  px                17      1.346627  2 C  s          
    69      1.041772  9 H  s                  7     -0.917941  1 C  px         
    59     -0.913945  7 H  s                 64     -0.836405  8 H  s          

 Vector   40  Occ=0.000000D+00  E= 9.728721D-01  Symmetry=a"
              MO Center= -3.2D-02, -7.2D-01, -6.3D-16, r^2= 1.8D+00
   Bfn.  Coefficient  Atom+Function         Bfn.  Coefficient  Atom+Function  
  ----- ------------  ---------------      ----- ------------  ---------------
    41      0.437419  3 C  d  1              27     -0.339733  2 C  d  1       
    67     -0.328004  8 H  pz                25     -0.302526  2 C  d -1       
    62     -0.272036  7 H  pz                39      0.228801  3 C  d -1       
     9      0.208120  1 C  pz                34     -0.168594  3 C  pz         
    37      0.154146  3 C  pz                20     -0.125091  2 C  pz         

 Vector   41  Occ=0.000000D+00  E= 9.946491D-01  Symmetry=a'
              MO Center=  1.6D-01, -2.8D-01, -5.3D-15, r^2= 3.3D+00
   Bfn.  Coefficient  Atom+Function         Bfn.  Coefficient  Atom+Function  
  ----- ------------  ---------------      ----- ------------  ---------------
    17      5.191748  2 C  s                 31     -4.909632  3 C  s          
    36     -1.953612  3 C  py                21      1.356380  2 C  px         
    30      1.235034  3 C  s                 16     -1.148836  2 C  s          
    22     -0.775599  2 C  py                 7      0.759173  1 C  px         
    29      0.570901  3 C  s                 64      0.572206  8 H  s          

 Vector   42  Occ=0.000000D+00  E= 1.120159D+00  Symmetry=a'
              MO Center= -6.7D-03,  6.0D-01,  3.1D-15, r^2= 3.3D+00
   Bfn.  Coefficient  Atom+Function         Bfn.  Coefficient  Atom+Function  
  ----- ------------  ---------------      ----- ------------  ---------------
     3      5.486866  1 C  s                 17     -2.998292  2 C  s          
     2     -1.741099  1 C  s                 31      1.202351  3 C  s          
    22     -0.920097  2 C  py                 1     -0.869064  1 C  s          
     8     -0.804249  1 C  py                43     -0.661763  4 H  s          
    44     -0.559296  4 H  s                 48     -0.536763  5 H  s          

 Vector   43  Occ=0.000000D+00  E= 1.225755D+00  Symmetry=a'
              MO Center= -2.5D-01,  6.9D-01,  1.2D-14, r^2= 3.1D+00
   Bfn.  Coefficient  Atom+Function         Bfn.  Coefficient  Atom+Function  
  ----- ------------  ---------------      ----- ------------  ---------------
    21      3.822555  2 C  px                31     -3.252802  3 C  s          
    17      2.561324  2 C  s                 36     -1.600903  3 C  py         
    59      1.274194  7 H  s                  8      1.193908  1 C  py         
     3     -1.174486  1 C  s                 35     -0.901936  3 C  px         
    58      0.775778  7 H  s                  7     -0.701164  1 C  px         

 Vector   44  Occ=0.000000D+00  E= 1.300168D+00  Symmetry=a"
              MO Center= -3.7D-02,  4.1D-01, -2.0D-15, r^2= 2.8D+00
   Bfn.  Coefficient  Atom+Function         Bfn.  Coefficient  Atom+Function  
  ----- ------------  ---------------      ----- ------------  ---------------
    23      0.740684  2 C  pz                 9     -0.612365  1 C  pz         
    25      0.448913  2 C  d -1              51     -0.408878  5 H  py         
    56      0.408878  6 H  py                62     -0.366411  7 H  pz         
    27     -0.354012  2 C  d  1              37     -0.318078  3 C  pz         
    72      0.223398  9 H  pz                11      0.205873  1 C  d -1       

 Vector   45  Occ=0.000000D+00  E= 1.356921D+00  Symmetry=a"
              MO Center=  3.7D-01,  1.5D+00, -7.7D-15, r^2= 1.6D+00
   Bfn.  Coefficient  Atom+Function         Bfn.  Coefficient  Atom+Function  
  ----- ------------  ---------------      ----- ------------  ---------------
    47      0.573937  4 H  pz                50     -0.493250  5 H  px         
    55      0.493250  6 H  px                52     -0.324340  5 H  pz         
    57     -0.324340  6 H  pz                51      0.175782  5 H  py         
    56     -0.175782  6 H  py                25      0.057249  2 C  d -1       
    67     -0.039695  8 H  pz                 9      0.032103  1 C  pz         

 Vector   46  Occ=0.000000D+00  E= 1.358154D+00  Symmetry=a'
              MO Center=  1.0D-01, -4.9D-01, -1.7D-15, r^2= 3.3D+00
   Bfn.  Coefficient  Atom+Function         Bfn.  Coefficient  Atom+Function  
  ----- ------------  ---------------      ----- ------------  ---------------
    17     -4.045751  2 C  s                  3      3.803734  1 C  s          
    36      1.372790  3 C  py                21     -1.257558  2 C  px         
    22     -1.167030  2 C  py                 8     -1.046575  1 C  py         
     2     -0.713686  1 C  s                 31      0.697024  3 C  s          
    68      0.601868  9 H  s                 16      0.555611  2 C  s          

 Vector   47  Occ=0.000000D+00  E= 1.426661D+00  Symmetry=a'
              MO Center=  4.3D-01, -1.6D+00, -1.4D-16, r^2= 1.9D+00
   Bfn.  Coefficient  Atom+Function         Bfn.  Coefficient  Atom+Function  
  ----- ------------  ---------------      ----- ------------  ---------------
    35      1.932326  3 C  px                22     -1.106095  2 C  py         
    31     -0.831979  3 C  s                 36      0.730527  3 C  py         
    17      0.684985  2 C  s                 63     -0.678705  8 H  s          
    70     -0.645295  9 H  px                69      0.636751  9 H  s          
    68      0.631119  9 H  s                 64     -0.611673  8 H  s          

 Vector   48  Occ=0.000000D+00  E= 1.448187D+00  Symmetry=a'
              MO Center= -2.3D-01, -1.8D-01, -1.3D-16, r^2= 2.7D+00
   Bfn.  Coefficient  Atom+Function         Bfn.  Coefficient  Atom+Function  
  ----- ------------  ---------------      ----- ------------  ---------------
    22      1.742559  2 C  py                31      1.013365  3 C  s          
     3     -0.717718  1 C  s                  7      0.512243  1 C  px         
    35     -0.506114  3 C  px                21      0.480387  2 C  px         
    58      0.466685  7 H  s                 36     -0.451427  3 C  py         
    43      0.453358  4 H  s                 24      0.418447  2 C  d -2       

 Vector   49  Occ=0.000000D+00  E= 1.498897D+00  Symmetry=a"
              MO Center=  1.7D-01, -6.3D-01,  2.2D-16, r^2= 3.0D+00
   Bfn.  Coefficient  Atom+Function         Bfn.  Coefficient  Atom+Function  
  ----- ------------  ---------------      ----- ------------  ---------------
    37      0.665295  3 C  pz                25      0.534329  2 C  d -1       
    67     -0.531407  8 H  pz                23     -0.508145  2 C  pz         
    72     -0.487142  9 H  pz                13      0.410276  1 C  d  1       
    39      0.370941  3 C  d -1              48     -0.288170  5 H  s          
    53      0.288170  6 H  s                 27      0.246551  2 C  d  1       

 Vector   50  Occ=0.000000D+00  E= 1.550376D+00  Symmetry=a'
              MO Center= -3.1D-01,  3.1D-01, -1.3D-14, r^2= 3.0D+00
   Bfn.  Coefficient  Atom+Function         Bfn.  Coefficient  Atom+Function  
  ----- ------------  ---------------      ----- ------------  ---------------
    22      1.362998  2 C  py                 7      1.140191  1 C  px         
    21     -1.104627  2 C  px                31      0.850748  3 C  s          
    30      0.699780  3 C  s                 17     -0.595725  2 C  s          
    36      0.470483  3 C  py                61     -0.426719  7 H  py         
     3     -0.413592  1 C  s                 46     -0.387457  4 H  py         

 Vector   51  Occ=0.000000D+00  E= 1.569298D+00  Symmetry=a'
              MO Center= -3.7D-02,  5.3D-02, -2.8D-13, r^2= 3.3D+00
   Bfn.  Coefficient  Atom+Function         Bfn.  Coefficient  Atom+Function  
  ----- ------------  ---------------      ----- ------------  ---------------
     3      1.837472  1 C  s                 22     -1.527145  2 C  py         
    17     -1.142222  2 C  s                 35      0.971858  3 C  px         
    21     -0.901818  2 C  px                16      0.850669  2 C  s          
     8     -0.719981  1 C  py                64     -0.552851  8 H  s          
    12      0.449307  1 C  d  0              48     -0.448270  5 H  s          

 Vector   52  Occ=0.000000D+00  E= 1.571579D+00  Symmetry=a"
              MO Center= -1.4D-02,  8.9D-01,  3.1D-13, r^2= 2.9D+00
   Bfn.  Coefficient  Atom+Function         Bfn.  Coefficient  Atom+Function  
  ----- ------------  ---------------      ----- ------------  ---------------
     9      1.359540  1 C  pz                23     -0.692702  2 C  pz         
    48      0.614629  5 H  s                 53     -0.614629  6 H  s          
    13     -0.566701  1 C  d  1              62      0.560392  7 H  pz         
    47     -0.340945  4 H  pz                52     -0.333578  5 H  pz         
    57     -0.333578  6 H  pz                37      0.259368  3 C  pz         

 Vector   53  Occ=0.000000D+00  E= 1.606950D+00  Symmetry=a'
              MO Center=  1.7D-01,  2.8D-01,  1.1D-15, r^2= 3.6D+00
   Bfn.  Coefficient  Atom+Function         Bfn.  Coefficient  Atom+Function  
  ----- ------------  ---------------      ----- ------------  ---------------
     3      0.866873  1 C  s                 35      0.860213  3 C  px         
     7     -0.819266  1 C  px                16      0.761342  2 C  s          
    31     -0.719367  3 C  s                 22     -0.641262  2 C  py         
    43     -0.522052  4 H  s                 36     -0.475785  3 C  py         
    45      0.405592  4 H  px                40      0.384518  3 C  d  0       

 Vector   54  Occ=0.000000D+00  E= 1.648760D+00  Symmetry=a"
              MO Center= -4.4D-01, -2.7D-01,  1.7D-15, r^2= 3.4D+00
   Bfn.  Coefficient  Atom+Function         Bfn.  Coefficient  Atom+Function  
  ----- ------------  ---------------      ----- ------------  ---------------
     9      0.821514  1 C  pz                62     -0.665414  7 H  pz         
    72     -0.607393  9 H  pz                27      0.554326  2 C  d  1       
    47     -0.402259  4 H  pz                41      0.340592  3 C  d  1       
    39     -0.321551  3 C  d -1              52     -0.260136  5 H  pz         
    57     -0.260136  6 H  pz                48      0.223430  5 H  s          

 Vector   55  Occ=0.000000D+00  E= 1.668188D+00  Symmetry=a'
              MO Center=  1.5D-01,  6.5D-01, -7.9D-16, r^2= 3.1D+00
   Bfn.  Coefficient  Atom+Function         Bfn.  Coefficient  Atom+Function  
  ----- ------------  ---------------      ----- ------------  ---------------
     3      2.099854  1 C  s                 17     -1.903985  2 C  s          
     8     -1.872009  1 C  py                22     -1.146637  2 C  py         
     7     -0.704437  1 C  px                31     -0.665519  3 C  s          
    36     -0.624130  3 C  py                19     -0.600457  2 C  py         
    10      0.518797  1 C  d -2              26      0.448863  2 C  d  0       

 Vector   56  Occ=0.000000D+00  E= 1.694326D+00  Symmetry=a"
              MO Center=  4.4D-01, -4.9D-01, -9.9D-15, r^2= 3.2D+00
   Bfn.  Coefficient  Atom+Function         Bfn.  Coefficient  Atom+Function  
  ----- ------------  ---------------      ----- ------------  ---------------
    67      0.705398  8 H  pz                39      0.546030  3 C  d -1       
    41      0.524238  3 C  d  1               9      0.460786  1 C  pz         
    13      0.416739  1 C  d  1              72      0.411705  9 H  pz         
    11     -0.306414  1 C  d -1              47     -0.302048  4 H  pz         
    49      0.298191  5 H  s                 54     -0.298191  6 H  s          

 Vector   57  Occ=0.000000D+00  E= 1.748701D+00  Symmetry=a'
              MO Center= -7.5D-02,  4.0D-01, -2.3D-15, r^2= 3.3D+00
   Bfn.  Coefficient  Atom+Function         Bfn.  Coefficient  Atom+Function  
  ----- ------------  ---------------      ----- ------------  ---------------
     3      2.571046  1 C  s                 22     -2.278366  2 C  py         
    31     -2.101289  3 C  s                  8     -1.027591  1 C  py         
    36     -0.865720  3 C  py                 7     -0.599427  1 C  px         
    35      0.526909  3 C  px                43     -0.472429  4 H  s          
    61      0.463640  7 H  py                17     -0.457286  2 C  s          

 Vector   58  Occ=0.000000D+00  E= 1.879153D+00  Symmetry=a'
              MO Center= -3.9D-02, -2.0D-01, -2.5D-17, r^2= 3.2D+00
   Bfn.  Coefficient  Atom+Function         Bfn.  Coefficient  Atom+Function  
  ----- ------------  ---------------      ----- ------------  ---------------
    31     -4.038739  3 C  s                 17      3.819133  2 C  s          
    22     -2.026038  2 C  py                36     -1.831382  3 C  py         
    35      1.201648  3 C  px                40      0.761832  3 C  d  0       
    21      0.751393  2 C  px                 3      0.698007  1 C  s          
    19     -0.682192  2 C  py                26     -0.601171  2 C  d  0       

 Vector   59  Occ=0.000000D+00  E= 1.909186D+00  Symmetry=a"
              MO Center= -8.3D-02, -5.0D-01, -1.9D-14, r^2= 3.1D+00
   Bfn.  Coefficient  Atom+Function         Bfn.  Coefficient  Atom+Function  
  ----- ------------  ---------------      ----- ------------  ---------------
    39      0.727931  3 C  d -1              72      0.639082  9 H  pz         
    27      0.630451  2 C  d  1              62     -0.495247  7 H  pz         
    41     -0.453591  3 C  d  1              11      0.437020  1 C  d -1       
    67     -0.394951  8 H  pz                47     -0.386132  4 H  pz         
    51      0.306587  5 H  py                56     -0.306587  6 H  py         

 Vector   60  Occ=0.000000D+00  E= 1.949813D+00  Symmetry=a'
              MO Center=  1.2D-01,  7.4D-01,  1.1D-14, r^2= 3.3D+00
   Bfn.  Coefficient  Atom+Function         Bfn.  Coefficient  Atom+Function  
  ----- ------------  ---------------      ----- ------------  ---------------
    31      1.514137  3 C  s                 17     -1.311223  2 C  s          
    21     -0.889151  2 C  px                36      0.830171  3 C  py         
     3      0.603866  1 C  s                 14     -0.538807  1 C  d  2       
    10      0.491755  1 C  d -2              12     -0.491871  1 C  d  0       
    46     -0.466825  4 H  py                51     -0.460148  5 H  py         

 Vector   61  Occ=0.000000D+00  E= 1.969726D+00  Symmetry=a"
              MO Center=  1.1D-01,  2.2D-01, -2.5D-14, r^2= 3.0D+00
   Bfn.  Coefficient  Atom+Function         Bfn.  Coefficient  Atom+Function  
  ----- ------------  ---------------      ----- ------------  ---------------
    25      0.915491  2 C  d -1               9     -0.792548  1 C  pz         
    41      0.653967  3 C  d  1              49     -0.516265  5 H  s          
    54      0.516265  6 H  s                 39      0.480331  3 C  d -1       
    47      0.454964  4 H  pz                 6     -0.430328  1 C  pz         
    67      0.423286  8 H  pz                50      0.418101  5 H  px         

 Vector   62  Occ=0.000000D+00  E= 1.981133D+00  Symmetry=a'
              MO Center= -1.2D-01,  6.9D-01,  3.8D-14, r^2= 3.0D+00
   Bfn.  Coefficient  Atom+Function         Bfn.  Coefficient  Atom+Function  
  ----- ------------  ---------------      ----- ------------  ---------------
     3      2.075194  1 C  s                 22     -1.693768  2 C  py         
    17     -1.284984  2 C  s                  7     -1.177937  1 C  px         
    31     -0.745962  3 C  s                 35      0.701071  3 C  px         
    44     -0.627236  4 H  s                 61      0.594684  7 H  py         
    14     -0.442562  1 C  d  2              50      0.444593  5 H  px         

 Vector   63  Occ=0.000000D+00  E= 2.138532D+00  Symmetry=a'
              MO Center= -8.0D-02, -7.7D-01,  4.1D-15, r^2= 2.8D+00
   Bfn.  Coefficient  Atom+Function         Bfn.  Coefficient  Atom+Function  
  ----- ------------  ---------------      ----- ------------  ---------------
    17      0.938975  2 C  s                 31     -0.846396  3 C  s          
    32      0.787626  3 C  px                35      0.770909  3 C  px         
    65      0.714003  8 H  px                60     -0.681979  7 H  px         
    16      0.623290  2 C  s                 69      0.563982  9 H  s          
    22     -0.546837  2 C  py                64     -0.488414  8 H  s          

 Vector   64  Occ=0.000000D+00  E= 2.200274D+00  Symmetry=a"
              MO Center= -6.5D-03,  8.6D-01,  1.6D-14, r^2= 2.5D+00
   Bfn.  Coefficient  Atom+Function         Bfn.  Coefficient  Atom+Function  
  ----- ------------  ---------------      ----- ------------  ---------------
    11      1.115174  1 C  d -1              47     -0.681963  4 H  pz         
    27     -0.604866  2 C  d  1              51      0.537691  5 H  py         
    56     -0.537691  6 H  py                13      0.456777  1 C  d  1       
    62      0.401843  7 H  pz                41      0.337557  3 C  d  1       
    25      0.326840  2 C  d -1              72     -0.239968  9 H  pz         

 Vector   65  Occ=0.000000D+00  E= 2.207997D+00  Symmetry=a'
              MO Center=  4.5D-01, -1.2D+00,  5.9D-15, r^2= 2.4D+00
   Bfn.  Coefficient  Atom+Function         Bfn.  Coefficient  Atom+Function  
  ----- ------------  ---------------      ----- ------------  ---------------
    17      1.866078  2 C  s                 70     -0.802598  9 H  px         
    36     -0.771753  3 C  py                65      0.731287  8 H  px         
    30      0.656500  3 C  s                 38     -0.644940  3 C  d -2       
    16     -0.630939  2 C  s                 66      0.589724  8 H  py         
    35      0.543489  3 C  px                21      0.535203  2 C  px         

 Vector   66  Occ=0.000000D+00  E= 2.338160D+00  Symmetry=a'
              MO Center= -1.4D-01,  2.5D-01, -4.1D-14, r^2= 3.3D+00
   Bfn.  Coefficient  Atom+Function         Bfn.  Coefficient  Atom+Function  
  ----- ------------  ---------------      ----- ------------  ---------------
     2      0.914540  1 C  s                 60     -0.775349  7 H  px         
    17      0.767755  2 C  s                 58     -0.709453  7 H  s          
    33     -0.616929  3 C  py                16      0.594535  2 C  s          
    24     -0.565619  2 C  d -2              35     -0.545033  3 C  px         
    65     -0.546393  8 H  px                45     -0.537356  4 H  px         

 Vector   67  Occ=0.000000D+00  E= 2.354686D+00  Symmetry=a'
              MO Center=  1.1D-01,  1.1D+00, -3.5D-13, r^2= 2.5D+00
   Bfn.  Coefficient  Atom+Function         Bfn.  Coefficient  Atom+Function  
  ----- ------------  ---------------      ----- ------------  ---------------
     3      1.294317  1 C  s                 17     -1.076171  2 C  s          
     2      0.917035  1 C  s                 31      0.855210  3 C  s          
    14      0.790501  1 C  d  2              52     -0.779812  5 H  pz         
    57      0.779812  6 H  pz                48     -0.694316  5 H  s          
    53     -0.694316  6 H  s                 24      0.674504  2 C  d -2       

 Vector   68  Occ=0.000000D+00  E= 2.383262D+00  Symmetry=a'
              MO Center= -9.1D-02,  9.4D-01, -2.6D-13, r^2= 2.6D+00
   Bfn.  Coefficient  Atom+Function         Bfn.  Coefficient  Atom+Function  
  ----- ------------  ---------------      ----- ------------  ---------------
    17      1.600575  2 C  s                 31     -1.516701  3 C  s          
    43      1.134172  4 H  s                 12      1.085212  1 C  d  0       
     4      1.032301  1 C  px                21      0.980842  2 C  px         
    46     -0.883283  4 H  py                 7      0.861477  1 C  px         
    44      0.650376  4 H  s                 28     -0.632932  2 C  d  2       

 Vector   69  Occ=0.000000D+00  E= 2.418003D+00  Symmetry=a"
              MO Center=  3.8D-01,  1.2D+00,  5.9D-13, r^2= 1.7D+00
   Bfn.  Coefficient  Atom+Function         Bfn.  Coefficient  Atom+Function  
  ----- ------------  ---------------      ----- ------------  ---------------
    13      1.437443  1 C  d  1              48     -1.298111  5 H  s          
    53      1.298111  6 H  s                  6     -1.265353  1 C  pz         
     9     -1.102531  1 C  pz                52     -0.954941  5 H  pz         
    57     -0.954941  6 H  pz                49     -0.640764  5 H  s          
    54      0.640764  6 H  s                 50      0.625336  5 H  px         

 Vector   70  Occ=0.000000D+00  E= 2.442062D+00  Symmetry=a'
              MO Center= -1.4D-01, -3.1D-01,  3.4D-14, r^2= 3.7D+00
   Bfn.  Coefficient  Atom+Function         Bfn.  Coefficient  Atom+Function  
  ----- ------------  ---------------      ----- ------------  ---------------
    31      1.493005  3 C  s                 17     -1.300277  2 C  s          
    68     -1.156018  9 H  s                 71     -1.054968  9 H  py         
    43      0.919312  4 H  s                 21     -0.862267  2 C  px         
    10      0.844297  1 C  d -2              30      0.757591  3 C  s          
    38      0.732055  3 C  d -2              45      0.732199  4 H  px         

 Vector   71  Occ=0.000000D+00  E= 2.649720D+00  Symmetry=a'
              MO Center=  3.8D-02, -8.6D-01, -3.7D-15, r^2= 2.5D+00
   Bfn.  Coefficient  Atom+Function         Bfn.  Coefficient  Atom+Function  
  ----- ------------  ---------------      ----- ------------  ---------------
    31      3.088668  3 C  s                 17     -2.794973  2 C  s          
    63     -1.478368  8 H  s                 42      1.145397  3 C  d  2       
    65      1.109033  8 H  px                24     -0.897001  2 C  d -2       
    22      0.770861  2 C  py                32      0.719996  3 C  px         
    58      0.697792  7 H  s                 40     -0.664419  3 C  d  0       

 Vector   72  Occ=0.000000D+00  E= 2.951628D+00  Symmetry=a'
              MO Center= -1.0D-01, -5.0D-01,  9.3D-16, r^2= 2.3D+00
   Bfn.  Coefficient  Atom+Function         Bfn.  Coefficient  Atom+Function  
  ----- ------------  ---------------      ----- ------------  ---------------
    28      1.739035  2 C  d  2              42      1.488170  3 C  d  2       
    58     -1.380737  7 H  s                 68      1.258303  9 H  s          
    38     -1.056249  3 C  d -2              63     -0.892837  8 H  s          
    60     -0.887681  7 H  px                17      0.756656  2 C  s          
    10      0.710978  1 C  d -2              71      0.590826  9 H  py         


 center of mass
 --------------
 x =  -0.01990743 y =  -0.04695783 z =   0.00000000

 moments of inertia (a.u.)
 ------------------
         191.167081535706          -0.000000002578           0.000000000000
          -0.000000002578          39.534685553717           0.000000000000
           0.000000000000           0.000000000000         219.214938916231

     Multipole analysis of the density
     ---------------------------------

     L   x y z        total         alpha         beta         nuclear
     -   - - -        -----         -----         ----         -------
     0   0 0 0     -0.000000    -12.000000    -12.000000     24.000000

     1   1 0 0      0.002076      0.001038      0.001038     -0.000000
     1   0 1 0      0.157772      0.078886      0.078886      0.000000
     1   0 0 1      0.000000      0.000000      0.000000      0.000000

     2   2 0 0    -14.050004    -20.631958    -20.631958     27.213911
     2   1 1 0     -0.049591     -0.185583     -0.185583      0.321575
     2   1 0 1      0.000000      0.000000      0.000000      0.000000
     2   0 2 0    -14.388628    -66.275798    -66.275798    118.162968
     2   0 1 1     -0.000000     -0.000000     -0.000000      0.000000
     2   0 0 2    -15.802586    -10.750703    -10.750703      5.698821


            General Information
            -------------------
          SCF calculation type: DFT
          Wavefunction type:  closed shell.
          No. of atoms     :     9
          No. of electrons :    24
           Alpha electrons :    12
            Beta electrons :    12
          Charge           :     0
          Spin multiplicity:     1
          Use of symmetry is: on ; symmetry adaption is: on 
          Maximum number of iterations:  50
          This is a Direct SCF calculation.
          AO basis - number of functions:    72
                     number of shells:    36
          Convergence on energy requested:  1.00D-06
          Convergence on density requested:  1.00D-05
          Convergence on gradient requested:  5.00D-04

              XC Information
              --------------
          PerdewBurkeErnzerhof Exchange Functional  1.000          
            Perdew 1991 LDA Correlation Functional  1.000 local    
           PerdewBurkeErnz. Correlation Functional  1.000 non-local

             Grid Information
             ----------------
          Grid used for XC integration:  medium    
          Radial quadrature: Mura-Knowles        
          Angular quadrature: Lebedev. 
          Tag              B.-S. Rad. Rad. Pts. Rad. Cut. Ang. Pts.
          ---              ---------- --------- --------- ---------
          C                   0.70       49          10.0       434
          H                   0.35       45          11.0       434
          Grid pruning is: on 
          Number of quadrature shells:   372
          Spatial weights used:  Erf1

          Convergence Information
          -----------------------
          Convergence aids based upon iterative change in 
          total energy or number of iterations. 
          Levelshifting, if invoked, occurs when the 
          HOMO/LUMO gap drops below (HL_TOL):  1.00D-02
          DIIS, if invoked, will attempt to extrapolate 
          using up to (NFOCK): 10 stored Fock matrices.

                    Damping( 0%)  Levelshifting(0.5)       DIIS
                  --------------- ------------------- ---------------
          dE  on:    start            ASAP                start   
          dE off:    2 iters         50 iters            50 iters 


      Screening Tolerance Information
      -------------------------------
          Density screening/tol_rho:  1.00D-10
          AO Gaussian exp screening on grid/accAOfunc:  14
          CD Gaussian exp screening on grid/accCDfunc:  20
          XC Gaussian exp screening on grid/accXCfunc:  20
          Schwarz screening/accCoul:  1.00D-08

  texas integral default override: limxmem =             50000000
  texas integral default override: limxmem =             50000000


                            NWChem DFT Gradient Module
                            --------------------------



  charge          =   0.00
  wavefunction    = closed shell

  Using symmetry
  texas integral default override: limxmem =             50000000
  texas integral default override: limxmem =             50000000


                         DFT ENERGY GRADIENTS

    atom               coordinates                        gradient
                 x          y          z           x          y          z
   1 C       0.326059   2.308718   0.000000    0.009109  -0.000892   0.000000
   2 C      -0.887817  -0.237885   0.000000   -0.008169   0.004099   0.000000
   3 C       0.421150  -2.402501   0.000000    0.007273  -0.000522   0.000000
   4 H      -1.127483   3.780814   0.000000    0.003390  -0.008590   0.000000
   5 H       1.491290   2.571625  -1.688020   -0.007411  -0.002760   0.006348
   6 H       1.491290   2.571625   1.688020   -0.007411  -0.002760  -0.006348
   7 H      -2.941868  -0.303383   0.000000    0.010942   0.001396   0.000000
   8 H       2.472783  -2.416938   0.000000   -0.011326   0.000431   0.000000
   9 H      -0.542365  -4.213737   0.000000    0.003603   0.009597   0.000000

                 ----------------------------------------
                 |  Time  |  1-e(secs)   |  2-e(secs)   |
                 ----------------------------------------
                 |  CPU   |       0.00   |       0.29   |
                 ----------------------------------------
                 |  WALL  |       0.00   |       0.29   |
                 ----------------------------------------
  no constraints, skipping    0.0000000000000000     

@ Step       Energy      Delta E   Gmax     Grms     Xrms     Xmax   Walltime
@ ---- ---------------- -------- -------- -------- -------- -------- --------
@    0    -117.73021362  0.0D+00  0.01454  0.00556  0.00000  0.00000     11.6
                                                                    



                                Z-matrix (autoz)
                                -------- 

 Units are Angstrom for bonds and degrees for angles

      Type          Name      I     J     K     L     M      Value     Gradient
      ----------- --------  ----- ----- ----- ----- ----- ---------- ----------
    1 Stretch                  1     2                       1.49287   -0.01454
    2 Stretch                  1     4                       1.09475   -0.00849
    3 Stretch                  1     5                       1.09430   -0.00971
[...]
          Density screening/tol_rho:  1.00D-10
          AO Gaussian exp screening on grid/accAOfunc:  14
          CD Gaussian exp screening on grid/accCDfunc:  20
          XC Gaussian exp screening on grid/accXCfunc:  20
          Schwarz screening/accCoul:  1.00D-08

  texas integral default override: limxmem =             50000000
  texas integral default override: limxmem =             50000000


                            NWChem DFT Gradient Module
                            --------------------------



  charge          =   0.00
  wavefunction    = closed shell

  Using symmetry
  texas integral default override: limxmem =             50000000
  texas integral default override: limxmem =             50000000


                         DFT ENERGY GRADIENTS

    atom               coordinates                        gradient
                 x          y          z           x          y          z
   1 C       0.304053   2.335521   0.000000    0.000020   0.000010   0.000000
   2 C      -0.871752  -0.257593   0.000000    0.000016   0.000023   0.000000
   3 C       0.410129  -2.431483   0.000000    0.000045  -0.000020   0.000000
   4 H      -1.131484   3.829508   0.000000   -0.000013  -0.000011   0.000000
   5 H       1.506049   2.623863  -1.670003   -0.000010  -0.000009   0.000028
   6 H       1.506049   2.623863   1.670003   -0.000010  -0.000009  -0.000028
   7 H      -2.937334  -0.338622   0.000000   -0.000014   0.000003   0.000000
   8 H       2.473957  -2.477125   0.000000   -0.000015   0.000014   0.000000
   9 H      -0.556627  -4.249595   0.000000   -0.000017  -0.000001   0.000000

                 ----------------------------------------
                 |  Time  |  1-e(secs)   |  2-e(secs)   |
                 ----------------------------------------
                 |  CPU   |       0.32   |     708.98   |
                 ----------------------------------------
                 |  WALL  |       0.32   |     775.41   |
                 ----------------------------------------
  no constraints, skipping    0.0000000000000000     

  Step       Energy      Delta E   Gmax     Grms     Xrms     Xmax   Walltime
  ---- ---------------- -------- -------- -------- -------- -------- --------
@    1    -117.78581777  1.0D-07  0.00003  0.00001  0.00024  0.00069  52013.7
                                     ok       ok       ok       ok  



                                Z-matrix (autoz)
                                -------- 

 Units are Angstrom for bonds and degrees for angles

      Type          Name      I     J     K     L     M      Value     Gradient
      ----------- --------  ----- ----- ----- ----- ----- ---------- ----------
    1 Stretch                  1     2                       1.50669   -0.00002
    2 Stretch                  1     4                       1.09640    0.00000
    3 Stretch                  1     5                       1.09947   -0.00003
    4 Stretch                  1     6                       1.09947   -0.00003
    5 Stretch                  2     3                       1.33548    0.00001
    6 Stretch                  2     7                       1.09390    0.00001
    7 Stretch                  3     8                       1.09240   -0.00002
    8 Stretch                  3     9                       1.08966    0.00001
    9 Bend                     1     2     3               125.08223    0.00000
   10 Bend                     1     2     7               116.63759   -0.00000
   11 Bend                     2     1     4               111.75188   -0.00001
   12 Bend                     2     1     5               111.42613   -0.00000
   13 Bend                     2     1     6               111.42613   -0.00000
   14 Bend                     2     3     8               121.79355   -0.00000
   15 Bend                     2     3     9               121.47216   -0.00001
   16 Bend                     3     2     7               118.28018    0.00000
   17 Bend                     4     1     5               107.50357    0.00001
   18 Bend                     4     1     6               107.50357    0.00001
   19 Bend                     5     1     6               106.98406   -0.00000
   20 Bend                     8     3     9               116.73429    0.00001
   21 Torsion                  1     2     3     8           0.00000   -0.00000
   22 Torsion                  1     2     3     9         180.00000   -0.00000
   23 Torsion                  3     2     1     4         180.00000   -0.00000
   24 Torsion                  3     2     1     5          59.70590   -0.00000
   25 Torsion                  3     2     1     6         -59.70590    0.00000
   26 Torsion                  4     1     2     7           0.00000    0.00000
   27 Torsion                  5     1     2     7        -120.29410   -0.00000
   28 Torsion                  6     1     2     7         120.29410    0.00000
   29 Torsion                  7     2     3     8         180.00000    0.00000
   30 Torsion                  7     2     3     9          -0.00000    0.00000


      ----------------------
      Optimization converged
      ----------------------


  Step       Energy      Delta E   Gmax     Grms     Xrms     Xmax   Walltime
  ---- ---------------- -------- -------- -------- -------- -------- --------
@    1    -117.78581777  1.0D-07  0.00003  0.00001  0.00024  0.00069  52013.7
                                     ok       ok       ok       ok  



                                Z-matrix (autoz)
                                -------- 

 Units are Angstrom for bonds and degrees for angles

      Type          Name      I     J     K     L     M      Value     Gradient
      ----------- --------  ----- ----- ----- ----- ----- ---------- ----------
    1 Stretch                  1     2                       1.50669   -0.00002
    2 Stretch                  1     4                       1.09640    0.00000
    3 Stretch                  1     5                       1.09947   -0.00003
    4 Stretch                  1     6                       1.09947   -0.00003
    5 Stretch                  2     3                       1.33548    0.00001
    6 Stretch                  2     7                       1.09390    0.00001
    7 Stretch                  3     8                       1.09240   -0.00002
    8 Stretch                  3     9                       1.08966    0.00001
    9 Bend                     1     2     3               125.08223    0.00000
   10 Bend                     1     2     7               116.63759   -0.00000
   11 Bend                     2     1     4               111.75188   -0.00001
   12 Bend                     2     1     5               111.42613   -0.00000
   13 Bend                     2     1     6               111.42613   -0.00000
   14 Bend                     2     3     8               121.79355   -0.00000
   15 Bend                     2     3     9               121.47216   -0.00001
   16 Bend                     3     2     7               118.28018    0.00000
   17 Bend                     4     1     5               107.50357    0.00001
   18 Bend                     4     1     6               107.50357    0.00001
   19 Bend                     5     1     6               106.98406   -0.00000
   20 Bend                     8     3     9               116.73429    0.00001
   21 Torsion                  1     2     3     8           0.00000   -0.00000
   22 Torsion                  1     2     3     9         180.00000   -0.00000
   23 Torsion                  3     2     1     4         180.00000   -0.00000
   24 Torsion                  3     2     1     5          59.70590   -0.00000
   25 Torsion                  3     2     1     6         -59.70590    0.00000
   26 Torsion                  4     1     2     7           0.00000    0.00000
   27 Torsion                  5     1     2     7        -120.29410   -0.00000
   28 Torsion                  6     1     2     7         120.29410    0.00000
   29 Torsion                  7     2     3     8         180.00000    0.00000
   30 Torsion                  7     2     3     9          -0.00000    0.00000



                         Geometry "geometry" -> "geometry"
                         ---------------------------------

 Output coordinates in angstroms (scale by  1.889725989 to convert to a.u.)

  No.       Tag          Charge          X              Y              Z
 ---- ---------------- ---------- -------------- -------------- --------------
    1 C                    6.0000     0.16089804     1.23590453     0.00000000
    2 C                    6.0000    -0.46131111    -0.13631230     0.00000000
    3 C                    6.0000     0.21703095    -1.28668532     0.00000000
    4 H                    1.0000    -0.59875569     2.02648871     0.00000000
    5 H                    1.0000     0.79696687     1.38848854    -0.88372748
    6 H                    1.0000     0.79696687     1.38848854     0.88372748
    7 H                    1.0000    -1.55437028    -0.17919108     0.00000000
    8 H                    1.0000     1.30916166    -1.31083816     0.00000000
    9 H                    1.0000    -0.29455451    -2.24878890     0.00000000

      Atomic Mass 
      ----------- 

      C                 12.000000
      H                  1.007825


 Effective nuclear repulsion energy (a.u.)      70.4181352933

            Nuclear Dipole moment (a.u.) 
            ----------------------------
        X                 Y               Z
 ---------------- ---------------- ----------------
    -0.0848067058    -0.1094356826     0.0000000000

      Symmetry information
      --------------------

 Group name             Cs        
 Group number              2
 Group order               2
 No. of unique centers     8

      Symmetry unique atoms

     1    2    3    4    5    7    8    9


                Final and change from initial internal coordinates
                --------------------------------------------------



                                Z-matrix (autoz)
                                -------- 

 Units are Angstrom for bonds and degrees for angles

      Type          Name      I     J     K     L     M      Value       Change
      ----------- --------  ----- ----- ----- ----- ----- ---------- ----------
    1 Stretch                  1     2                       1.50669   -0.00003
    2 Stretch                  1     4                       1.09640    0.00002
    3 Stretch                  1     5                       1.09947   -0.00008
    4 Stretch                  1     6                       1.09947   -0.00008
    5 Stretch                  2     3                       1.33548    0.00005
    6 Stretch                  2     7                       1.09390   -0.00000
    7 Stretch                  3     8                       1.09240   -0.00003
    8 Stretch                  3     9                       1.08966    0.00000
    9 Bend                     1     2     3               125.08223   -0.00170
   10 Bend                     1     2     7               116.63759    0.00192
   11 Bend                     2     1     4               111.75188    0.02491
   12 Bend                     2     1     5               111.42613   -0.00563
   13 Bend                     2     1     6               111.42613   -0.00563
   14 Bend                     2     3     8               121.79355    0.01042
   15 Bend                     2     3     9               121.47216    0.01510
   16 Bend                     3     2     7               118.28018   -0.00022
   17 Bend                     4     1     5               107.50357    0.00337
   18 Bend                     4     1     6               107.50357    0.00337
   19 Bend                     5     1     6               106.98406   -0.02171
   20 Bend                     8     3     9               116.73429   -0.02552
   21 Torsion                  1     2     3     8           0.00000    0.00000
   22 Torsion                  1     2     3     9         180.00000    0.00000
   23 Torsion                  3     2     1     4         180.00000    0.00000
   24 Torsion                  3     2     1     5          59.70590   -0.01754
   25 Torsion                  3     2     1     6         -59.70590    0.01754
   26 Torsion                  4     1     2     7           0.00000    0.00000
   27 Torsion                  5     1     2     7        -120.29410   -0.01754
   28 Torsion                  6     1     2     7         120.29410    0.01754
   29 Torsion                  7     2     3     8         180.00000    0.00000
   30 Torsion                  7     2     3     9          -0.00000    0.00000

 ==============================================================================
                                internuclear distances
 ------------------------------------------------------------------------------
       center one      |      center two      | atomic units |  angstroms
 ------------------------------------------------------------------------------
    2 C                |   1 C                |     2.84724  |     1.50669
    3 C                |   2 C                |     2.52369  |     1.33548
    4 H                |   1 C                |     2.07190  |     1.09640
    5 H                |   1 C                |     2.07770  |     1.09947
    6 H                |   1 C                |     2.07770  |     1.09947
    7 H                |   2 C                |     2.06717  |     1.09390
    8 H                |   3 C                |     2.06433  |     1.09240
    9 H                |   3 C                |     2.05916  |     1.08966
 ------------------------------------------------------------------------------
                         number of included internuclear distances:          8
 ==============================================================================



 ==============================================================================
                                 internuclear angles
 ------------------------------------------------------------------------------
        center 1       |       center 2       |       center 3       |  degrees
 ------------------------------------------------------------------------------
    2 C                |   1 C                |   4 H                |   111.75
    2 C                |   1 C                |   5 H                |   111.43
    2 C                |   1 C                |   6 H                |   111.43
    4 H                |   1 C                |   5 H                |   107.50
    4 H                |   1 C                |   6 H                |   107.50
    5 H                |   1 C                |   6 H                |   106.98
    1 C                |   2 C                |   3 C                |   125.08
    1 C                |   2 C                |   7 H                |   116.64
    3 C                |   2 C                |   7 H                |   118.28
    2 C                |   3 C                |   8 H                |   121.79
    2 C                |   3 C                |   9 H                |   121.47
    8 H                |   3 C                |   9 H                |   116.73
 ------------------------------------------------------------------------------
                            number of included internuclear angles:         12
 ==============================================================================




 Task  times  cpu:    49236.9s     wall:    49331.9s


                                NWChem Input Module
                                -------------------


 Summary of allocated global arrays
-----------------------------------
  No active global arrays


MA_summarize_allocated_blocks: starting scan ...
MA_summarize_allocated_blocks: scan completed: 0 heap blocks, 0 stack blocks
MA usage statistics:

	allocation statistics:
					      heap	     stack
					      ----	     -----
	current number of blocks	         0	         0
	maximum number of blocks	        25	        58
	current total bytes		         0	         0
	maximum total bytes		   1274672	 572528568
	maximum total K-bytes		      1275	    572529
	maximum total M-bytes		         2	       573


                                     CITATION
                                     --------
                Please cite the following reference when publishing
                           results obtained with NWChem:

          E. Apra, E. J. Bylaska, W. A. de Jong, N. Govind, K. Kowalski,
       T. P. Straatsma, M. Valiev, H. J. J. van Dam, Y. Alexeev, J. Anchell,
       V. Anisimov, F. W. Aquino, R. Atta-Fynn, J. Autschbach, N. P. Bauman,
     J. C. Becca, D. E. Bernholdt, K. Bhaskaran-Nair, S. Bogatko, P. Borowski,
         J. Boschen, J. Brabec, A. Bruner, E. Cauet, Y. Chen, G. N. Chuev,
      C. J. Cramer, J. Daily, M. J. O. Deegan, T. H. Dunning Jr., M. Dupuis,
   K. G. Dyall, G. I. Fann, S. A. Fischer, A. Fonari, H. Fruchtl, L. Gagliardi,
      J. Garza, N. Gawande, S. Ghosh, K. Glaesemann, A. W. Gotz, J. Hammond,
       V. Helms, E. D. Hermes, K. Hirao, S. Hirata, M. Jacquelin, L. Jensen,
   B. G. Johnson, H. Jonsson, R. A. Kendall, M. Klemm, R. Kobayashi, V. Konkov,
      S. Krishnamoorthy, M. Krishnan, Z. Lin, R. D. Lins, R. J. Littlefield,
      A. J. Logsdail, K. Lopata, W. Ma, A. V. Marenich, J. Martin del Campo,
   D. Mejia-Rodriguez, J. E. Moore, J. M. Mullin, T. Nakajima, D. R. Nascimento,
    J. A. Nichols, P. J. Nichols, J. Nieplocha, A. Otero-de-la-Roza, B. Palmer,
    A. Panyala, T. Pirojsirikul, B. Peng, R. Peverati, J. Pittner, L. Pollack,
   R. M. Richard, P. Sadayappan, G. C. Schatz, W. A. Shelton, D. W. Silverstein,
   D. M. A. Smith, T. A. Soares, D. Song, M. Swart, H. L. Taylor, G. S. Thomas,
            V. Tipparaju, D. G. Truhlar, K. Tsemekhman, T. Van Voorhis,
      A. Vazquez-Mayagoitia, P. Verma, O. Villa, A. Vishnu, K. D. Vogiatzis,
        D. Wang, J. H. Weare, M. J. Williamson, T. L. Windus, K. Wolinski,
        A. T. Wong, Q. Wu, C. Yang, Q. Yu, M. Zacharias, Z. Zhang, Y. Zhao,
                                and R. J. Harrison
                        "NWChem: Past, present, and future
                         J. Chem. Phys. 152, 184102 (2020)
                               doi:10.1063/5.0004997

                                      AUTHORS
                                      -------
  E. Apra, E. J. Bylaska, N. Govind, K. Kowalski, M. Valiev, D. Mejia-Rodriguez,
       A. Kunitsa, N. P. Bauman, A. Panyala, W. A. de Jong, T. P. Straatsma,
        H. J. J. van Dam, D. Wang, T. L. Windus, J. Hammond, J. Autschbach,
    K. Bhaskaran-Nair, J. Brabec, K. Lopata, S. A. Fischer, S. Krishnamoorthy,
     M. Jacquelin, W. Ma, M. Klemm, O. Villa, Y. Chen, V. Anisimov, F. Aquino,
    S. Hirata, M. T. Hackler, Eric Hermes, L. Jensen, J. E. Moore, J. C. Becca,
      V. Konjkov, T. Risthaus, M. Malagoli, A. Marenich, A. Otero-de-la-Roza,
        J. Mullin, P. Nichols, R. Peverati, J. Pittner, Y. Zhao, P.-D. Fan,
        A. Fonari, M. J. Williamson, R. J. Harrison, J. R. Rehr, M. Dupuis,
     D. Silverstein, D. M. A. Smith, J. Nieplocha, V. Tipparaju, M. Krishnan,
     B. E. Van Kuiken, A. Vazquez-Mayagoitia, M. Swart, Q. Wu, T. Van Voorhis,
     A. A. Auer, M. Nooijen, L. D. Crosby, E. Brown, G. Cisneros, G. I. Fann,
   H. Fruchtl, J. Garza, K. Hirao, R. A. Kendall, J. A. Nichols, K. Tsemekhman,
    K. Wolinski, J. Anchell, D. E. Bernholdt, P. Borowski, T. Clark, D. Clerc,
   H. Dachsel, M. J. O. Deegan, K. Dyall, D. Elwood, E. Glendening, M. Gutowski,
   A. C. Hess, J. Jaffe, B. G. Johnson, J. Ju, R. Kobayashi, R. Kutteh, Z. Lin,
   R. Littlefield, X. Long, B. Meng, T. Nakajima, S. Niu, L. Pollack, M. Rosing,
   K. Glaesemann, G. Sandrone, M. Stave, H. Taylor, G. Thomas, J. H. van Lenthe,
                               A. T. Wong, Z. Zhang.

 Total times  cpu:    51799.8s     wall:    52013.9s
