refund: UserID = kowalski
refund: SLURM Job ID = 2705367
refund: Number of nodes          = 1
refund: Number of cores per node = 16
refund: Number of cores          = 16
refund: Amount of time requested = 0:30
refund: Directory = /home/kowalski/NWCHEM_GITHUB/nwchem_2018_clean/QA/chem_library_tests/LiH_sto3G_FCI
 
Processor list
 
g966
 
 argument  1 = /home/kowalski/NWCHEM_GITHUB/nwchem_2018_clean/QA/chem_library_tests/LiH_sto3G_FCI/lih_sto-3g_fci_3.000.nw
All connections between all procs tested: SUCCESS
 


============================== echo of input deck ==============================
start lih_rhf_sto-3g_fci_3.000

echo

geometry units angstrom
symmetry c1
Li   0.000000000000000   0.000000000000000   0.000000000000000
H    0.000000000000000   0.000000000000000   3.000000000000000
end

basis
H library sto-3g
Li library sto-3g
end

scf
thresh 1.0e-10
tol2e 1.0e-10
singlet
rhf
end

tce
ccsd
tilesize 1
2eorb
2emet 13
nroots 5
thresh 1.0d-6
end

set tce:print_integrals T
set tce:qorb 6
set tce:qela 2
set tce:qelb 2

task tce energy

mcscf
  active  6
  actelec 4
  multiplicity 1
end

task mcscf
================================================================================


                                         
                                         
 
 
              Northwest Computational Chemistry Package (NWChem) 6.8
              ------------------------------------------------------
 
 
                    Environmental Molecular Sciences Laboratory
                       Pacific Northwest National Laboratory
                                Richland, WA 99352
 
                              Copyright (c) 1994-2018
                       Pacific Northwest National Laboratory
                            Battelle Memorial Institute
 
             NWChem is an open-source computational chemistry package
                        distributed under the terms of the
                      Educational Community License (ECL) 2.0
             A copy of the license is included with this distribution
                              in the LICENSE.TXT file
 
                                  ACKNOWLEDGMENT
                                  --------------

            This software and its documentation were developed at the
            EMSL at Pacific Northwest National Laboratory, a multiprogram
            national laboratory, operated for the U.S. Department of Energy
            by Battelle under Contract Number DE-AC05-76RL01830. Support
            for this work was provided by the Department of Energy Office
            of Biological and Environmental Research, Office of Basic
            Energy Sciences, and the Office of Advanced Scientific Computing.


           Job information
           ---------------

    hostname        = g966
    program         = /home/kowalski/NWCHEM_GITHUB/nwchem_2018_clean/bin/LINUX64/nwchem
    date            = Thu Oct 18 14:17:16 2018

    compiled        = Thu_Oct_18_11:35:40_2018
    source          = /home/kowalski/NWCHEM_GITHUB/nwchem_2018_clean
    nwchem branch   = Development
    nwchem revision = nwchem_on_git-644-g67ea22a
    ga revision     = 5.6.5
    use scalapack   = T
    input           = /home/kowalski/NWCHEM_GITHUB/nwchem_2018_clean/QA/chem_library_tests/LiH_sto3G_FCI/lih_sto-3g_fci_3.000.nw
    prefix          = lih_rhf_sto-3g_fci_3.000.
    data base       = ./lih_rhf_sto-3g_fci_3.000.db
    status          = startup
    nproc           =       16
    time left       =     -1s



           Memory information
           ------------------

    heap     =   13107194 doubles =    100.0 Mbytes
    stack    =   13107199 doubles =    100.0 Mbytes
    global   =   26214400 doubles =    200.0 Mbytes (distinct from heap & stack)
    total    =   52428793 doubles =    400.0 Mbytes
    verify   = yes
    hardfail = no 


           Directory information
           ---------------------
 
  0 permanent = .
  0 scratch   = .
 
 
 
 
                                NWChem Input Module
                                -------------------
 
 

 Scaling coordinates for geometry "geometry" by  1.889725989
 (inverse scale =  0.529177249)

 Turning off AUTOSYM since
 SYMMETRY directive was detected!
 

          ------
          auto-z
          ------
     1 autoz failed with cvr_scaling = 1.2 changing to 1.3
     2 autoz failed with cvr_scaling = 1.3 changing to 1.4
     3 autoz failed with cvr_scaling = 1.4 changing to 1.5
     4 autoz failed with cvr_scaling = 1.5 changing to 1.6
     5 autoz failed with cvr_scaling = 1.6 changing to 1.7

 AUTOZ failed to generate good internal coordinates.
 Cartesian coordinates will be used in optimizations.

 
 
                             Geometry "geometry" -> ""
                             -------------------------
 
 Output coordinates in angstroms (scale by  1.889725989 to convert to a.u.)
 
  No.       Tag          Charge          X              Y              Z
 ---- ---------------- ---------- -------------- -------------- --------------
    1 Li                   3.0000     0.00000000     0.00000000    -0.75000000
    2 H                    1.0000     0.00000000     0.00000000     2.25000000
 
      Atomic Mass 
      ----------- 
 
      Li                 7.016000
      H                  1.007825
 

 Effective nuclear repulsion energy (a.u.)       0.5291772490

            Nuclear Dipole moment (a.u.) 
            ----------------------------
        X                 Y               Z
 ---------------- ---------------- ----------------
     0.0000000000     0.0000000000     0.0000000000
 
 
            XYZ format geometry
            -------------------
     2
 geometry
 Li                    0.00000000     0.00000000    -0.75000000
 H                     0.00000000     0.00000000     2.25000000
 
  library name resolved from: environment
  library file name is: <
 /home/scicons/cascade/apps/nwchem-6.8.1_rhel7/src/basis/libraries/>
  
                      Basis "ao basis" -> "" (cartesian)
                      -----
  H (Hydrogen)
  ------------
            Exponent  Coefficients 
       -------------- ---------------------------------------------------------
  1 S  3.42525091E+00  0.154329
  1 S  6.23913730E-01  0.535328
  1 S  1.68855400E-01  0.444635
 
  Li (Lithium)
  ------------
            Exponent  Coefficients 
       -------------- ---------------------------------------------------------
  1 S  1.61195750E+01  0.154329
  1 S  2.93620070E+00  0.535328
  1 S  7.94650500E-01  0.444635
 
  2 S  6.36289700E-01 -0.099967
  2 S  1.47860100E-01  0.399513
  2 S  4.80887000E-02  0.700115
 
  3 P  6.36289700E-01  0.155916
  3 P  1.47860100E-01  0.607684
  3 P  4.80887000E-02  0.391957
 


 Summary of "ao basis" -> "" (cartesian)
 ------------------------------------------------------------------------------
       Tag                 Description            Shells   Functions and Types
 ---------------- ------------------------------  ------  ---------------------
 H                           sto-3g                  1        1   1s
 Li                          sto-3g                  3        5   2s1p


                                 NWChem SCF Module
                                 -----------------
 
 

  ao basis        = "ao basis"
  functions       =     6
  atoms           =     2
  closed shells   =     2
  open shells     =     0
  charge          =   0.00
  wavefunction    = RHF 
  input vectors   = atomic
  output vectors  = ./lih_rhf_sto-3g_fci_3.000.movecs
  use symmetry    = F
  symmetry adapt  = F


 Summary of "ao basis" -> "ao basis" (cartesian)
 ------------------------------------------------------------------------------
       Tag                 Description            Shells   Functions and Types
 ---------------- ------------------------------  ------  ---------------------
 H                           sto-3g                  1        1   1s
 Li                          sto-3g                  3        5   2s1p



 Forming initial guess at       0.9s

 
      Superposition of Atomic Density Guess
      -------------------------------------
 
 Sum of atomic energies:          -7.78210783
 
      Non-variational initial energy
      ------------------------------

 Total energy =      -7.522050
 1-e energy   =     -11.267616
 2-e energy   =       3.216389
 HOMO         =      -0.123222
 LUMO         =      -0.006382
 

 Starting SCF solution at       0.9s



 ----------------------------------------------
         Quadratically convergent ROHF

 Convergence threshold     :          1.000E-10
 Maximum no. of iterations :           30
 Final Fock-matrix accuracy:          1.000E-10
 ----------------------------------------------


              iter       energy          gnorm     gmax       time
             ----- ------------------- --------- --------- --------
                 1       -7.6864509921  2.92D-01  2.16D-01      0.4
                 2       -7.7092387273  4.77D-02  3.31D-02      0.5
                 3       -7.7108149145  5.24D-03  4.74D-03      0.5
                 4       -7.7108299215  5.83D-05  5.76D-05      0.5
                 5       -7.7108299244  1.28D-08  1.26D-08      0.5
                 6       -7.7108299244  8.78D-12  6.99D-12      0.5


       Final RHF  results 
       ------------------ 

         Total SCF energy =     -7.710829924370
      One-electron energy =    -11.361224790199
      Two-electron energy =      3.121217616829
 Nuclear repulsion energy =      0.529177249000

        Time for solution =      0.1s


             Final eigenvalues
             -----------------

              1      
    1   -2.3839
    2   -0.1755
    3    0.0572
    4    0.1511
    5    0.1511
    6    0.2343
 
                       ROHF Final Molecular Orbital Analysis
                       -------------------------------------
 
 Vector    2  Occ=2.000000D+00  E=-1.754869D-01
              MO Center= -4.6D-17,  3.9D-17,  1.3D+00, r^2= 2.7D+00
   Bfn.  Coefficient  Atom+Function         Bfn.  Coefficient  Atom+Function  
  ----- ------------  ---------------      ----- ------------  ---------------
     6      0.668347  2 H  s                  2      0.577466  1 Li s          
     5      0.272154  1 Li pz                 1     -0.157837  1 Li s          
 
 Vector    3  Occ=0.000000D+00  E= 5.722937D-02
              MO Center=  4.6D-18, -2.8D-17, -1.1D+00, r^2= 4.2D+00
   Bfn.  Coefficient  Atom+Function         Bfn.  Coefficient  Atom+Function  
  ----- ------------  ---------------      ----- ------------  ---------------
     2      0.800649  1 Li s                  5     -0.503161  1 Li pz         
     6     -0.379084  2 H  s                  1     -0.218022  1 Li s          
 
 Vector    4  Occ=0.000000D+00  E= 1.510980D-01
              MO Center=  6.0D-18,  9.4D-17, -7.5D-01, r^2= 3.3D+00
   Bfn.  Coefficient  Atom+Function         Bfn.  Coefficient  Atom+Function  
  ----- ------------  ---------------      ----- ------------  ---------------
     4      0.997947  1 Li py         
 
 Vector    5  Occ=0.000000D+00  E= 1.510980D-01
              MO Center=  2.5D-16, -1.6D-17, -7.5D-01, r^2= 3.3D+00
   Bfn.  Coefficient  Atom+Function         Bfn.  Coefficient  Atom+Function  
  ----- ------------  ---------------      ----- ------------  ---------------
     3      0.997947  1 Li px         
 
 Vector    6  Occ=0.000000D+00  E= 2.343380D-01
              MO Center= -3.5D-16, -7.6D-17,  4.8D-01, r^2= 3.6D+00
   Bfn.  Coefficient  Atom+Function         Bfn.  Coefficient  Atom+Function  
  ----- ------------  ---------------      ----- ------------  ---------------
     5      0.843674  1 Li pz                 6     -0.682352  2 H  s          
     2      0.322790  1 Li s          
 

 center of mass
 --------------
 x =   0.00000000 y =   0.00000000 z =  -0.70522272

 moments of inertia (a.u.)
 ------------------
          28.322620971416           0.000000000000           0.000000000000
           0.000000000000          28.322620971416           0.000000000000
           0.000000000000           0.000000000000           0.000000000000
 
  Mulliken analysis of the total density
  --------------------------------------

    Atom       Charge   Shell Charges
 -----------   ------   -------------------------------------------------------
    1 Li   3     2.94   1.99  0.74  0.22
    2 H    1     1.06   1.06
 
       Multipole analysis of the density wrt the origin
       ------------------------------------------------
 
     L   x y z        total         open         nuclear
     -   - - -        -----         ----         -------
     0   0 0 0     -0.000000      0.000000      4.000000
 
     1   1 0 0      0.000000      0.000000      0.000000
     1   0 1 0     -0.000000      0.000000      0.000000
     1   0 0 1     -2.013422      0.000000      0.000000
 
     2   2 0 0     -4.326701      0.000000      0.000000
     2   1 1 0      0.000000      0.000000      0.000000
     2   1 0 1     -0.000000      0.000000      0.000000
     2   0 2 0     -4.326701      0.000000      0.000000
     2   0 1 1      0.000000      0.000000      0.000000
     2   0 0 2     -2.947743      0.000000     24.104684
 
 ------------------------------------
     Number of active orbitals      6
     Number of active alpha electrons      2
     Number of active beta electrons       2
 ------------------------------------
                   NWChem Extensible Many-Electron Theory Module
                   ---------------------------------------------
 
              ======================================================
                   This portion of the program was automatically
                  generated by a Tensor Contraction Engine (TCE).
                  The development of this portion of the program
                 and TCE was supported by US Department of Energy,
                Office of Science, Office of Basic Energy Science.
                      TCE is a product of Battelle and PNNL.
              Please cite: S.Hirata, J.Phys.Chem.A 107, 9887 (2003).
              ======================================================
 
            General Information
            -------------------
      Number of processors :    16
         Wavefunction type : Restricted Hartree-Fock
          No. of electrons :     4
           Alpha electrons :     2
            Beta electrons :     2
           No. of orbitals :    12
            Alpha orbitals :     6
             Beta orbitals :     6
        Alpha frozen cores :     0
         Beta frozen cores :     0
     Alpha frozen virtuals :     0
      Beta frozen virtuals :     0
         Spin multiplicity : singlet 
    Number of AO functions :     6
       Number of AO shells :     4
        Use of symmetry is : off
      Symmetry adaption is : off
         Schwarz screening : 0.10D-09
 
          Correlation Information
          -----------------------
          Calculation type : Coupled-cluster singles & doubles                           
   Perturbative correction : none                                                        
            Max iterations :      100
        Residual threshold : 0.10D-05
     T(0) DIIS level shift : 0.00D+00
     L(0) DIIS level shift : 0.00D+00
     T(1) DIIS level shift : 0.00D+00
     L(1) DIIS level shift : 0.00D+00
     T(R) DIIS level shift : 0.00D+00
     T(I) DIIS level shift : 0.00D+00
   CC-T/L Amplitude update :  5-th order DIIS
     No. of excited states :     5
               Target root :     1
           Target symmetry : none
      Symmetry restriction : off
   Dipole & oscillator str : off
                I/O scheme : Global Array Library
        L-threshold :  0.10D-05
        EOM-threshold :  0.10D-05
 no EOMCCSD initial starts read in
 TCE RESTART OPTIONS
 READ_INT:   F
 WRITE_INT:  F
 READ_TA:    F
 WRITE_TA:   F
 READ_XA:    F
 WRITE_XA:   F
 READ_IN3:   F
 WRITE_IN3:  F
 SLICE:      F
 D4D5:       F
 
            Memory Information
            ------------------
          Available GA space size is     419430364 doubles
          Available MA space size is      26213748 doubles
 
 Maximum block size supplied by input
 Maximum block size         1 doubles

 tile_dim =      1

 Block   Spin    Irrep     Size     Offset   Alpha
 -------------------------------------------------
   1    alpha     a      1 doubles       0       1
   2    alpha     a      1 doubles       1       2
   3    beta      a      1 doubles       2       1
   4    beta      a      1 doubles       3       2
   5    alpha     a      1 doubles       4       5
   6    alpha     a      1 doubles       5       6
   7    alpha     a      1 doubles       6       7
   8    alpha     a      1 doubles       7       8
   9    beta      a      1 doubles       8       5
  10    beta      a      1 doubles       9       6
  11    beta      a      1 doubles      10       7
  12    beta      a      1 doubles      11       8

 Global array virtual files algorithm will be used

 Parallel file system coherency ......... OK
 
 Fock matrix recomputed
 1-e file size   =               36
 1-e file name   = ./lih_rhf_sto-3g_fci_3.000.f1
 Cpu & wall time / sec            0.0            0.0
 4-electron integrals stored in orbital form
 
 v2    file size   =              231
 4-index algorithm nr.  13 is used
 imaxsize =       30
 imaxsize ichop =        0
 begin_one_electron_integrals
    1    1        -4.5739980624
    2    1         0.1028440436
    3    1         0.1549085784
    6    1         0.0381576771
    1    2         0.1028440436
    2    2        -1.1066143327
    3    2        -0.0296771417
    6    2        -0.0843493451
    1    3         0.1549085784
    2    3        -0.0296771417
    3    3        -1.0495781603
    6    3        -0.0003223404
    4    4        -1.0411793662
    5    5        -1.0411793662
    1    6         0.0381576771
    2    6        -0.0843493451
    3    6        -0.0003223404
    6    6        -1.0158151879
 end_one_electron_integrals
 begin_two_electron_integrals
    1    1    1    1        1.6599423035
    2    1    1    1       -0.1029639163
    2    1    2    1        0.0104975710
    3    1    1    1       -0.1428647224
    3    1    2    1        0.0121521367
    3    1    3    1        0.0212925297
    3    1    2    2       -0.0073829366
    4    1    4    1        0.0097815069
    5    1    5    1        0.0097815069
    6    1    1    1       -0.0502153727
    6    1    2    1        0.0071075415
    6    1    3    1        0.0025627380
    6    1    6    1        0.0092604001
    6    1    2    2        0.0059020865
    6    1    3    2       -0.0032499920
    6    1    3    3       -0.0099551592
    6    1    4    4       -0.0013278535
    6    1    5    5       -0.0013278535
    2    2    1    1        0.2703227300
    2    2    2    1        0.0001198727
    2    2    2    2        0.4009795353
    3    2    1    1        0.0656813221
    3    2    2    1       -0.0027220171
    3    2    3    1       -0.0011669425
    3    2    2    2       -0.0895333657
    3    2    3    2        0.0610302863
    4    2    4    1        0.0077590073
    4    2    4    2        0.0218345871
    5    2    5    1        0.0077590073
    5    2    5    2        0.0218345871
    6    2    1    1        0.0912854065
    6    2    2    1       -0.0002535226
    6    2    3    1       -0.0051777928
    6    2    6    1        0.0036187505
    6    2    2    2       -0.0911139265
    6    2    3    2        0.0733995077
    6    2    6    2        0.1215936690
    6    2    3    3       -0.0033996637
    6    2    4    4        0.0494058395
    6    2    5    5        0.0494058395
    3    3    1    1        0.3671951326
    3    3    2    1       -0.0069978876
    3    3    3    1       -0.0009497656
    3    3    2    2        0.2273700428
    3    3    3    2        0.0146537104
    3    3    3    3        0.2960112210
    4    3    4    1        0.0105055684
    4    3    4    2        0.0242422174
    4    3    4    3        0.0405028848
    5    3    5    1        0.0105055684
    5    3    5    2        0.0242422174
    5    3    5    3        0.0405028848
    6    3    1    1       -0.0433106432
    6    3    2    1        0.0022781545
    6    3    3    1       -0.0036686331
    6    3    6    1        0.0063705112
    6    3    2    2        0.0814529362
    6    3    3    2       -0.0499849476
    6    3    6    2       -0.0518536719
    6    3    3    3       -0.0312248505
    6    3    6    3        0.0582493566
    6    3    4    4       -0.0218829859
    6    3    5    5       -0.0218829859
    4    4    1    1        0.3963524770
    4    4    2    1       -0.0035771481
    4    4    3    1       -0.0050305349
    4    4    2    2        0.2155942435
    4    4    3    2        0.0361597403
    4    4    3    3        0.2663974460
    4    4    4    4        0.3129455112
    5    4    5    4        0.0168691395
    6    4    4    1        0.0040950316
    6    4    4    2        0.0145552877
    6    4    4    3        0.0068408529
    6    4    6    4        0.0165852885
    5    5    1    1        0.3963524770
    5    5    2    1       -0.0035771481
    5    5    3    1       -0.0050305349
    5    5    2    2        0.2155942435
    5    5    3    2        0.0361597403
    5    5    3    3        0.2663974460
    5    5    4    4        0.2792072321
    5    5    5    5        0.3129455112
    6    5    5    1        0.0040950316
    6    5    5    2        0.0145552877
    6    5    5    3        0.0068408529
    6    5    6    5        0.0165852885
    6    6    1    1        0.3423343989
    6    6    2    1       -0.0009209931
    6    6    3    1       -0.0081617183
    6    6    6    1        0.0050490145
    6    6    2    2        0.3481692448
    6    6    3    2       -0.0469941873
    6    6    6    2       -0.0355585320
    6    6    3    3        0.2521057284
    6    6    6    3        0.0414950450
    6    6    4    4        0.2496315054
    6    6    5    5        0.2496315054
    6    6    6    6        0.3377252813
 end_two_electron_integrals
 enrep_tce =   0.529177248999698     
  EHF(A)             =        -7.71082992
  EHF(total)         =        -7.71082992
  Shift (HFtot-HFA)  =        -0.00000000
 Cpu & wall time / sec            0.0            0.0
 T1-number-of-tasks                     8
 
 t1 file size   =                8
 t1 file name   = ./lih_rhf_sto-3g_fci_3.000.t1
 t1 file handle =       -998
 T2-number-of-boxes                    94
 
 t2 file size   =               94
 t2 file name   = ./lih_rhf_sto-3g_fci_3.000.t2
 t2 file handle =       -996

 CCSD iterations
 -----------------------------------------------------------------
 Iter          Residuum       Correlation     Cpu    Wall    V2*C2
 -----------------------------------------------------------------
    1   0.0929085630882  -0.0443510363231     0.0     0.0     0.0
    2   0.0438038418126  -0.0671371130496     0.0     0.0     0.0
    3   0.0220623804784  -0.0773336730519     0.0     0.0     0.0
    4   0.0125048052042  -0.0822384578761     0.0     0.0     0.0
    5   0.0095151338208  -0.0843453532589     0.0     0.0     0.0
 MICROCYCLE DIIS UPDATE:                     5                     5
    6   0.0030435728581  -0.0870221733815     0.0     0.0     0.0
    7   0.0009784462238  -0.0876088149432     0.0     0.0     0.0
    8   0.0007385031166  -0.0877209970726     0.0     0.0     0.0
    9   0.0002658756968  -0.0878441827468     0.0     0.0     0.0
   10   0.0003303809410  -0.0878519058684     0.0     0.0     0.0
 MICROCYCLE DIIS UPDATE:                    10                     5
   11   0.0000889729584  -0.0879260127936     0.0     0.0     0.0
   12   0.0000829801310  -0.0879179209156     0.0     0.0     0.0
   13   0.0000403059231  -0.0879217262945     0.0     0.0     0.0
   14   0.0000466880167  -0.0879211727781     0.0     0.0     0.0
   15   0.0000278407245  -0.0879241152330     0.0     0.0     0.0
 MICROCYCLE DIIS UPDATE:                    15                     5
   16   0.0000047465076  -0.0879303633846     0.0     0.0     0.0
   17   0.0000022028907  -0.0879312385181     0.0     0.0     0.0
   18   0.0000008318509  -0.0879316868465     0.0     0.0     0.0
 -----------------------------------------------------------------
 Iterations converged
 CCSD correlation energy / hartree =        -0.087931686846516
 CCSD total energy / hartree       =        -7.798761611216913

 Singles contributions
     3a   (alpha) ---     2a   (alpha)        0.1830324965

 Doubles contributions
     3a   (alpha)     3a   (beta ) ---     2a   (alpha)     2a   (beta )       -0.3754796683
     3a   (alpha)     6a   (beta ) ---     2a   (alpha)     2a   (beta )       -0.2696216861
     6a   (alpha)     3a   (beta ) ---     2a   (alpha)     2a   (beta )       -0.2696216861
     6a   (alpha)     6a   (beta ) ---     2a   (alpha)     2a   (beta )       -0.2106799878
 Ground state specification:
 exp(T)|Ref>~(1+T)|Ref>
 ------- a(p)+/a(q) strings ----------

 singles norm

 doubles norm

 Reference string
  0.845829818322281      :(1a)+ (2a)+ (1b)+ (2b)+ |0>

 Singles strings
  0.154814343302823      :(3a)+ (2a)  (1a)+ (2a)+ (1b)+ (2b)+ |0>
  0.154814343302823      :(3b)+ (2b)  (1a)+ (2a)+ (1b)+ (2b)+ |0>

 Doubles strings
 -0.317591899612189      :(3a)+ (3b)+ (2b)  (2a)  (1a)+ (2a)+ (1b)+ (2b)+ |0>
 -0.228054061746992      :(3a)+ (6b)+ (2b)  (2a)  (1a)+ (2a)+ (1b)+ (2b)+ |0>
 -0.228054061746992      :(6a)+ (3b)+ (2b)  (2a)  (1a)+ (2a)+ (1b)+ (2b)+ |0>
 -0.178199415808384      :(6a)+ (6b)+ (2b)  (2a)  (1a)+ (2a)+ (1b)+ (2b)+ |0>
 -------------------------------------
 
 Ground-state symmetry is a   
 
 =========================================
 Excited-state calculation ( a   symmetry)
 =========================================
 Dim. of EOMCC iter. space      500
 
 x1 file size   =                8
 
 x2 file size   =               94

 EOMCCSD SOLVER TYPE  1

 No. of initial right vectors   10

 EOM-CCSD right-hand side iterations
 --------------------------------------------------------------
      Residuum       Omega / hartree  Omega / eV    Cpu    Wall
 --------------------------------------------------------------

 Iteration   1 using   10 trial vectors
   0.1342485336869   0.1176067610448    3.20024
   0.1980418859672   0.1732488775947    4.71434
   0.1980418859672   0.1732488775947    4.71434
   0.1033661894189   0.4065195301035   11.06196
   0.1202203691192   0.4524213666888   12.31102     0.5     0.6

 Iteration   2 using   15 trial vectors
   0.0194771470599   0.0754036382262    2.05184
   0.0179077652877   0.0988985395206    2.69117
   0.0179078332212   0.0989212458925    2.69179
   0.0545209742922   0.3412822817096    9.28677
   0.0410164076385   0.3861653746638   10.50810     0.3     0.4

 Iteration   3 using   20 trial vectors
   0.0100200123104   0.0744661279618    2.02633
   0.0028477969840   0.0988707065003    2.69041
   0.0028472269925   0.0988711320066    2.69042
   0.0093247268387   0.3392065986426    9.23029
   0.0462354075272   0.3857145682728   10.49583     0.3     0.4

 Iteration   4 using   25 trial vectors
   0.0007014862118   0.0743145959697    2.02220
   0.0001229784214   0.0988780980027    2.69061
   0.0001273022356   0.0988782941486    2.69062
   0.0004100667349   0.3391828824987    9.22964
   0.0260334748071   0.3844615511255   10.46174     0.4     0.4

 Iteration   5 using   30 trial vectors
   0.0000364509423   0.0743121218569    2.02214
   0.0000128995223   0.0988783754843    2.69062
   0.0000144875592   0.0988783943290    2.69062
   0.0000720053271   0.3391823197535    9.22962
   0.0016452847324   0.3842419451301   10.45576     0.4     0.5

 Iteration   6 using   35 trial vectors
   0.0000046370634   0.0743121357217    2.02214
   0.0000005883279   0.0988783970937    2.69062
   0.0000006109643   0.0988783975687    2.69062
   0.0000059748016   0.3391822851313    9.22962
   0.0002848299958   0.3842423447765   10.45577     0.4     0.4

 Iteration   7 using   38 trial vectors
   0.0000001457686   0.0743121343731    2.02214
   0.0000005103316   0.0988783960010    2.69062
   0.0000006109643   0.0988783975687    2.69062
   0.0000003057616   0.3391822792989    9.22962
   0.0000066833095   0.3842423582134   10.45577     0.3     0.3

 Iteration   8 using   39 trial vectors
   0.0000000000000   0.0743121335183    2.02214
   0.0000005103316   0.0988783960010    2.69062
   0.0000006109643   0.0988783975687    2.69062
   0.0000003057616   0.3391822792989    9.22962
   0.0000000000000   0.3842423703556   10.45577     0.2     0.2
 --------------------------------------------------------------
 Iterations converged
 ------------------

 Excited state root  1
 Excitation energy / hartree =        0.074312133518342
                   / eV      =        2.022136900203681
 largest EOMCCSD amplitudes: R1 and R2

 Singles contributions
     3a   (alpha) ---     2a   (alpha)       -0.5948658943
     6a   (alpha) ---     2a   (alpha)        0.2460426512

 Doubles contributions
     3a   (alpha)     3a   (beta ) ---     2a   (alpha)     2a   (beta )        0.7183076542
     6a   (alpha)     6a   (beta ) ---     2a   (alpha)     2a   (beta )       -0.2298883406
 Excited state specification:
 Rexp(T)|Ref>~(R_1+R_2)|Ref>
 ------- a(p)+/a(q) strings ----------

 singles norm

 doubles norm

 Singles strings
 -0.503181440655167      :(3a)+ (2a)  (1a)+ (2a)+ (1b)+ (2b)+ |0>
 -0.503181440655167      :(3b)+ (2b)  (1a)+ (2a)+ (1b)+ (2b)+ |0>
  0.208121018321422      :(6a)+ (2a)  (1a)+ (2a)+ (1b)+ (2b)+ |0>
  0.208121018321422      :(6b)+ (2b)  (1a)+ (2a)+ (1b)+ (2b)+ |0>

 Doubles strings
  0.607597584182366      :(3a)+ (3b)+ (2b)  (2a)  (1a)+ (2a)+ (1b)+ (2b)+ |0>
 -0.194456511132550      :(6a)+ (6b)+ (2b)  (2a)  (1a)+ (2a)+ (1b)+ (2b)+ |0>
 -------------------------------------
 ------------------

 Excited state root  2
 Excitation energy / hartree =        0.098878396000973
                   / eV      =        2.690619199315133
 largest EOMCCSD amplitudes: R1 and R2

 Singles contributions
     5a   (alpha) ---     2a   (alpha)       -0.6713777219

 Doubles contributions
     3a   (alpha)     5a   (beta ) ---     2a   (alpha)     2a   (beta )        0.4213040031
     5a   (alpha)     3a   (beta ) ---     2a   (alpha)     2a   (beta )        0.4213040079
     5a   (alpha)     6a   (beta ) ---     2a   (alpha)     2a   (beta )        0.2977233747
     6a   (alpha)     5a   (beta ) ---     2a   (alpha)     2a   (beta )        0.2977233727
 Excited state specification:
 Rexp(T)|Ref>~(R_1+R_2)|Ref>
 ------- a(p)+/a(q) strings ----------

 singles norm

 doubles norm

 Singles strings
 -0.560695910138670      :(5a)+ (2a)  (1a)+ (2a)+ (1b)+ (2b)+ |0>
 -0.560695910138670      :(5b)+ (2b)  (1a)+ (2a)+ (1b)+ (2b)+ |0>

 Doubles strings
  0.351848778629842      :(3a)+ (5b)+ (2b)  (2a)  (1a)+ (2a)+ (1b)+ (2b)+ |0>
  0.351848782613161      :(5a)+ (3b)+ (2b)  (2a)  (1a)+ (2a)+ (1b)+ (2b)+ |0>
  0.248641372972037      :(5a)+ (6b)+ (2b)  (2a)  (1a)+ (2a)+ (1b)+ (2b)+ |0>
  0.248641371264804      :(6a)+ (5b)+ (2b)  (2a)  (1a)+ (2a)+ (1b)+ (2b)+ |0>
 -------------------------------------
 ------------------

 Excited state root  3
 Excitation energy / hartree =        0.098878397568716
                   / eV      =        2.690619241975615
 largest EOMCCSD amplitudes: R1 and R2

 Singles contributions
     4a   (alpha) ---     2a   (alpha)        0.6713776837

 Doubles contributions
     3a   (alpha)     4a   (beta ) ---     2a   (alpha)     2a   (beta )       -0.4213039829
     4a   (alpha)     3a   (beta ) ---     2a   (alpha)     2a   (beta )       -0.4213039829
     4a   (alpha)     6a   (beta ) ---     2a   (alpha)     2a   (beta )       -0.2977233578
     6a   (alpha)     4a   (beta ) ---     2a   (alpha)     2a   (beta )       -0.2977233578
 Excited state specification:
 Rexp(T)|Ref>~(R_1+R_2)|Ref>
 ------- a(p)+/a(q) strings ----------

 singles norm

 doubles norm

 Singles strings
  0.560695909437949      :(4a)+ (2a)  (1a)+ (2a)+ (1b)+ (2b)+ |0>
  0.560695909437949      :(4b)+ (2b)  (1a)+ (2a)+ (1b)+ (2b)+ |0>

 Doubles strings
 -0.351848781321121      :(3a)+ (4b)+ (2b)  (2a)  (1a)+ (2a)+ (1b)+ (2b)+ |0>
 -0.351848781321122      :(4a)+ (3b)+ (2b)  (2a)  (1a)+ (2a)+ (1b)+ (2b)+ |0>
 -0.248641372708553      :(4a)+ (6b)+ (2b)  (2a)  (1a)+ (2a)+ (1b)+ (2b)+ |0>
 -0.248641372708553      :(6a)+ (4b)+ (2b)  (2a)  (1a)+ (2a)+ (1b)+ (2b)+ |0>
 -------------------------------------
 ------------------

 Excited state root  4
 Excitation energy / hartree =        0.339182279298917
                   / eV      =        9.229623352103658
 largest EOMCCSD amplitudes: R1 and R2

 Singles contributions
     5a   (alpha) ---     2a   (alpha)       -0.1112890875

 Doubles contributions
     3a   (alpha)     5a   (beta ) ---     2a   (alpha)     2a   (beta )        0.7527178268
     5a   (alpha)     3a   (beta ) ---     2a   (alpha)     2a   (beta )       -0.1515337259
     5a   (alpha)     6a   (beta ) ---     2a   (alpha)     2a   (beta )       -0.1176250796
     6a   (alpha)     5a   (beta ) ---     2a   (alpha)     2a   (beta )        0.6060169857
 Excited state specification:
 Rexp(T)|Ref>~(R_1+R_2)|Ref>
 ------- a(p)+/a(q) strings ----------

 singles norm

 doubles norm

 Singles strings
 -0.111545414126769      :(5a)+ (2a)  (1a)+ (2a)+ (1b)+ (2b)+ |0>
 -0.111545414126769      :(5b)+ (2b)  (1a)+ (2a)+ (1b)+ (2b)+ |0>

 Doubles strings
  0.754451524534788      :(3a)+ (5b)+ (2b)  (2a)  (1a)+ (2a)+ (1b)+ (2b)+ |0>
 -0.151882745993613      :(5a)+ (3b)+ (2b)  (2a)  (1a)+ (2a)+ (1b)+ (2b)+ |0>
 -0.117895999619009      :(5a)+ (6b)+ (2b)  (2a)  (1a)+ (2a)+ (1b)+ (2b)+ |0>
  0.607412794600989      :(6a)+ (5b)+ (2b)  (2a)  (1a)+ (2a)+ (1b)+ (2b)+ |0>
 -------------------------------------
 ------------------

 Excited state root  5
 Excitation energy / hartree =        0.384242370355576
                   / eV      =       10.455771338148466
 largest EOMCCSD amplitudes: R1 and R2

 Singles contributions
     3a   (alpha) ---     2a   (alpha)       -0.5299904509
     6a   (alpha) ---     2a   (alpha)       -0.6131138970

 Doubles contributions
     3a   (alpha)     3a   (beta ) ---     2a   (alpha)     2a   (beta )       -0.3114187971
     3a   (alpha)     6a   (beta ) ---     2a   (alpha)     2a   (beta )       -0.2435349497
     4a   (alpha)     4a   (beta ) ---     2a   (alpha)     2a   (beta )        0.2488159167
     5a   (alpha)     5a   (beta ) ---     2a   (alpha)     2a   (beta )        0.2488159167
     6a   (alpha)     3a   (beta ) ---     2a   (alpha)     2a   (beta )       -0.2435349497
 Excited state specification:
 Rexp(T)|Ref>~(R_1+R_2)|Ref>
 ------- a(p)+/a(q) strings ----------

 singles norm

 doubles norm

 Singles strings
 -0.412220435344275      :(3a)+ (2a)  (1a)+ (2a)+ (1b)+ (2b)+ |0>
 -0.412220435344275      :(3b)+ (2b)  (1a)+ (2a)+ (1b)+ (2b)+ |0>
 -0.476872889151617      :(6a)+ (2a)  (1a)+ (2a)+ (1b)+ (2b)+ |0>
 -0.476872889151617      :(6b)+ (2b)  (1a)+ (2a)+ (1b)+ (2b)+ |0>

 Doubles strings
 -0.242217934079363      :(3a)+ (3b)+ (2b)  (2a)  (1a)+ (2a)+ (1b)+ (2b)+ |0>
 -0.189418663659512      :(3a)+ (6b)+ (2b)  (2a)  (1a)+ (2a)+ (1b)+ (2b)+ |0>
  0.193526138646368      :(4a)+ (4b)+ (2b)  (2a)  (1a)+ (2a)+ (1b)+ (2b)+ |0>
  0.193526138646368      :(5a)+ (5b)+ (2b)  (2a)  (1a)+ (2a)+ (1b)+ (2b)+ |0>
 -0.189418663659512      :(6a)+ (3b)+ (2b)  (2a)  (1a)+ (2a)+ (1b)+ (2b)+ |0>
 -------------------------------------

 Task  times  cpu:        3.5s     wall:        4.2s
 
 
                                NWChem Input Module
                                -------------------
 
 
 
                            NWChem Direct MCSCF Module
                            --------------------------
 
 
     -----------------------------------
       Basis functions:              6
       Inactive shells:              0
       Active shells:                6
       Active electrons:             4
       Symmetry:                    a       
       Multiplicity:                 1
       Orbital rotations:            0
     -----------------------------------

     -----------------------------------
       E2 extrapolation:             F
       Conjugacy:                    T
       Micro CI relax:               T
       Canonical orbitals:           T
       Maximum iterations:          20
       Converge threshold:    1.00E-04
       Conjugacy resets:            20
       Initial levelshift:        0.10
     -----------------------------------

   input molecular orbitals = ./lih_rhf_sto-3g_fci_3.000.movecs
  output molecular orbtials = ./lih_rhf_sto-3g_fci_3.000.movecs

       No. of determinants:           225


  Starting Orbital Energies
    -2.383908    -0.175487     0.057229     0.151098     0.151098     0.234338

  Orbital Symmetry Irreps
a    a    a    a    a    a   



          %%%%% MacroIteration   1 %%%%%


          Number of sigma calls:       10
                       o<<<<< (aa):             0.00
                       o<<<<< (bb):             0.00
                       o<<<<< (ab):             0.00
                       o<<<<< (total)           0.00
                       o<<<<< (aa) ff           0.00
                       o<<<<< (aa) gop          0.00
                       o<<<<< (aa) dot          0.00
                       o<<<<< (ab) str          0.00
                       o<<<<< (ab) gath         0.00
                       o<<<<< (ab) dotab        0.00
                       o<<<<< (ab) scat         0.00
                       o<<<<< (ab) sync         0.00
                       o<<<<< Density           0.00
                       o<<<<< Density one       0.00
                       o<<<<< Density two       0.00
                       o<<<<< Density ab        0.00
                       o<<<<< Spin adapt        0.00
                       o<<<<< Symm adapt        0.00

                       o<<<<< (ab) max sync:      0.00

           >>>| Valence CI:             -8.328020415708
           >>>| MCSCF energy:           -7.798843166708
           >>>| Gradient norm:          0.000000000D+00




     ==============================
            MCSCF Converged
     ==============================



          Canonical Eigenvalues

              1      
    1   -2.3839
    2   -0.1755
    3    0.0572
    4    0.1511
    5    0.1511
    6    0.2343
 
