 argument  1 = /Users/edo/nwchem/nwchem/QA/tests/cho_cs_analytic_trans/cho_cs_analytic_trans.nw
  NWChem w/ OpenMP: maximum threads =    1



============================== echo of input deck ==============================
echo

start cho_cs_analytic_trans
title cho_cs_analytic_trans



geometry noautoz units angstrom nocenter
symmetry c1
  C     10.00000000     20.00000000     30.00000000
  O     11.18337200     20.00000000     30.00000000
  H      9.36848179     20.94387462     30.00000000
end

basis
"*" library 6-311G**
end

charge 0

property
 shielding
end

set dft:tol_rho 1d-30
set int:acc_std 1d-32
set int:cando_txs f
set dft:job_grid_acc 1d-20

dft
odft
mult 2
grid xfine
direct
xc becke88 perdew86
convergence energy 1e-8 diis 80 ncyds 80 damp 0
end

task dft property
================================================================================


                                         
                                         


             Northwest Computational Chemistry Package (NWChem) 7.0.1
             --------------------------------------------------------


                    Environmental Molecular Sciences Laboratory
                       Pacific Northwest National Laboratory
                                Richland, WA 99352

                              Copyright (c) 1994-2020
                       Pacific Northwest National Laboratory
                            Battelle Memorial Institute

             NWChem is an open-source computational chemistry package
                        distributed under the terms of the
                      Educational Community License (ECL) 2.0
             A copy of the license is included with this distribution
                              in the LICENSE.TXT file

                                  ACKNOWLEDGMENT
                                  --------------

            This software and its documentation were developed at the
            EMSL at Pacific Northwest National Laboratory, a multiprogram
            national laboratory, operated for the U.S. Department of Energy
            by Battelle under Contract Number DE-AC05-76RL01830. Support
            for this work was provided by the Department of Energy Office
            of Biological and Environmental Research, Office of Basic
            Energy Sciences, and the Office of Advanced Scientific Computing.


           Job information
           ---------------

    hostname        = WE40672
    program         = /Users/edo/nwchem/nwchem/bin/MACX64/nwchem
    date            = Fri Apr  8 11:53:07 2022

    compiled        = Fri_Apr_08_11:52:45_2022
    source          = /Users/edo/nwchem/nwchem
    nwchem branch   = 7.0.0
    nwchem revision = nwchem_on_git-3640-g2b2ee1532b
    ga revision     = 5.8.1
    use scalapack   = T
    input           = /Users/edo/nwchem/nwchem/QA/tests/cho_cs_analytic_trans/cho_cs_analytic_trans.nw
    prefix          = cho_cs_analytic_trans.
    data base       = ./cho_cs_analytic_trans.db
    status          = startup
    nproc           =        2
    time left       =     -1s



           Memory information
           ------------------

    heap     =   26214396 doubles =    200.0 Mbytes
    stack    =   26214401 doubles =    200.0 Mbytes
    global   =   52428800 doubles =    400.0 Mbytes (distinct from heap & stack)
    total    =  104857597 doubles =    800.0 Mbytes
    verify   = yes
    hardfail = no 


           Directory information
           ---------------------

  0 permanent = .
  0 scratch   = .




                                NWChem Input Module
                                -------------------


                               cho_cs_analytic_trans
                               ---------------------

 Scaling coordinates for geometry "geometry" by  1.889725989
 (inverse scale =  0.529177249)

 Turning off AUTOSYM since
 SYMMETRY directive was detected!



                             Geometry "geometry" -> ""
                             -------------------------

 Output coordinates in angstroms (scale by  1.889725989 to convert to a.u.)

  No.       Tag          Charge          X              Y              Z
 ---- ---------------- ---------- -------------- -------------- --------------
    1 C                    6.0000    10.00000000    20.00000000    30.00000000
    2 O                    8.0000    11.18337200    20.00000000    30.00000000
    3 H                    1.0000     9.36848179    20.94387462    30.00000000

      Atomic Mass 
      ----------- 

      C                 12.000000
      O                 15.994910
      H                  1.007825


 Effective nuclear repulsion energy (a.u.)      26.3297764084

            Nuclear Dipole moment (a.u.) 
            ----------------------------
        X                 Y               Z
 ---------------- ---------------- ----------------
   300.1554924938   568.7014609734   850.3766948610


            XYZ format geometry
            -------------------
     3
 geometry
 C                    10.00000000    20.00000000    30.00000000
 O                    11.18337200    20.00000000    30.00000000
 H                     9.36848179    20.94387462    30.00000000

 ==============================================================================
                                internuclear distances
 ------------------------------------------------------------------------------
       center one      |      center two      | atomic units |  angstroms
 ------------------------------------------------------------------------------
    2 O                |   1 C                |     2.23625  |     1.18337
    3 H                |   1 C                |     2.14608  |     1.13566
 ------------------------------------------------------------------------------
                         number of included internuclear distances:          2
 ==============================================================================



 ==============================================================================
                                 internuclear angles
 ------------------------------------------------------------------------------
        center 1       |       center 2       |       center 3       |  degrees
 ------------------------------------------------------------------------------
    2 O                |   1 C                |   3 H                |   123.79
 ------------------------------------------------------------------------------
                            number of included internuclear angles:          1
 ==============================================================================





 Summary of "ao basis" -> "" (cartesian)
 ------------------------------------------------------------------------------
       Tag                 Description            Shells   Functions and Types
 ---------------- ------------------------------  ------  ---------------------
 *                          6-311G**                  on all atoms 


  perdew86 is a nonlocal functional; adding perdew81 local functional. 
                              NWChem Property Module
                              ----------------------


                               cho_cs_analytic_trans

  itol2e modified to match energy
  convergence criterion.

                                 NWChem DFT Module
                                 -----------------


                               cho_cs_analytic_trans


                      Basis "ao basis" -> "ao basis" (cartesian)
                      -----
  C (Carbon)
  ----------
            Exponent  Coefficients 
       -------------- ---------------------------------------------------------
  1 S  4.56324000E+03  0.001967
  1 S  6.82024000E+02  0.015231
  1 S  1.54973000E+02  0.076127
  1 S  4.44553000E+01  0.260801
  1 S  1.30290000E+01  0.616462
  1 S  1.82773000E+00  0.221006

  2 S  2.09642000E+01  0.114660
  2 S  4.80331000E+00  0.919999
  2 S  1.45933000E+00 -0.003031

  3 P  2.09642000E+01  0.040249
  3 P  4.80331000E+00  0.237594
  3 P  1.45933000E+00  0.815854

  4 S  4.83456000E-01  1.000000

  5 P  4.83456000E-01  1.000000

  6 S  1.45585000E-01  1.000000

  7 P  1.45585000E-01  1.000000

  8 D  6.26000000E-01  1.000000

  O (Oxygen)
  ----------
            Exponent  Coefficients 
       -------------- ---------------------------------------------------------
  1 S  8.58850000E+03  0.001895
  1 S  1.29723000E+03  0.014386
  1 S  2.99296000E+02  0.070732
  1 S  8.73771000E+01  0.240001
  1 S  2.56789000E+01  0.594797
  1 S  3.74004000E+00  0.280802

  2 S  4.21175000E+01  0.113889
  2 S  9.62837000E+00  0.920811
  2 S  2.85332000E+00 -0.003274

  3 P  4.21175000E+01  0.036511
  3 P  9.62837000E+00  0.237153
  3 P  2.85332000E+00  0.819702

  4 S  9.05661000E-01  1.000000

  5 P  9.05661000E-01  1.000000

  6 S  2.55611000E-01  1.000000

  7 P  2.55611000E-01  1.000000

  8 D  1.29200000E+00  1.000000

  H (Hydrogen)
  ------------
            Exponent  Coefficients 
       -------------- ---------------------------------------------------------
  1 S  3.38650000E+01  0.025494
  1 S  5.09479000E+00  0.190373
  1 S  1.15879000E+00  0.852161

  2 S  3.25840000E-01  1.000000

  3 S  1.02741000E-01  1.000000

  4 P  7.50000000E-01  1.000000



 Summary of "ao basis" -> "ao basis" (cartesian)
 ------------------------------------------------------------------------------
       Tag                 Description            Shells   Functions and Types
 ---------------- ------------------------------  ------  ---------------------
 C                          6-311G**                 8       19   4s3p1d
 O                          6-311G**                 8       19   4s3p1d
 H                          6-311G**                 4        6   3s1p




 Summary of "ao basis" -> "ao basis" (cartesian)
 ------------------------------------------------------------------------------
       Tag                 Description            Shells   Functions and Types
 ---------------- ------------------------------  ------  ---------------------
 C                          6-311G**                 8       19   4s3p1d
 O                          6-311G**                 8       19   4s3p1d
 H                          6-311G**                 4        6   3s1p



int_init: setting std/high accuracies to  1.0D-32  1.0D-64
  int_init: cando_txs set to always be  F
  Caching 1-el integrals 

            General Information
            -------------------
          SCF calculation type: DFT
          Wavefunction type:  spin polarized.
          No. of atoms     :     3
          No. of electrons :    15
           Alpha electrons :     8
            Beta electrons :     7
          Charge           :     0
          Spin multiplicity:     2
          Use of symmetry is: off; symmetry adaption is: off
          Maximum number of iterations:  50
          This is a Direct SCF calculation.
          AO basis - number of functions:    44
                     number of shells:    20
          Convergence on energy requested:  1.00D-08
          Convergence on density requested:  1.00D-05
          Convergence on gradient requested:  5.00D-04

              XC Information
              --------------
                    Becke 1988 Exchange Functional  1.000          
                Perdew 1981 Correlation Functional  1.000 local    
                Perdew 1986 Correlation Functional  1.000 non-local

             Grid Information
             ----------------
          Grid used for XC integration:  xfine     
          Radial quadrature: Mura-Knowles        
          Angular quadrature: Lebedev. 
          Tag              B.-S. Rad. Rad. Pts. Rad. Cut. Ang. Pts.
          ---              ---------- --------- --------- ---------
          C                   0.70      100          10.0      1454
          O                   0.60      100          10.0      1454
          H                   0.35      100          10.0      1202
          Grid pruning is: on 
          Number of quadrature shells:   300
          Spatial weights used:  Erf1

          Convergence Information
          -----------------------
          Convergence aids based upon iterative change in 
          total energy or number of iterations. 
          Levelshifting, if invoked, occurs when the 
          HOMO/LUMO gap drops below (HL_TOL):  1.00D-02
          DIIS, if invoked, will attempt to extrapolate 
          using up to (NFOCK): 80 stored Fock matrices.

                    Damping( 0%)  Levelshifting(0.5)       DIIS
                  --------------- ------------------- ---------------
          dE  on:    start            ASAP                start   
          dE off:    2 iters         50 iters            80 iters 


      Screening Tolerance Information
      -------------------------------
          Density screening/tol_rho:  1.00D-30
          AO Gaussian exp screening on grid/accAOfunc:  18
          CD Gaussian exp screening on grid/accCDfunc:  20
          XC Gaussian exp screening on grid/accXCfunc:  20
          Schwarz screening/accCoul:  1.00D-09


      Superposition of Atomic Density Guess
      -------------------------------------

 Sum of atomic energies:        -112.94448641

      Non-variational initial energy
      ------------------------------

 Total energy =    -113.416825
 1-e energy   =    -205.865334
 2-e energy   =      66.118733
 HOMO         =      -0.119913
 LUMO         =      -0.003902

   Time after variat. SCF:      0.2
   Time prior to 1st pass:      0.2

 Grid_pts file          = ./cho_cs_analytic_trans.gridpts.0
 Record size in doubles =  12289        No. of grid_pts per rec  =   3070
 Max. records in memory =     80        Max. recs in file   = 506625431

 Grid integrated density:      14.999998431907
 Requested integration accuracy:   0.10E-19

           Memory utilization after 1st SCF pass: 
           Heap Space remaining (MW):        0.00                 102
          Stack Space remaining (MW):       26.21            26213884

   convergence    iter        energy       DeltaE   RMS-Dens  Diis-err    time
 ---------------- ----- ----------------- --------- --------- ---------  ------
 d= 0,ls=0.0,diis     1   -113.8042658882 -1.40D+02  1.54D-02  2.36D-01     1.0
                                                     1.27D-02  2.32D-01
 Grid integrated density:      14.999998821541
 Requested integration accuracy:   0.10E-19
 d= 0,ls=0.0,diis     2   -113.1354420335  6.69D-01  1.32D-02  1.86D+00     1.7
                                                     1.06D-02  1.78D+00
 Grid integrated density:      14.999998486965
 Requested integration accuracy:   0.10E-19
 d= 0,ls=0.0,diis     3   -113.8797282903 -7.44D-01  2.23D-03  2.75D-02     2.5
                                                     1.49D-03  2.75D-02
 Grid integrated density:      14.999998473954
 Requested integration accuracy:   0.10E-19
 d= 0,ls=0.0,diis     4   -113.8874732083 -7.74D-03  1.41D-03  2.84D-03     3.2
                                                     6.23D-04  2.33D-03
 Grid integrated density:      14.999999997215
 Requested integration accuracy:   0.10E-19
 d= 0,ls=0.0,diis     5   -113.8885283964 -1.06D-03  3.69D-04  1.31D-04     4.1
                                                     1.49D-04  1.19D-04
 Grid integrated density:      14.999999997223
 Requested integration accuracy:   0.10E-19
 d= 0,ls=0.0,diis     6   -113.8885954710 -6.71D-05  4.42D-05  3.62D-06     5.0
                                                     2.16D-05  3.05D-06
 Grid integrated density:      14.999999997225
 Requested integration accuracy:   0.10E-19
 d= 0,ls=0.0,diis     7   -113.8885972590 -1.79D-06  6.24D-06  1.76D-07     5.7
                                                     3.98D-06  1.52D-07
 Grid integrated density:      14.999999997224
 Requested integration accuracy:   0.10E-19
 d= 0,ls=0.0,diis     8   -113.8885973264 -6.74D-08  6.43D-07  1.49D-09     6.5
                                                     5.69D-07  1.31D-09
 Grid integrated density:      14.999999997224
 Requested integration accuracy:   0.10E-19
 d= 0,ls=0.0,diis     9   -113.8885973270 -6.45D-10  1.40D-07  5.20D-11     7.2
                                                     1.16D-07  6.81D-11


         Total DFT energy =     -113.888597327001
      One electron energy =     -206.827392889581
           Coulomb energy =       80.894709500857
    Exchange-Corr. energy =      -14.285690346705
 Nuclear repulsion energy =       26.329776408429

 Numeric. integr. density =       14.999999997224

     Total iterative time =      7.0s



                    DFT Final Alpha Molecular Orbital Analysis
                    ------------------------------------------

 Vector    1  Occ=1.000000D+00  E=-1.883243D+01
              MO Center=  1.1D+01,  2.0D+01,  3.0D+01, r^2= 1.5D-02
   Bfn.  Coefficient  Atom+Function         Bfn.  Coefficient  Atom+Function  
  ----- ------------  ---------------      ----- ------------  ---------------
    20      0.552815  2 O  s                 21      0.464457  2 O  s          

 Vector    2  Occ=1.000000D+00  E=-1.000122D+01
              MO Center=  1.0D+01,  2.0D+01,  3.0D+01, r^2= 2.8D-02
   Bfn.  Coefficient  Atom+Function         Bfn.  Coefficient  Atom+Function  
  ----- ------------  ---------------      ----- ------------  ---------------
     1      0.564672  1 C  s                  2      0.457439  1 C  s          
     6      0.025773  1 C  s          

 Vector    3  Occ=1.000000D+00  E=-1.023878D+00
              MO Center=  1.1D+01,  2.0D+01,  3.0D+01, r^2= 4.5D-01
   Bfn.  Coefficient  Atom+Function         Bfn.  Coefficient  Atom+Function  
  ----- ------------  ---------------      ----- ------------  ---------------
    25      0.513669  2 O  s                 29      0.333274  2 O  s          
     6      0.250024  1 C  s                 21     -0.176310  2 O  s          
    26     -0.117301  2 O  px                 7      0.115296  1 C  px         
    20     -0.110639  2 O  s                  3      0.098313  1 C  px         
     2     -0.096108  1 C  s                 22     -0.082518  2 O  px         

 Vector    4  Occ=1.000000D+00  E=-5.572990D-01
              MO Center=  1.0D+01,  2.0D+01,  3.0D+01, r^2= 1.3D+00
   Bfn.  Coefficient  Atom+Function         Bfn.  Coefficient  Atom+Function  
  ----- ------------  ---------------      ----- ------------  ---------------
     6      0.402471  1 C  s                 10      0.271917  1 C  s          
    29     -0.273103  2 O  s                 25     -0.248202  2 O  s          
    40      0.200038  3 H  s                 39      0.147439  3 H  s          
     2     -0.139065  1 C  s                 26     -0.117287  2 O  px         
     8      0.099644  1 C  py                 1     -0.089384  1 C  s          

 Vector    5  Occ=1.000000D+00  E=-4.473787D-01
              MO Center=  1.1D+01,  2.0D+01,  3.0D+01, r^2= 1.1D+00
   Bfn.  Coefficient  Atom+Function         Bfn.  Coefficient  Atom+Function  
  ----- ------------  ---------------      ----- ------------  ---------------
    26      0.289327  2 O  px                29      0.273217  2 O  s          
    22      0.209440  2 O  px                30      0.209686  2 O  px         
    25      0.194864  2 O  s                  7     -0.164677  1 C  px         
    27      0.163251  2 O  py                 8      0.158686  1 C  py         
    40      0.134261  3 H  s                  6     -0.126194  1 C  s          

 Vector    6  Occ=1.000000D+00  E=-3.969887D-01
              MO Center=  1.1D+01,  2.0D+01,  3.0D+01, r^2= 8.9D-01
   Bfn.  Coefficient  Atom+Function         Bfn.  Coefficient  Atom+Function  
  ----- ------------  ---------------      ----- ------------  ---------------
    28      0.365195  2 O  pz                32      0.295263  2 O  pz         
    24      0.250629  2 O  pz                 9      0.239733  1 C  pz         
    13      0.162267  1 C  pz                 5      0.158312  1 C  pz         
    16      0.071273  1 C  dxz               35     -0.041049  2 O  dxz        

 Vector    7  Occ=1.000000D+00  E=-3.858285D-01
              MO Center=  1.1D+01,  2.0D+01,  3.0D+01, r^2= 1.1D+00
   Bfn.  Coefficient  Atom+Function         Bfn.  Coefficient  Atom+Function  
  ----- ------------  ---------------      ----- ------------  ---------------
    27      0.304096  2 O  py                31      0.245679  2 O  py         
    23      0.210131  2 O  py                10     -0.191604  1 C  s          
     7      0.184701  1 C  px                26     -0.168818  2 O  px         
     8      0.166037  1 C  py                30     -0.133074  2 O  px         
     3      0.131805  1 C  px                12      0.126999  1 C  py         

 Vector    8  Occ=1.000000D+00  E=-1.783032D-01
              MO Center=  1.0D+01,  2.0D+01,  3.0D+01, r^2= 1.6D+00
   Bfn.  Coefficient  Atom+Function         Bfn.  Coefficient  Atom+Function  
  ----- ------------  ---------------      ----- ------------  ---------------
    10      0.526927  1 C  s                 31      0.339877  2 O  py         
    27      0.285462  2 O  py                40     -0.285543  3 H  s          
     8     -0.254489  1 C  py                12     -0.226353  1 C  py         
    41     -0.225535  3 H  s                 23      0.203927  2 O  py         
     6      0.189543  1 C  s                  4     -0.166122  1 C  py         

 Vector    9  Occ=0.000000D+00  E=-9.308681D-02
              MO Center=  1.0D+01,  2.0D+01,  3.0D+01, r^2= 1.4D+00
   Bfn.  Coefficient  Atom+Function         Bfn.  Coefficient  Atom+Function  
  ----- ------------  ---------------      ----- ------------  ---------------
    13      0.538130  1 C  pz                32     -0.422255  2 O  pz         
     9      0.388907  1 C  pz                28     -0.284672  2 O  pz         
     5      0.242996  1 C  pz                24     -0.207608  2 O  pz         
    16     -0.047675  1 C  dxz               44      0.031879  3 H  pz         

 Vector   10  Occ=0.000000D+00  E= 4.482307D-02
              MO Center=  9.2D+00,  2.1D+01,  3.0D+01, r^2= 2.7D+00
   Bfn.  Coefficient  Atom+Function         Bfn.  Coefficient  Atom+Function  
  ----- ------------  ---------------      ----- ------------  ---------------
    41      1.835987  3 H  s                 10     -1.207904  1 C  s          
    12     -0.669371  1 C  py                11      0.289308  1 C  px         
     8     -0.205360  1 C  py                31      0.203204  2 O  py         
     6     -0.193496  1 C  s                  4     -0.152600  1 C  py         
    27      0.073602  2 O  py                 2      0.073098  1 C  s          

 Vector   11  Occ=0.000000D+00  E= 1.650604D-01
              MO Center=  1.0D+01,  2.0D+01,  3.0D+01, r^2= 2.8D+00
   Bfn.  Coefficient  Atom+Function         Bfn.  Coefficient  Atom+Function  
  ----- ------------  ---------------      ----- ------------  ---------------
    29     -1.815169  2 O  s                 10      1.668670  1 C  s          
    11      1.633150  1 C  px                30      0.652962  2 O  px         
    41      0.232121  3 H  s                 25     -0.217786  2 O  s          
    40     -0.201519  3 H  s                  7      0.121567  1 C  px         
    26      0.092504  2 O  px                21      0.087941  2 O  s          

 Vector   12  Occ=0.000000D+00  E= 3.117560D-01
              MO Center=  9.5D+00,  2.0D+01,  3.0D+01, r^2= 2.1D+00
   Bfn.  Coefficient  Atom+Function         Bfn.  Coefficient  Atom+Function  
  ----- ------------  ---------------      ----- ------------  ---------------
    40      1.613924  3 H  s                 11      0.754104  1 C  px         
    41     -0.616359  3 H  s                 10     -0.604762  1 C  s          
    12     -0.552466  1 C  py                 8     -0.444589  1 C  py         
    29     -0.273627  2 O  s                 31      0.221587  2 O  py         
     4     -0.161442  1 C  py                39      0.146325  3 H  s          

 Vector   13  Occ=0.000000D+00  E= 3.498279D-01
              MO Center=  9.9D+00,  1.9D+01,  3.0D+01, r^2= 2.2D+00
   Bfn.  Coefficient  Atom+Function         Bfn.  Coefficient  Atom+Function  
  ----- ------------  ---------------      ----- ------------  ---------------
    12      1.369254  1 C  py                 8     -0.617984  1 C  py         
    40     -0.540239  3 H  s                  6      0.508685  1 C  s          
    10     -0.468818  1 C  s                  7     -0.250547  1 C  px         
     4     -0.175794  1 C  py                31     -0.158038  2 O  py         
    29      0.155048  2 O  s                 19      0.097052  1 C  dzz        

 Vector   14  Occ=0.000000D+00  E= 3.531787D-01
              MO Center=  1.0D+01,  2.0D+01,  3.0D+01, r^2= 2.5D+00
   Bfn.  Coefficient  Atom+Function         Bfn.  Coefficient  Atom+Function  
  ----- ------------  ---------------      ----- ------------  ---------------
    13      1.214313  1 C  pz                 9     -0.841656  1 C  pz         
     5     -0.245307  1 C  pz                32     -0.071252  2 O  pz         
    16     -0.062325  1 C  dxz               28     -0.038008  2 O  pz         
    35      0.037662  2 O  dxz        

 Vector   15  Occ=0.000000D+00  E= 5.145155D-01
              MO Center=  9.5D+00,  2.1D+01,  3.0D+01, r^2= 2.6D+00
   Bfn.  Coefficient  Atom+Function         Bfn.  Coefficient  Atom+Function  
  ----- ------------  ---------------      ----- ------------  ---------------
    10      3.215355  1 C  s                 41     -1.984079  3 H  s          
    12      1.354440  1 C  py                 6     -1.328332  1 C  s          
    11     -0.755070  1 C  px                 8     -0.404801  1 C  py         
     7      0.249427  1 C  px                19     -0.222762  1 C  dzz        
    17     -0.214148  1 C  dyy               29     -0.202979  2 O  s          

 Vector   16  Occ=0.000000D+00  E= 5.572131D-01
              MO Center=  1.1D+01,  2.0D+01,  3.0D+01, r^2= 1.5D+00
   Bfn.  Coefficient  Atom+Function         Bfn.  Coefficient  Atom+Function  
  ----- ------------  ---------------      ----- ------------  ---------------
     7      1.008837  1 C  px                30      0.942914  2 O  px         
    11     -0.759173  1 C  px                 6      0.742432  1 C  s          
    41     -0.382061  3 H  s                  3      0.315712  1 C  px         
    10      0.271453  1 C  s                 29     -0.256530  2 O  s          
    12      0.237792  1 C  py                25     -0.228092  2 O  s          

 Vector   17  Occ=0.000000D+00  E= 6.667057D-01
              MO Center=  1.2D+01,  2.0D+01,  3.0D+01, r^2= 1.4D+00
   Bfn.  Coefficient  Atom+Function         Bfn.  Coefficient  Atom+Function  
  ----- ------------  ---------------      ----- ------------  ---------------
    30      1.539913  2 O  px                10      0.736667  1 C  s          
    29     -0.682564  2 O  s                 26     -0.628202  2 O  px         
    11      0.400000  1 C  px                14      0.319460  1 C  dxx        
     6      0.313081  1 C  s                 22     -0.256285  2 O  px         
    25     -0.175870  2 O  s                  7      0.133374  1 C  px         

 Vector   18  Occ=0.000000D+00  E= 7.540516D-01
              MO Center=  1.1D+01,  2.0D+01,  3.0D+01, r^2= 1.7D+00
   Bfn.  Coefficient  Atom+Function         Bfn.  Coefficient  Atom+Function  
  ----- ------------  ---------------      ----- ------------  ---------------
    32      1.387536  2 O  pz                28     -0.782611  2 O  pz         
    13     -0.535502  1 C  pz                24     -0.257117  2 O  pz         
    44     -0.085601  3 H  pz                16     -0.083446  1 C  dxz        
     5      0.063696  1 C  pz                18     -0.042187  1 C  dyz        
    35      0.036707  2 O  dxz        

 Vector   19  Occ=0.000000D+00  E= 7.843163D-01
              MO Center=  1.1D+01,  2.0D+01,  3.0D+01, r^2= 1.9D+00
   Bfn.  Coefficient  Atom+Function         Bfn.  Coefficient  Atom+Function  
  ----- ------------  ---------------      ----- ------------  ---------------
    31      1.536980  2 O  py                12     -1.093704  1 C  py         
    10     -0.834975  1 C  s                 27     -0.750906  2 O  py         
    41      0.466686  3 H  s                 40      0.366307  3 H  s          
    11      0.259634  1 C  px                23     -0.235941  2 O  py         
     6      0.194078  1 C  s                 15     -0.164368  1 C  dxy        

 Vector   20  Occ=0.000000D+00  E= 1.014781D+00
              MO Center=  9.8D+00,  2.0D+01,  3.0D+01, r^2= 1.1D+00
   Bfn.  Coefficient  Atom+Function         Bfn.  Coefficient  Atom+Function  
  ----- ------------  ---------------      ----- ------------  ---------------
    18      1.113587  1 C  dyz               44      0.554587  3 H  pz         
    16     -0.324410  1 C  dxz               13     -0.299351  1 C  pz         
    32      0.299069  2 O  pz                37      0.076025  2 O  dyz        
    35      0.054024  2 O  dxz               28     -0.053079  2 O  pz         
     9     -0.026176  1 C  pz         

 Vector   21  Occ=0.000000D+00  E= 1.096361D+00
              MO Center=  1.0D+01,  2.0D+01,  3.0D+01, r^2= 1.7D+00
   Bfn.  Coefficient  Atom+Function         Bfn.  Coefficient  Atom+Function  
  ----- ------------  ---------------      ----- ------------  ---------------
    29      2.975843  2 O  s                 10     -1.754950  1 C  s          
    30     -1.157204  2 O  px                25     -1.072195  2 O  s          
    11     -0.702789  1 C  px                15     -0.577329  1 C  dxy        
    42     -0.381348  3 H  px                 7     -0.378404  1 C  px         
    19      0.301385  1 C  dzz               31      0.296754  2 O  py         

 Vector   22  Occ=0.000000D+00  E= 1.155379D+00
              MO Center=  1.0D+01,  2.0D+01,  3.0D+01, r^2= 1.8D+00
   Bfn.  Coefficient  Atom+Function         Bfn.  Coefficient  Atom+Function  
  ----- ------------  ---------------      ----- ------------  ---------------
    29      3.533351  2 O  s                 10     -1.627565  1 C  s          
    11     -1.338554  1 C  px                30     -1.075202  2 O  px         
    25     -1.067599  2 O  s                 15      0.600972  1 C  dxy        
    17      0.492353  1 C  dyy                7     -0.460833  1 C  px         
    19     -0.385172  1 C  dzz                6     -0.336636  1 C  s          

 Vector   23  Occ=0.000000D+00  E= 1.279840D+00
              MO Center=  1.0D+01,  2.0D+01,  3.0D+01, r^2= 1.0D+00
   Bfn.  Coefficient  Atom+Function         Bfn.  Coefficient  Atom+Function  
  ----- ------------  ---------------      ----- ------------  ---------------
    16      1.564476  1 C  dxz               18      0.748640  1 C  dyz        
    32     -0.363488  2 O  pz                13      0.296365  1 C  pz         
    35     -0.217863  2 O  dxz               44     -0.157693  3 H  pz         
    28     -0.107923  2 O  pz                37      0.070478  2 O  dyz        
    24     -0.065201  2 O  pz         

 Vector   24  Occ=0.000000D+00  E= 1.378835D+00
              MO Center=  9.9D+00,  2.0D+01,  3.0D+01, r^2= 1.4D+00
   Bfn.  Coefficient  Atom+Function         Bfn.  Coefficient  Atom+Function  
  ----- ------------  ---------------      ----- ------------  ---------------
    40      1.395136  3 H  s                 15      1.198563  1 C  dxy        
    10     -0.832958  1 C  s                 12     -0.591050  1 C  py         
    19      0.556148  1 C  dzz               17     -0.473251  1 C  dyy        
    29      0.393597  2 O  s                 39     -0.328418  3 H  s          
    11      0.224792  1 C  px                41     -0.225379  3 H  s          

 Vector   25  Occ=0.000000D+00  E= 1.519127D+00
              MO Center=  9.9D+00,  2.0D+01,  3.0D+01, r^2= 1.4D+00
   Bfn.  Coefficient  Atom+Function         Bfn.  Coefficient  Atom+Function  
  ----- ------------  ---------------      ----- ------------  ---------------
    29      1.517204  2 O  s                 10     -1.141673  1 C  s          
    11     -0.867558  1 C  px                19      0.709960  1 C  dzz        
    15     -0.704934  1 C  dxy               42      0.600842  3 H  px         
    14     -0.478434  1 C  dxx               43      0.419441  3 H  py         
    26     -0.355290  2 O  px                12     -0.263443  1 C  py         

 Vector   26  Occ=0.000000D+00  E= 1.684983D+00
              MO Center=  9.7D+00,  2.0D+01,  3.0D+01, r^2= 1.2D+00
   Bfn.  Coefficient  Atom+Function         Bfn.  Coefficient  Atom+Function  
  ----- ------------  ---------------      ----- ------------  ---------------
    18      1.198543  1 C  dyz               44     -0.955056  3 H  pz         
    16     -0.808884  1 C  dxz               13      0.246839  1 C  pz         
    37      0.200988  2 O  dyz               35      0.140091  2 O  dxz        
     5      0.123960  1 C  pz                28      0.109033  2 O  pz         
    32     -0.073653  2 O  pz                24      0.053931  2 O  pz         

 Vector   27  Occ=0.000000D+00  E= 1.956372D+00
              MO Center=  9.9D+00,  2.0D+01,  3.0D+01, r^2= 1.2D+00
   Bfn.  Coefficient  Atom+Function         Bfn.  Coefficient  Atom+Function  
  ----- ------------  ---------------      ----- ------------  ---------------
    14      0.966050  1 C  dxx               17     -0.918252  1 C  dyy        
    25     -0.633904  2 O  s                 42      0.540919  3 H  px         
    19     -0.534719  1 C  dzz               26      0.527318  2 O  px         
    30     -0.442168  2 O  px                29      0.423766  2 O  s          
    43      0.408129  3 H  py                15     -0.326215  1 C  dxy        

 Vector   28  Occ=0.000000D+00  E= 2.107740D+00
              MO Center=  9.7D+00,  2.1D+01,  3.0D+01, r^2= 1.3D+00
   Bfn.  Coefficient  Atom+Function         Bfn.  Coefficient  Atom+Function  
  ----- ------------  ---------------      ----- ------------  ---------------
    40      1.607500  3 H  s                 39     -1.248424  3 H  s          
    41     -0.914261  3 H  s                 10      0.619047  1 C  s          
     8     -0.601658  1 C  py                 4      0.525356  1 C  py         
     7      0.452373  1 C  px                15     -0.408690  1 C  dxy        
    34      0.327589  2 O  dxy               19     -0.280768  1 C  dzz        

 Vector   29  Occ=0.000000D+00  E= 2.324373D+00
              MO Center=  9.6D+00,  2.1D+01,  3.0D+01, r^2= 1.2D+00
   Bfn.  Coefficient  Atom+Function         Bfn.  Coefficient  Atom+Function  
  ----- ------------  ---------------      ----- ------------  ---------------
    40      2.686920  3 H  s                 43     -1.352346  3 H  py         
    10     -1.104883  1 C  s                 15      1.071501  1 C  dxy        
    42      0.917445  3 H  px                12     -0.860117  1 C  py         
    39     -0.670096  3 H  s                  7      0.655130  1 C  px         
     6     -0.630359  1 C  s                 17     -0.584107  1 C  dyy        

 Vector   30  Occ=0.000000D+00  E= 2.455909D+00
              MO Center=  1.0D+01,  2.0D+01,  3.0D+01, r^2= 8.3D-01
   Bfn.  Coefficient  Atom+Function         Bfn.  Coefficient  Atom+Function  
  ----- ------------  ---------------      ----- ------------  ---------------
     9      1.390686  1 C  pz                 5     -1.261231  1 C  pz         
    13     -0.573529  1 C  pz                35     -0.321970  2 O  dxz        
    16     -0.288529  1 C  dxz               44     -0.171325  3 H  pz         
    37      0.123513  2 O  dyz               18      0.106903  1 C  dyz        
    32      0.102202  2 O  pz                28     -0.049985  2 O  pz         

 Vector   31  Occ=0.000000D+00  E= 2.501877D+00
              MO Center=  9.8D+00,  2.0D+01,  3.0D+01, r^2= 8.7D-01
   Bfn.  Coefficient  Atom+Function         Bfn.  Coefficient  Atom+Function  
  ----- ------------  ---------------      ----- ------------  ---------------
     6      1.298164  1 C  s                 10      1.184323  1 C  s          
     8      1.102184  1 C  py                19     -0.896888  1 C  dzz        
     4     -0.807254  1 C  py                14     -0.725782  1 C  dxx        
    17     -0.614295  1 C  dyy                3     -0.560677  1 C  px         
     7      0.543341  1 C  px                15     -0.480896  1 C  dxy        

 Vector   32  Occ=0.000000D+00  E= 2.699596D+00
              MO Center=  1.1D+01,  2.0D+01,  3.0D+01, r^2= 7.8D-01
   Bfn.  Coefficient  Atom+Function         Bfn.  Coefficient  Atom+Function  
  ----- ------------  ---------------      ----- ------------  ---------------
    36     -0.805417  2 O  dyy               38      0.794697  2 O  dzz        
    10      0.747006  1 C  s                 19     -0.602504  1 C  dzz        
     6      0.590882  1 C  s                 14     -0.503457  1 C  dxx        
    12      0.334361  1 C  py                41     -0.277491  3 H  s          
     7      0.242489  1 C  px                 8     -0.242812  1 C  py         

 Vector   33  Occ=0.000000D+00  E= 2.711226D+00
              MO Center=  1.1D+01,  2.0D+01,  3.0D+01, r^2= 4.9D-01
   Bfn.  Coefficient  Atom+Function         Bfn.  Coefficient  Atom+Function  
  ----- ------------  ---------------      ----- ------------  ---------------
    37      1.722037  2 O  dyz               18     -0.419274  1 C  dyz        
    44      0.144462  3 H  pz                 9     -0.107554  1 C  pz         
     5      0.082455  1 C  pz                16      0.072917  1 C  dxz        

 Vector   34  Occ=0.000000D+00  E= 2.996367D+00
              MO Center=  1.0D+01,  2.0D+01,  3.0D+01, r^2= 8.3D-01
   Bfn.  Coefficient  Atom+Function         Bfn.  Coefficient  Atom+Function  
  ----- ------------  ---------------      ----- ------------  ---------------
    14      2.098447  1 C  dxx                7      1.506924  1 C  px         
     6     -1.222481  1 C  s                 17      1.189283  1 C  dyy        
    29     -1.169500  2 O  s                  3     -0.815910  1 C  px         
    19      0.777181  1 C  dzz                8      0.755996  1 C  py         
    26      0.740502  2 O  px                30      0.667767  2 O  px         

 Vector   35  Occ=0.000000D+00  E= 3.192213D+00
              MO Center=  1.1D+01,  2.0D+01,  3.0D+01, r^2= 6.9D-01
   Bfn.  Coefficient  Atom+Function         Bfn.  Coefficient  Atom+Function  
  ----- ------------  ---------------      ----- ------------  ---------------
    35      1.857464  2 O  dxz               16      0.986502  1 C  dxz        
     9      0.609350  1 C  pz                32     -0.338134  2 O  pz         
     5     -0.327478  1 C  pz                24     -0.063966  2 O  pz         
    13     -0.041572  1 C  pz                44      0.034886  3 H  pz         
    18     -0.028048  1 C  dyz        

 Vector   36  Occ=0.000000D+00  E= 3.243258D+00
              MO Center=  1.1D+01,  2.0D+01,  3.0D+01, r^2= 9.9D-01
   Bfn.  Coefficient  Atom+Function         Bfn.  Coefficient  Atom+Function  
  ----- ------------  ---------------      ----- ------------  ---------------
    34      1.586298  2 O  dxy                8      1.325316  1 C  py         
    40     -0.812802  3 H  s                  7     -0.652013  1 C  px         
    17      0.605376  1 C  dyy                4     -0.583497  1 C  py         
    42     -0.513244  3 H  px                43      0.386037  3 H  py         
    29     -0.376097  2 O  s                  3      0.351514  1 C  px         

 Vector   37  Occ=0.000000D+00  E= 3.366508D+00
              MO Center=  1.0D+01,  2.0D+01,  3.0D+01, r^2= 1.3D+00
   Bfn.  Coefficient  Atom+Function         Bfn.  Coefficient  Atom+Function  
  ----- ------------  ---------------      ----- ------------  ---------------
    15      1.608126  1 C  dxy                8     -1.065315  1 C  py         
    40      0.963434  3 H  s                 17     -0.936072  1 C  dyy        
    43     -0.937397  3 H  py                29      0.917620  2 O  s          
    34      0.913204  2 O  dxy                7      0.772287  1 C  px         
    14     -0.682198  1 C  dxx               33      0.600412  2 O  dxx        

 Vector   38  Occ=0.000000D+00  E= 3.595023D+00
              MO Center=  1.1D+01,  2.0D+01,  3.0D+01, r^2= 1.2D+00
   Bfn.  Coefficient  Atom+Function         Bfn.  Coefficient  Atom+Function  
  ----- ------------  ---------------      ----- ------------  ---------------
     7      2.465431  1 C  px                29     -2.216864  2 O  s          
    30      1.343082  2 O  px                10      1.178564  1 C  s          
    33     -1.050528  2 O  dxx               15      0.963268  1 C  dxy        
     8     -0.952213  1 C  py                14      0.906039  1 C  dxx        
    17     -0.761132  1 C  dyy               40      0.762513  3 H  s          

 Vector   39  Occ=0.000000D+00  E= 4.664183D+00
              MO Center=  1.1D+01,  2.0D+01,  3.0D+01, r^2= 4.8D-01
   Bfn.  Coefficient  Atom+Function         Bfn.  Coefficient  Atom+Function  
  ----- ------------  ---------------      ----- ------------  ---------------
    28      1.467334  2 O  pz                24     -1.264262  2 O  pz         
    32     -0.618253  2 O  pz                16     -0.256751  1 C  dxz        
    13      0.211728  1 C  pz                 9     -0.161792  1 C  pz         
    35     -0.125565  2 O  dxz                5      0.073324  1 C  pz         
    44     -0.044672  3 H  pz                18      0.030415  1 C  dyz        

 Vector   40  Occ=0.000000D+00  E= 4.712477D+00
              MO Center=  1.1D+01,  2.0D+01,  3.0D+01, r^2= 5.1D-01
   Bfn.  Coefficient  Atom+Function         Bfn.  Coefficient  Atom+Function  
  ----- ------------  ---------------      ----- ------------  ---------------
    27      1.502509  2 O  py                23     -1.262231  2 O  py         
    31     -0.681371  2 O  py                15     -0.476751  1 C  dxy        
    12      0.394255  1 C  py                40     -0.340839  3 H  s          
    10      0.282181  1 C  s                 34     -0.181354  2 O  dxy        
    43      0.151963  3 H  py                11     -0.126980  1 C  px         

 Vector   41  Occ=0.000000D+00  E= 5.227922D+00
              MO Center=  1.1D+01,  2.0D+01,  3.0D+01, r^2= 5.5D-01
   Bfn.  Coefficient  Atom+Function         Bfn.  Coefficient  Atom+Function  
  ----- ------------  ---------------      ----- ------------  ---------------
    29      2.039342  2 O  s                 26     -1.823700  2 O  px         
     7     -1.288498  1 C  px                25      1.216208  2 O  s          
    22      1.110285  2 O  px                14     -0.916287  1 C  dxx        
    36     -0.867193  2 O  dyy               38     -0.854263  2 O  dzz        
    10     -0.782697  1 C  s                 11     -0.429992  1 C  px         

 Vector   42  Occ=0.000000D+00  E= 6.241920D+00
              MO Center=  1.1D+01,  2.0D+01,  3.0D+01, r^2= 5.0D-01
   Bfn.  Coefficient  Atom+Function         Bfn.  Coefficient  Atom+Function  
  ----- ------------  ---------------      ----- ------------  ---------------
    25      2.104623  2 O  s                 33     -1.908549  2 O  dxx        
    26      1.406144  2 O  px                38     -1.326952  2 O  dzz        
    36     -1.300775  2 O  dyy                7      1.216596  1 C  px         
    14      0.963691  1 C  dxx               29      0.759382  2 O  s          
    22     -0.623153  2 O  px                21     -0.613175  2 O  s          

 Vector   43  Occ=0.000000D+00  E= 2.597588D+01
              MO Center=  1.0D+01,  2.0D+01,  3.0D+01, r^2= 1.4D-01
   Bfn.  Coefficient  Atom+Function         Bfn.  Coefficient  Atom+Function  
  ----- ------------  ---------------      ----- ------------  ---------------
     2      2.555533  1 C  s                  1     -2.107739  1 C  s          
     6     -1.129033  1 C  s                 17      0.644561  1 C  dyy        
    14      0.627191  1 C  dxx               19      0.576884  1 C  dzz        
    10     -0.386369  1 C  s                 41      0.187078  3 H  s          
    40     -0.136097  3 H  s                  8      0.122850  1 C  py         

 Vector   44  Occ=0.000000D+00  E= 5.479672D+01
              MO Center=  1.1D+01,  2.0D+01,  3.0D+01, r^2= 6.6D-02
   Bfn.  Coefficient  Atom+Function         Bfn.  Coefficient  Atom+Function  
  ----- ------------  ---------------      ----- ------------  ---------------
    21      2.714876  2 O  s                 20     -2.320944  2 O  s          
    25     -1.092165  2 O  s                 33      0.611300  2 O  dxx        
    36      0.560481  2 O  dyy               38      0.563068  2 O  dzz        
    29     -0.423554  2 O  s                 10      0.191549  1 C  s          
    26     -0.132358  2 O  px                 7     -0.127291  1 C  px         


                     DFT Final Beta Molecular Orbital Analysis
                     -----------------------------------------

 Vector    1  Occ=1.000000D+00  E=-1.882493D+01
              MO Center=  1.1D+01,  2.0D+01,  3.0D+01, r^2= 1.5D-02
   Bfn.  Coefficient  Atom+Function         Bfn.  Coefficient  Atom+Function  
  ----- ------------  ---------------      ----- ------------  ---------------
    20      0.553028  2 O  s                 21      0.464527  2 O  s          

 Vector    2  Occ=1.000000D+00  E=-9.993054D+00
              MO Center=  1.0D+01,  2.0D+01,  3.0D+01, r^2= 2.8D-02
   Bfn.  Coefficient  Atom+Function         Bfn.  Coefficient  Atom+Function  
  ----- ------------  ---------------      ----- ------------  ---------------
     1      0.564891  1 C  s                  2      0.457707  1 C  s          

 Vector    3  Occ=1.000000D+00  E=-1.011664D+00
              MO Center=  1.1D+01,  2.0D+01,  3.0D+01, r^2= 4.5D-01
   Bfn.  Coefficient  Atom+Function         Bfn.  Coefficient  Atom+Function  
  ----- ------------  ---------------      ----- ------------  ---------------
    25      0.504623  2 O  s                 29      0.332471  2 O  s          
     6      0.247985  1 C  s                 21     -0.174449  2 O  s          
     7      0.121020  1 C  px                26     -0.118074  2 O  px         
    20     -0.109690  2 O  s                  3      0.099558  1 C  px         
     2     -0.095670  1 C  s                 22     -0.083755  2 O  px         

 Vector    4  Occ=1.000000D+00  E=-5.372635D-01
              MO Center=  1.0D+01,  2.0D+01,  3.0D+01, r^2= 1.3D+00
   Bfn.  Coefficient  Atom+Function         Bfn.  Coefficient  Atom+Function  
  ----- ------------  ---------------      ----- ------------  ---------------
     6      0.389745  1 C  s                 29     -0.282374  2 O  s          
    10      0.270496  1 C  s                 25     -0.251977  2 O  s          
    40      0.182911  3 H  s                 39      0.139748  3 H  s          
     2     -0.135383  1 C  s                 26     -0.126669  2 O  px         
     8      0.124793  1 C  py                22     -0.093118  2 O  px         

 Vector    5  Occ=1.000000D+00  E=-4.300201D-01
              MO Center=  1.1D+01,  2.0D+01,  3.0D+01, r^2= 1.2D+00
   Bfn.  Coefficient  Atom+Function         Bfn.  Coefficient  Atom+Function  
  ----- ------------  ---------------      ----- ------------  ---------------
    26      0.305877  2 O  px                29      0.279425  2 O  s          
    30      0.231154  2 O  px                22      0.223423  2 O  px         
    25      0.197786  2 O  s                  7     -0.195552  1 C  px         
     3     -0.144108  1 C  px                 8      0.135397  1 C  py         
    40      0.130724  3 H  s                 27      0.114456  2 O  py         

 Vector    6  Occ=1.000000D+00  E=-3.893452D-01
              MO Center=  1.1D+01,  2.0D+01,  3.0D+01, r^2= 8.8D-01
   Bfn.  Coefficient  Atom+Function         Bfn.  Coefficient  Atom+Function  
  ----- ------------  ---------------      ----- ------------  ---------------
    28      0.366685  2 O  pz                32      0.303617  2 O  pz         
    24      0.252471  2 O  pz                 9      0.230933  1 C  pz         
    13      0.158025  1 C  pz                 5      0.153887  1 C  pz         
    16      0.078326  1 C  dxz               35     -0.041144  2 O  dxz        

 Vector    7  Occ=1.000000D+00  E=-3.502353D-01
              MO Center=  1.1D+01,  2.0D+01,  3.0D+01, r^2= 1.1D+00
   Bfn.  Coefficient  Atom+Function         Bfn.  Coefficient  Atom+Function  
  ----- ------------  ---------------      ----- ------------  ---------------
    27      0.330128  2 O  py                31      0.291852  2 O  py         
    23      0.230468  2 O  py                10     -0.193794  1 C  s          
     8      0.151416  1 C  py                 7      0.142812  1 C  px         
     6     -0.136110  1 C  s                 12      0.130083  1 C  py         
    26     -0.119108  2 O  px                 4      0.109359  1 C  py         

 Vector    8  Occ=0.000000D+00  E=-1.171438D-01
              MO Center=  1.0D+01,  2.0D+01,  3.0D+01, r^2= 1.6D+00
   Bfn.  Coefficient  Atom+Function         Bfn.  Coefficient  Atom+Function  
  ----- ------------  ---------------      ----- ------------  ---------------
    10      0.617380  1 C  s                 31      0.335194  2 O  py         
    40     -0.290492  3 H  s                 27      0.261903  2 O  py         
    41     -0.258962  3 H  s                 12     -0.248505  1 C  py         
     8     -0.238970  1 C  py                23      0.186088  2 O  py         
     6      0.185008  1 C  s                 11     -0.170846  1 C  px         

 Vector    9  Occ=0.000000D+00  E=-7.664268D-02
              MO Center=  1.0D+01,  2.0D+01,  3.0D+01, r^2= 1.4D+00
   Bfn.  Coefficient  Atom+Function         Bfn.  Coefficient  Atom+Function  
  ----- ------------  ---------------      ----- ------------  ---------------
    13      0.551173  1 C  pz                32     -0.421153  2 O  pz         
     9      0.385247  1 C  pz                28     -0.280472  2 O  pz         
     5      0.244290  1 C  pz                24     -0.204173  2 O  pz         
    18      0.036257  1 C  dyz               16     -0.034536  1 C  dxz        
    44      0.031605  3 H  pz         

 Vector   10  Occ=0.000000D+00  E= 6.156373D-02
              MO Center=  9.2D+00,  2.1D+01,  3.0D+01, r^2= 2.7D+00
   Bfn.  Coefficient  Atom+Function         Bfn.  Coefficient  Atom+Function  
  ----- ------------  ---------------      ----- ------------  ---------------
    41      1.858784  3 H  s                 10     -1.178283  1 C  s          
    12     -0.650574  1 C  py                11      0.263374  1 C  px         
    31      0.200529  2 O  py                 6     -0.194172  1 C  s          
     8     -0.194649  1 C  py                 4     -0.149055  1 C  py         
    30     -0.074228  2 O  px                27      0.072389  2 O  py         

 Vector   11  Occ=0.000000D+00  E= 1.739772D-01
              MO Center=  1.0D+01,  2.0D+01,  3.0D+01, r^2= 2.8D+00
   Bfn.  Coefficient  Atom+Function         Bfn.  Coefficient  Atom+Function  
  ----- ------------  ---------------      ----- ------------  ---------------
    29     -1.817296  2 O  s                 10      1.700102  1 C  s          
    11      1.631058  1 C  px                30      0.647072  2 O  px         
    40     -0.230517  3 H  s                 41      0.230146  3 H  s          
    25     -0.217828  2 O  s                  7      0.111832  1 C  px         
    21      0.087698  2 O  s                 26      0.087764  2 O  px         

 Vector   12  Occ=0.000000D+00  E= 3.394000D-01
              MO Center=  9.6D+00,  2.0D+01,  3.0D+01, r^2= 2.3D+00
   Bfn.  Coefficient  Atom+Function         Bfn.  Coefficient  Atom+Function  
  ----- ------------  ---------------      ----- ------------  ---------------
    40      1.711467  3 H  s                 12     -0.877019  1 C  py         
    11      0.815677  1 C  px                10     -0.586719  1 C  s          
    41     -0.485414  3 H  s                 29     -0.321926  2 O  s          
     8     -0.315007  1 C  py                31      0.269379  2 O  py         
    27      0.159807  2 O  py                39      0.143579  3 H  s          

 Vector   13  Occ=0.000000D+00  E= 3.643079D-01
              MO Center=  1.0D+01,  2.0D+01,  3.0D+01, r^2= 2.4D+00
   Bfn.  Coefficient  Atom+Function         Bfn.  Coefficient  Atom+Function  
  ----- ------------  ---------------      ----- ------------  ---------------
    13      1.205801  1 C  pz                 9     -0.845878  1 C  pz         
     5     -0.245430  1 C  pz                16     -0.072635  1 C  dxz        
    32     -0.056617  2 O  pz                28     -0.043328  2 O  pz         
    35      0.038790  2 O  dxz        

 Vector   14  Occ=0.000000D+00  E= 3.877819D-01
              MO Center=  9.9D+00,  1.9D+01,  3.0D+01, r^2= 2.0D+00
   Bfn.  Coefficient  Atom+Function         Bfn.  Coefficient  Atom+Function  
  ----- ------------  ---------------      ----- ------------  ---------------
    12      1.288141  1 C  py                 8     -0.731029  1 C  py         
     6      0.466596  1 C  s                 10     -0.370253  1 C  s          
    41     -0.243020  3 H  s                 40     -0.223248  3 H  s          
     4     -0.211922  1 C  py                 7     -0.204660  1 C  px         
    15     -0.093884  1 C  dxy               19      0.093667  1 C  dzz        

 Vector   15  Occ=0.000000D+00  E= 5.279427D-01
              MO Center=  9.5D+00,  2.1D+01,  3.0D+01, r^2= 2.6D+00
   Bfn.  Coefficient  Atom+Function         Bfn.  Coefficient  Atom+Function  
  ----- ------------  ---------------      ----- ------------  ---------------
    10      3.197898  1 C  s                 41     -1.969221  3 H  s          
     6     -1.398757  1 C  s                 12      1.267177  1 C  py         
    11     -0.721767  1 C  px                 8     -0.366421  1 C  py         
    19     -0.240955  1 C  dzz               17     -0.226471  1 C  dyy        
     7      0.213209  1 C  px                14     -0.206031  1 C  dxx        

 Vector   16  Occ=0.000000D+00  E= 5.695646D-01
              MO Center=  1.1D+01,  2.0D+01,  3.0D+01, r^2= 1.6D+00
   Bfn.  Coefficient  Atom+Function         Bfn.  Coefficient  Atom+Function  
  ----- ------------  ---------------      ----- ------------  ---------------
     7      1.044861  1 C  px                30      1.035002  2 O  px         
    11     -0.730976  1 C  px                 6      0.678173  1 C  s          
    10      0.494101  1 C  s                 41     -0.481248  3 H  s          
    29     -0.360736  2 O  s                  3      0.315418  1 C  px         
    12      0.255715  1 C  py                25     -0.232196  2 O  s          

 Vector   17  Occ=0.000000D+00  E= 6.748663D-01
              MO Center=  1.1D+01,  2.0D+01,  3.0D+01, r^2= 1.5D+00
   Bfn.  Coefficient  Atom+Function         Bfn.  Coefficient  Atom+Function  
  ----- ------------  ---------------      ----- ------------  ---------------
    30      1.499780  2 O  px                10      0.754838  1 C  s          
    29     -0.674935  2 O  s                 26     -0.642578  2 O  px         
    11      0.411672  1 C  px                14      0.313489  1 C  dxx        
     6      0.273801  1 C  s                 22     -0.263809  2 O  px         
    25     -0.156509  2 O  s                 40     -0.112739  3 H  s          

 Vector   18  Occ=0.000000D+00  E= 7.584868D-01
              MO Center=  1.1D+01,  2.0D+01,  3.0D+01, r^2= 1.7D+00
   Bfn.  Coefficient  Atom+Function         Bfn.  Coefficient  Atom+Function  
  ----- ------------  ---------------      ----- ------------  ---------------
    32      1.389780  2 O  pz                28     -0.784551  2 O  pz         
    13     -0.549110  1 C  pz                24     -0.257334  2 O  pz         
    16     -0.084510  1 C  dxz               44     -0.079292  3 H  pz         
     5      0.065079  1 C  pz                18     -0.038235  1 C  dyz        
    35      0.036454  2 O  dxz        

 Vector   19  Occ=0.000000D+00  E= 8.055959D-01
              MO Center=  1.1D+01,  2.0D+01,  3.0D+01, r^2= 1.9D+00
   Bfn.  Coefficient  Atom+Function         Bfn.  Coefficient  Atom+Function  
  ----- ------------  ---------------      ----- ------------  ---------------
    31      1.537310  2 O  py                12     -1.093950  1 C  py         
    10     -0.784492  1 C  s                 27     -0.761014  2 O  py         
    41      0.452034  3 H  s                 40      0.358472  3 H  s          
    11      0.255067  1 C  px                23     -0.236481  2 O  py         
    15     -0.184933  1 C  dxy                6      0.178942  1 C  s          

 Vector   20  Occ=0.000000D+00  E= 1.039661D+00
              MO Center=  9.8D+00,  2.0D+01,  3.0D+01, r^2= 1.1D+00
   Bfn.  Coefficient  Atom+Function         Bfn.  Coefficient  Atom+Function  
  ----- ------------  ---------------      ----- ------------  ---------------
    18      1.085970  1 C  dyz               44      0.550404  3 H  pz         
    16     -0.419422  1 C  dxz               32      0.310842  2 O  pz         
    13     -0.307027  1 C  pz                37      0.075208  2 O  dyz        
    35      0.065859  2 O  dxz               28     -0.040125  2 O  pz         
     5     -0.031737  1 C  pz                 9     -0.030059  1 C  pz         

 Vector   21  Occ=0.000000D+00  E= 1.119099D+00
              MO Center=  1.0D+01,  2.0D+01,  3.0D+01, r^2= 1.9D+00
   Bfn.  Coefficient  Atom+Function         Bfn.  Coefficient  Atom+Function  
  ----- ------------  ---------------      ----- ------------  ---------------
    29      3.742899  2 O  s                 10     -2.101829  1 C  s          
    30     -1.370758  2 O  px                25     -1.302834  2 O  s          
    11     -1.007303  1 C  px                 7     -0.466487  1 C  px         
    15     -0.390030  1 C  dxy               14     -0.311634  1 C  dxx        
    42     -0.308522  3 H  px                 6     -0.261783  1 C  s          

 Vector   22  Occ=0.000000D+00  E= 1.182759D+00
              MO Center=  1.0D+01,  2.0D+01,  3.0D+01, r^2= 1.6D+00
   Bfn.  Coefficient  Atom+Function         Bfn.  Coefficient  Atom+Function  
  ----- ------------  ---------------      ----- ------------  ---------------
    29      2.730913  2 O  s                 10     -1.187350  1 C  s          
    11     -1.140738  1 C  px                25     -0.779765  2 O  s          
    30     -0.766456  2 O  px                15      0.687301  1 C  dxy        
    17      0.540735  1 C  dyy               19     -0.438814  1 C  dzz        
     7     -0.358481  1 C  px                42      0.329886  3 H  px         

 Vector   23  Occ=0.000000D+00  E= 1.308817D+00
              MO Center=  1.0D+01,  2.0D+01,  3.0D+01, r^2= 9.9D-01
   Bfn.  Coefficient  Atom+Function         Bfn.  Coefficient  Atom+Function  
  ----- ------------  ---------------      ----- ------------  ---------------
    16      1.553680  1 C  dxz               18      0.786648  1 C  dyz        
    32     -0.340856  2 O  pz                13      0.273654  1 C  pz         
    35     -0.221870  2 O  dxz               44     -0.112633  3 H  pz         
    28     -0.111944  2 O  pz                37      0.077102  2 O  dyz        
    24     -0.066212  2 O  pz                 5     -0.036262  1 C  pz         

 Vector   24  Occ=0.000000D+00  E= 1.405052D+00
              MO Center=  9.9D+00,  2.0D+01,  3.0D+01, r^2= 1.4D+00
   Bfn.  Coefficient  Atom+Function         Bfn.  Coefficient  Atom+Function  
  ----- ------------  ---------------      ----- ------------  ---------------
    40      1.394416  3 H  s                 15      1.206401  1 C  dxy        
    10     -0.858726  1 C  s                 12     -0.596900  1 C  py         
    19      0.575071  1 C  dzz               17     -0.463733  1 C  dyy        
    29      0.400410  2 O  s                 39     -0.319607  3 H  s          
    27     -0.216112  2 O  py                31      0.216291  2 O  py         

 Vector   25  Occ=0.000000D+00  E= 1.544580D+00
              MO Center=  9.9D+00,  2.0D+01,  3.0D+01, r^2= 1.4D+00
   Bfn.  Coefficient  Atom+Function         Bfn.  Coefficient  Atom+Function  
  ----- ------------  ---------------      ----- ------------  ---------------
    29      1.444175  2 O  s                 10     -1.080509  1 C  s          
    11     -0.853168  1 C  px                15     -0.739825  1 C  dxy        
    19      0.714927  1 C  dzz               42      0.584220  3 H  px         
    14     -0.494785  1 C  dxx               43      0.406355  3 H  py         
    26     -0.363056  2 O  px                12     -0.238124  1 C  py         

 Vector   26  Occ=0.000000D+00  E= 1.711806D+00
              MO Center=  9.7D+00,  2.0D+01,  3.0D+01, r^2= 1.2D+00
   Bfn.  Coefficient  Atom+Function         Bfn.  Coefficient  Atom+Function  
  ----- ------------  ---------------      ----- ------------  ---------------
    18      1.198245  1 C  dyz               44     -0.963347  3 H  pz         
    16     -0.775603  1 C  dxz               13      0.252492  1 C  pz         
    37      0.203605  2 O  dyz               35      0.139558  2 O  dxz        
     5      0.124776  1 C  pz                28      0.105433  2 O  pz         
    32     -0.078518  2 O  pz                24      0.053236  2 O  pz         

 Vector   27  Occ=0.000000D+00  E= 1.991610D+00
              MO Center=  9.9D+00,  2.0D+01,  3.0D+01, r^2= 1.2D+00
   Bfn.  Coefficient  Atom+Function         Bfn.  Coefficient  Atom+Function  
  ----- ------------  ---------------      ----- ------------  ---------------
    14      0.941379  1 C  dxx               17     -0.934767  1 C  dyy        
    25     -0.628185  2 O  s                 42      0.554371  3 H  px         
    19     -0.517840  1 C  dzz               26      0.509534  2 O  px         
    29      0.451177  2 O  s                 30     -0.445436  2 O  px         
    43      0.414431  3 H  py                15     -0.319022  1 C  dxy        

 Vector   28  Occ=0.000000D+00  E= 2.140172D+00
              MO Center=  9.7D+00,  2.1D+01,  3.0D+01, r^2= 1.3D+00
   Bfn.  Coefficient  Atom+Function         Bfn.  Coefficient  Atom+Function  
  ----- ------------  ---------------      ----- ------------  ---------------
    40      1.558291  3 H  s                 39     -1.232008  3 H  s          
    41     -0.913164  3 H  s                 10      0.654375  1 C  s          
     8     -0.593606  1 C  py                 4      0.536459  1 C  py         
     7      0.460889  1 C  px                15     -0.409523  1 C  dxy        
    34      0.326174  2 O  dxy               29     -0.293497  2 O  s          

 Vector   29  Occ=0.000000D+00  E= 2.356008D+00
              MO Center=  9.6D+00,  2.1D+01,  3.0D+01, r^2= 1.2D+00
   Bfn.  Coefficient  Atom+Function         Bfn.  Coefficient  Atom+Function  
  ----- ------------  ---------------      ----- ------------  ---------------
    40      2.696670  3 H  s                 43     -1.349450  3 H  py         
    10     -1.128664  1 C  s                 15      1.059304  1 C  dxy        
    42      0.922454  3 H  px                12     -0.846181  1 C  py         
    39     -0.695629  3 H  s                  6     -0.673270  1 C  s          
     7      0.639376  1 C  px                 8     -0.581097  1 C  py         

 Vector   30  Occ=0.000000D+00  E= 2.470151D+00
              MO Center=  1.0D+01,  2.0D+01,  3.0D+01, r^2= 8.3D-01
   Bfn.  Coefficient  Atom+Function         Bfn.  Coefficient  Atom+Function  
  ----- ------------  ---------------      ----- ------------  ---------------
     9      1.390550  1 C  pz                 5     -1.260602  1 C  pz         
    13     -0.572119  1 C  pz                35     -0.322097  2 O  dxz        
    16     -0.300680  1 C  dxz               44     -0.175744  3 H  pz         
    37      0.116758  2 O  dyz               32      0.102832  2 O  pz         
    18      0.100013  1 C  dyz               28     -0.048977  2 O  pz         

 Vector   31  Occ=0.000000D+00  E= 2.561390D+00
              MO Center=  9.8D+00,  2.0D+01,  3.0D+01, r^2= 8.6D-01
   Bfn.  Coefficient  Atom+Function         Bfn.  Coefficient  Atom+Function  
  ----- ------------  ---------------      ----- ------------  ---------------
     6      1.263348  1 C  s                 10      1.104609  1 C  s          
     8      1.076749  1 C  py                19     -0.865415  1 C  dzz        
     4     -0.825261  1 C  py                14     -0.724725  1 C  dxx        
    17     -0.643040  1 C  dyy                3     -0.552221  1 C  px         
     7      0.547944  1 C  px                15     -0.454996  1 C  dxy        

 Vector   32  Occ=0.000000D+00  E= 2.722112D+00
              MO Center=  1.1D+01,  2.0D+01,  3.0D+01, r^2= 8.0D-01
   Bfn.  Coefficient  Atom+Function         Bfn.  Coefficient  Atom+Function  
  ----- ------------  ---------------      ----- ------------  ---------------
    38      0.796772  2 O  dzz               36     -0.792239  2 O  dyy        
    10      0.783128  1 C  s                  6      0.653358  1 C  s          
    19     -0.638298  1 C  dzz               14     -0.543551  1 C  dxx        
    12      0.329882  1 C  py                41     -0.286725  3 H  s          
    17     -0.273348  1 C  dyy                7      0.252536  1 C  px         

 Vector   33  Occ=0.000000D+00  E= 2.735065D+00
              MO Center=  1.1D+01,  2.0D+01,  3.0D+01, r^2= 4.9D-01
   Bfn.  Coefficient  Atom+Function         Bfn.  Coefficient  Atom+Function  
  ----- ------------  ---------------      ----- ------------  ---------------
    37      1.721802  2 O  dyz               18     -0.422787  1 C  dyz        
    44      0.145170  3 H  pz                 9     -0.106746  1 C  pz         
     5      0.081384  1 C  pz                16      0.059278  1 C  dxz        

 Vector   34  Occ=0.000000D+00  E= 3.010179D+00
              MO Center=  1.0D+01,  2.0D+01,  3.0D+01, r^2= 8.2D-01
   Bfn.  Coefficient  Atom+Function         Bfn.  Coefficient  Atom+Function  
  ----- ------------  ---------------      ----- ------------  ---------------
    14      2.093648  1 C  dxx                7      1.540823  1 C  px         
     6     -1.203832  1 C  s                 29     -1.183146  2 O  s          
    17      1.158587  1 C  dyy                3     -0.831703  1 C  px         
    19      0.759018  1 C  dzz               26      0.747209  2 O  px         
     8      0.740596  1 C  py                30      0.672950  2 O  px         

 Vector   35  Occ=0.000000D+00  E= 3.197856D+00
              MO Center=  1.1D+01,  2.0D+01,  3.0D+01, r^2= 6.9D-01
   Bfn.  Coefficient  Atom+Function         Bfn.  Coefficient  Atom+Function  
  ----- ------------  ---------------      ----- ------------  ---------------
    35      1.856555  2 O  dxz               16      0.990665  1 C  dxz        
     9      0.608977  1 C  pz                32     -0.338242  2 O  pz         
     5     -0.328379  1 C  pz                24     -0.064460  2 O  pz         
    13     -0.041665  1 C  pz                44      0.037402  3 H  pz         
    18     -0.032027  1 C  dyz        

 Vector   36  Occ=0.000000D+00  E= 3.262976D+00
              MO Center=  1.1D+01,  2.0D+01,  3.0D+01, r^2= 1.0D+00
   Bfn.  Coefficient  Atom+Function         Bfn.  Coefficient  Atom+Function  
  ----- ------------  ---------------      ----- ------------  ---------------
    34      1.533816  2 O  dxy                8      1.387055  1 C  py         
    40     -0.871008  3 H  s                  7     -0.687865  1 C  px         
    17      0.653617  1 C  dyy                4     -0.605286  1 C  py         
    42     -0.545781  3 H  px                43      0.442993  3 H  py         
    29     -0.437585  2 O  s                  3      0.378477  1 C  px         

 Vector   37  Occ=0.000000D+00  E= 3.388430D+00
              MO Center=  1.1D+01,  2.0D+01,  3.0D+01, r^2= 1.3D+00
   Bfn.  Coefficient  Atom+Function         Bfn.  Coefficient  Atom+Function  
  ----- ------------  ---------------      ----- ------------  ---------------
    15      1.623046  1 C  dxy               34      0.993886  2 O  dxy        
     8     -0.986854  1 C  py                29      0.949708  2 O  s          
    40      0.913578  3 H  s                 43     -0.915342  3 H  py         
    17     -0.898347  1 C  dyy               14     -0.715957  1 C  dxx        
     7      0.668683  1 C  px                33      0.610644  2 O  dxx        

 Vector   38  Occ=0.000000D+00  E= 3.608259D+00
              MO Center=  1.1D+01,  2.0D+01,  3.0D+01, r^2= 1.3D+00
   Bfn.  Coefficient  Atom+Function         Bfn.  Coefficient  Atom+Function  
  ----- ------------  ---------------      ----- ------------  ---------------
     7      2.461345  1 C  px                29     -2.188314  2 O  s          
    30      1.324123  2 O  px                10      1.170799  1 C  s          
    33     -1.036553  2 O  dxx               15      0.997010  1 C  dxy        
     8     -0.976478  1 C  py                14      0.878665  1 C  dxx        
    17     -0.790699  1 C  dyy               40      0.785740  3 H  s          

 Vector   39  Occ=0.000000D+00  E= 4.670421D+00
              MO Center=  1.1D+01,  2.0D+01,  3.0D+01, r^2= 4.8D-01
   Bfn.  Coefficient  Atom+Function         Bfn.  Coefficient  Atom+Function  
  ----- ------------  ---------------      ----- ------------  ---------------
    28      1.466998  2 O  pz                24     -1.264375  2 O  pz         
    32     -0.617676  2 O  pz                16     -0.257899  1 C  dxz        
    13      0.211938  1 C  pz                 9     -0.162044  1 C  pz         
    35     -0.125681  2 O  dxz                5      0.073449  1 C  pz         
    44     -0.045211  3 H  pz                18      0.030919  1 C  dyz        

 Vector   40  Occ=0.000000D+00  E= 4.750091D+00
              MO Center=  1.1D+01,  2.0D+01,  3.0D+01, r^2= 5.0D-01
   Bfn.  Coefficient  Atom+Function         Bfn.  Coefficient  Atom+Function  
  ----- ------------  ---------------      ----- ------------  ---------------
    27      1.499945  2 O  py                23     -1.263818  2 O  py         
    31     -0.678446  2 O  py                15     -0.480042  1 C  dxy        
    12      0.393127  1 C  py                40     -0.342953  3 H  s          
    10      0.273993  1 C  s                 34     -0.179267  2 O  dxy        
    43      0.154398  3 H  py                11     -0.129828  1 C  px         

 Vector   41  Occ=0.000000D+00  E= 5.239288D+00
              MO Center=  1.1D+01,  2.0D+01,  3.0D+01, r^2= 5.6D-01
   Bfn.  Coefficient  Atom+Function         Bfn.  Coefficient  Atom+Function  
  ----- ------------  ---------------      ----- ------------  ---------------
    29      2.037655  2 O  s                 26     -1.828811  2 O  px         
     7     -1.293157  1 C  px                25      1.210255  2 O  s          
    22      1.112123  2 O  px                14     -0.921017  1 C  dxx        
    36     -0.864817  2 O  dyy               38     -0.849151  2 O  dzz        
    10     -0.784619  1 C  s                 11     -0.428424  1 C  px         

 Vector   42  Occ=0.000000D+00  E= 6.259498D+00
              MO Center=  1.1D+01,  2.0D+01,  3.0D+01, r^2= 5.0D-01
   Bfn.  Coefficient  Atom+Function         Bfn.  Coefficient  Atom+Function  
  ----- ------------  ---------------      ----- ------------  ---------------
    25      2.110498  2 O  s                 33     -1.909255  2 O  dxx        
    26      1.400552  2 O  px                38     -1.329447  2 O  dzz        
    36     -1.302584  2 O  dyy                7      1.213151  1 C  px         
    14      0.962643  1 C  dxx               29      0.760727  2 O  s          
    22     -0.619530  2 O  px                21     -0.614218  2 O  s          

 Vector   43  Occ=0.000000D+00  E= 2.598952D+01
              MO Center=  1.0D+01,  2.0D+01,  3.0D+01, r^2= 1.4D-01
   Bfn.  Coefficient  Atom+Function         Bfn.  Coefficient  Atom+Function  
  ----- ------------  ---------------      ----- ------------  ---------------
     2      2.555767  1 C  s                  1     -2.107631  1 C  s          
     6     -1.129859  1 C  s                 17      0.644843  1 C  dyy        
    14      0.627698  1 C  dxx               19      0.577192  1 C  dzz        
    10     -0.386276  1 C  s                 41      0.187165  3 H  s          
    40     -0.136315  3 H  s                  8      0.123042  1 C  py         

 Vector   44  Occ=0.000000D+00  E= 5.480687D+01
              MO Center=  1.1D+01,  2.0D+01,  3.0D+01, r^2= 6.6D-02
   Bfn.  Coefficient  Atom+Function         Bfn.  Coefficient  Atom+Function  
  ----- ------------  ---------------      ----- ------------  ---------------
    21      2.714963  2 O  s                 20     -2.320888  2 O  s          
    25     -1.092434  2 O  s                 33      0.611432  2 O  dxx        
    36      0.560501  2 O  dyy               38      0.563169  2 O  dzz        
    29     -0.423448  2 O  s                 10      0.191500  1 C  s          
    26     -0.132395  2 O  px                 7     -0.127365  1 C  px         


   alpha - beta orbital overlaps 
   ----------------------------- 


   alpha      1      2      3      4      5      6      7      8      9     10
    beta      1      2      3      4      5      6      7      8      9     10
 overlap   1.000  1.000  1.000  0.998  0.989  1.000  0.985  0.997  1.000  0.999


   alpha     11     12     13     14     15     16     17     18     19     20
    beta     11     12     14     13     15     16     17     18     19     20
 overlap   1.000  0.979  0.977  1.000  0.997  0.997  0.999  1.000  1.000  0.998


   alpha     21     22     23     24     25     26     27     28     29     30
    beta     21     22     23     24     25     26     27     28     29     30
 overlap   0.970  0.970  0.998  0.999  0.999  1.000  1.000  1.000  0.999  1.000


   alpha     31     32     33     34     35     36     37     38     39     40
    beta     31     32     33     34     35     36     37     38     39     40
 overlap   0.999  0.999  1.000  1.000  1.000  0.998  0.998  1.000  1.000  1.000


   alpha     41     42     43     44
    beta     41     42     43     44
 overlap   1.000  1.000  1.000  1.000

     --------------------------
     Expectation value of S2:  
     --------------------------
      <S2> =      0.7518 (Exact =     0.7500)


 center of mass
 --------------
 x =  20.08907383 y =  37.85650088 z =  56.69177966

 moments of inertia (a.u.)
 ------------------
           3.094935031741           4.287705521905           0.000000000000
           4.287705521905          40.226747247856           0.000000000000
           0.000000000000           0.000000000000          43.321682279597

     Multipole analysis of the density
     ---------------------------------

     L   x y z        total         alpha         beta         nuclear
     -   - - -        -----         -----         ----         -------
     0   0 0 0     -0.000000     -8.000000     -7.000000     15.000000

     1   1 0 0     -0.451190   -159.812525   -140.794157    300.155492
     1   0 1 0      0.372690   -303.026384   -265.302387    568.701461
     1   0 0 1     -0.000000   -453.534237   -396.842458    850.376695

     2   2 0 0    -26.652828  -3209.963796  -2845.755925   6029.066893
     2   1 1 0    -10.436118  -6051.802437  -5334.444128  11375.810447
     2   1 0 1    -25.578769  -9060.056466  -7981.871346  17016.349043
     2   0 2 0     19.824809 -11484.923781 -10059.644219  21564.392809
     2   0 1 1     21.128453 -17179.104990 -15040.464473  32240.697916
     2   0 0 2     -8.055273 -25716.026329 -22501.397155  48209.368211


          -----------------------------------------
          Chemical Shielding Tensors (GIAO, in ppm)
          -----------------------------------------


int_init: setting std/high accuracies to  1.0D-32  1.0D-64
  int_init: cando_txs set to always be  F
 Grid integrated density:      14.999999997224
 Requested integration accuracy:   0.10E-19
                                NWChem CPHF Module
                                ------------------



int_init: setting std/high accuracies to  1.0D-32  1.0D-64
  int_init: cando_txs set to always be  F
  scftype          =     UHF 
  nalpha           =        8
  nbeta            =        7
  variables        =      547
  # of vectors     =        3
  tolerance        = 0.10D-03
  level shift      = 0.00D+00
  max iterations   =       50
  max subspace     =       30

 Grid integrated density:      14.999999997224
 Requested integration accuracy:   0.10E-19
 SCF residual:    4.6445906822047603E-006


Iterative solution of linear equations
  No. of variables      547
  No. of equations        3
  Maximum subspace       30
        Iterations       50
       Convergence  1.0D-04
        Start time     15.1


   iter   nsub   residual    time
   ----  ------  --------  ---------
     1      3    3.89D-05      18.1

 Wrote CPHF data to ./cho_cs_analytic_trans.shieldcphf


int_init: setting std/high accuracies to  1.0D-32  1.0D-64
  int_init: cando_txs set to always be  F
 Calc. par tensor-> nonrel
      Atom:    1  C 
        Diamagnetic
    269.3123     -3.7005      0.0000
     -3.7005    253.9513      0.0000
      0.0000      0.0000    248.0471

        Paramagnetic
   -459.4894    110.9536     -0.0016
    110.9536   -374.7700     -0.0016
     -0.0016     -0.0016   -221.3194

        Total Shielding Tensor
   -190.1771    107.2531     -0.0016
    107.2531   -120.8186     -0.0016
     -0.0016     -0.0016     26.7276

           isotropic =     -94.7560
          anisotropy =    -260.1933

          Principal Components and Axis System
                 1           2           3
             -268.2182    -42.7775     26.7276

      1         0.8086      0.5884     -0.0000
      2        -0.5884      0.8086     -0.0000
      3         0.0000      0.0000      1.0000



      Atom:    2  O 
        Diamagnetic
    412.5451     -0.0285     -0.0000
     -0.0285    385.1383     -0.0000
     -0.0000     -0.0000    387.7193

        Paramagnetic
  -1152.2943     50.4427      0.0002
     50.4427   -775.3477      0.0001
      0.0002      0.0001   -377.9395

        Total Shielding Tensor
   -739.7492     50.4142      0.0002
     50.4142   -390.2094      0.0001
      0.0002      0.0001      9.7798

           isotropic =    -373.3929
          anisotropy =    -560.2234

          Principal Components and Axis System
                 1           2           3
             -746.8752   -383.0834      9.7798

      1         0.9902      0.1400      0.0000
      2        -0.1400      0.9902      0.0000
      3        -0.0000     -0.0000      1.0000



      Atom:    3  H 
        Diamagnetic
     28.3937     -7.5931     -0.0000
     -7.5931     31.5842      0.0000
     -0.0000      0.0000     21.6393

        Paramagnetic
    -21.1099     12.5716      0.0002
     12.5716    -12.8581      0.0003
      0.0002      0.0003      0.1771

        Total Shielding Tensor
      7.2839      4.9785      0.0002
      4.9785     18.7261      0.0003
      0.0002      0.0003     21.8165

           isotropic =      15.9421
          anisotropy =       8.8115

          Principal Components and Axis System
                 1           2           3
               21.8165     20.5889      5.4210

      1         0.0001      0.3504      0.9366
      2         0.0003      0.9366     -0.3504
      3         1.0000     -0.0003     -0.0000




 Task  times  cpu:       18.4s     wall:       18.4s


                                NWChem Input Module
                                -------------------


 Summary of allocated global arrays
-----------------------------------
  No active global arrays


MA_summarize_allocated_blocks: starting scan ...
heap block 'gridpts', handle 99, address 0x11f83b778:
	type of elements:		double precision
	number of elements:		33554432
	address of client space:	0x11f83b800
	index for client space:		22098009
	total number of bytes:		268435600
MA_summarize_allocated_blocks: scan completed: 1 heap block, 0 stack blocks
MA usage statistics:

	allocation statistics:
					      heap	     stack
					      ----	     -----
	current number of blocks	         1	         0
	maximum number of blocks	        23	        59
	current total bytes		 268435600	         0
	maximum total bytes		 276334232	  22512808
	maximum total K-bytes		    276335	     22513
	maximum total M-bytes		       277	        23


                                     CITATION
                                     --------
                Please cite the following reference when publishing
                           results obtained with NWChem:

          E. Apra, E. J. Bylaska, W. A. de Jong, N. Govind, K. Kowalski,
       T. P. Straatsma, M. Valiev, H. J. J. van Dam, Y. Alexeev, J. Anchell,
       V. Anisimov, F. W. Aquino, R. Atta-Fynn, J. Autschbach, N. P. Bauman,
     J. C. Becca, D. E. Bernholdt, K. Bhaskaran-Nair, S. Bogatko, P. Borowski,
         J. Boschen, J. Brabec, A. Bruner, E. Cauet, Y. Chen, G. N. Chuev,
      C. J. Cramer, J. Daily, M. J. O. Deegan, T. H. Dunning Jr., M. Dupuis,
   K. G. Dyall, G. I. Fann, S. A. Fischer, A. Fonari, H. Fruchtl, L. Gagliardi,
      J. Garza, N. Gawande, S. Ghosh, K. Glaesemann, A. W. Gotz, J. Hammond,
       V. Helms, E. D. Hermes, K. Hirao, S. Hirata, M. Jacquelin, L. Jensen,
   B. G. Johnson, H. Jonsson, R. A. Kendall, M. Klemm, R. Kobayashi, V. Konkov,
      S. Krishnamoorthy, M. Krishnan, Z. Lin, R. D. Lins, R. J. Littlefield,
      A. J. Logsdail, K. Lopata, W. Ma, A. V. Marenich, J. Martin del Campo,
   D. Mejia-Rodriguez, J. E. Moore, J. M. Mullin, T. Nakajima, D. R. Nascimento,
    J. A. Nichols, P. J. Nichols, J. Nieplocha, A. Otero-de-la-Roza, B. Palmer,
    A. Panyala, T. Pirojsirikul, B. Peng, R. Peverati, J. Pittner, L. Pollack,
   R. M. Richard, P. Sadayappan, G. C. Schatz, W. A. Shelton, D. W. Silverstein,
   D. M. A. Smith, T. A. Soares, D. Song, M. Swart, H. L. Taylor, G. S. Thomas,
            V. Tipparaju, D. G. Truhlar, K. Tsemekhman, T. Van Voorhis,
      A. Vazquez-Mayagoitia, P. Verma, O. Villa, A. Vishnu, K. D. Vogiatzis,
        D. Wang, J. H. Weare, M. J. Williamson, T. L. Windus, K. Wolinski,
        A. T. Wong, Q. Wu, C. Yang, Q. Yu, M. Zacharias, Z. Zhang, Y. Zhao,
                                and R. J. Harrison
                        "NWChem: Past, present, and future
                         J. Chem. Phys. 152, 184102 (2020)
                               doi:10.1063/5.0004997

                                      AUTHORS
                                      -------
  E. Apra, E. J. Bylaska, N. Govind, K. Kowalski, M. Valiev, D. Mejia-Rodriguez,
       A. Kunitsa, N. P. Bauman, A. Panyala, W. A. de Jong, T. P. Straatsma,
        H. J. J. van Dam, D. Wang, T. L. Windus, J. Hammond, J. Autschbach,
    K. Bhaskaran-Nair, J. Brabec, K. Lopata, S. A. Fischer, S. Krishnamoorthy,
     M. Jacquelin, W. Ma, M. Klemm, O. Villa, Y. Chen, V. Anisimov, F. Aquino,
    S. Hirata, M. T. Hackler, Eric Hermes, L. Jensen, J. E. Moore, J. C. Becca,
      V. Konjkov, T. Risthaus, M. Malagoli, A. Marenich, A. Otero-de-la-Roza,
        J. Mullin, P. Nichols, R. Peverati, J. Pittner, Y. Zhao, P.-D. Fan,
        A. Fonari, M. J. Williamson, R. J. Harrison, J. R. Rehr, M. Dupuis,
     D. Silverstein, D. M. A. Smith, J. Nieplocha, V. Tipparaju, M. Krishnan,
     B. E. Van Kuiken, A. Vazquez-Mayagoitia, M. Swart, Q. Wu, T. Van Voorhis,
     A. A. Auer, M. Nooijen, L. D. Crosby, E. Brown, G. Cisneros, G. I. Fann,
   H. Fruchtl, J. Garza, K. Hirao, R. A. Kendall, J. A. Nichols, K. Tsemekhman,
    K. Wolinski, J. Anchell, D. E. Bernholdt, P. Borowski, T. Clark, D. Clerc,
   H. Dachsel, M. J. O. Deegan, K. Dyall, D. Elwood, E. Glendening, M. Gutowski,
   A. C. Hess, J. Jaffe, B. G. Johnson, J. Ju, R. Kobayashi, R. Kutteh, Z. Lin,
   R. Littlefield, X. Long, B. Meng, T. Nakajima, S. Niu, L. Pollack, M. Rosing,
   K. Glaesemann, G. Sandrone, M. Stave, H. Taylor, G. Thomas, J. H. van Lenthe,
                               A. T. Wong, Z. Zhang.

 Total times  cpu:       18.5s     wall:       18.5s
