refund: UserID = jhammond
refund: LSF Job ID = 510852
refund: RMS Job ID = parallel.2304950
refund: Number of processors = 8
refund: Amount of time requested = 30
 
Processor list
 
m[571-574]
 
ARMCI configured for 4 cluster nodes. Network protocol is 'Quadrics ELAN-4'.
 argument  1 = /home/jhammond/nwchem/QA/tests/tce_benzene_2emet_5/tce_benzene_2emet_5.nw
 


============================== echo of input deck ==============================
echo

start tce_benzene_2emet_5

# You must set to something globally accessible
permanent_dir /dtemp/jhammond

#memory stack 1700 mb heap 300 mb global 1700 mb

geometry units angstrom
 symmetry d2h
 C               0.000    1.390    0.000
 H               0.000    2.470    0.000
 C               1.204    0.695    0.000
 H               2.139    1.235    0.000
 C               0.000   -1.390    0.000
 H               0.000   -2.470    0.000
 C              -1.204   -0.695    0.000
 H              -2.139   -1.235    0.000
 C               1.204   -0.695    0.000
 H               2.139   -1.235    0.000
 C              -1.204    0.695    0.000
 H              -2.139    1.235    0.000
end

basis spherical
  * library cc-pvdz
end

scf
  singlet
  rhf
  thresh 1.0e-10
  direct
end

tce
  scf
  freeze core
  ccsd
  io ga
  tilesize 15
  2eorb
  2emet 5
  idiskx 1
  attilesize 20
end

task tce energy
================================================================================


                                         
                                         
 
 
              Northwest Computational Chemistry Package (NWChem) 5.1
              ------------------------------------------------------
 
 
                    Environmental Molecular Sciences Laboratory
                       Pacific Northwest National Laboratory
                                Richland, WA 99352
 
                                         
                                         
 
 
                  COPYRIGHT (C) 1994, 1995, 1996, 1997, 1998, 1999
                   2000, 2001, 2002, 2003, 2004, 2005, 2006, 2007
                        Pacific Northwest National Laboratory,
                             Battelle Memorial Institute.
 
                            >>> All Rights Reserved <<<
 
 
                                    DISCLAIMER
                                    ----------

            This material was prepared as an account of work sponsored
            by an agency of the United States Government.  Neither the
            United States Government nor the United States Department
            of Energy, nor Battelle, nor any of their employees, MAKES
            ANY WARRANTY, EXPRESS OR IMPLIED, OR ASSUMES ANY LEGAL
            LIABILITY OR RESPONSIBILITY FOR THE ACCURACY, COMPLETENESS,
            OR USEFULNESS OF ANY INFORMATION, APPARATUS, PRODUCT,
            SOFTWARE, OR PROCESS DISCLOSED, OR REPRESENTS THAT ITS USE
            WOULD NOT INFRINGE PRIVATELY OWNED RIGHTS.


                                    LIMITED USE
                                    -----------

            This software (including any documentation) is being made
            available to you for your internal use only, solely for use
            in performance of work directly for the U.S. Federal
            Government or work under contracts with the U.S. Department
            of Energy or other U.S. Federal Government agencies.  This
            software is a version which has not yet been evaluated and
            cleared for commercialization.  Adherence to this notice
            may be necessary for the author, Battelle Memorial
            Institute, to successfully assert copyright in and
            commercialize this software. This software is not intended
            for duplication or distribution to third parties without
            the permission of the Manager of Software Products at
            Pacific Northwest National Laboratory, Richland,
            Washington, 99352.


                                  ACKNOWLEDGMENT
                                  --------------

            This software and its documentation were produced with
            Government support under Contract Number DE-AC05-76RL01830
            awarded by the United States Department of Energy.  The
            Government retains a paid-up non-exclusive, irrevocable
            worldwide license to reproduce, prepare derivative works,
            perform publicly and display publicly by or for the
            Government, including the right to distribute to other
            Government contractors.


           Job information
           ---------------

    hostname      = m571
    program       = /scratch/nwchem
    date          = Thu Mar 27 09:21:50 2008

    compiled      = Wed_Mar_26_12:34:41_2008
    source        = /home/jhammond/nwchem
    nwchem branch = Development
    input         = /home/jhammond/nwchem/QA/tests/tce_benzene_2emet_5/tce_benzene_2emet_5.nw
    prefix        = tce_benzene_2emet_5.
    data base     = /dtemp/jhammond/tce_benzene_2emet_5.db
    status        = startup
    nproc         =    8
    time left     =   1740s
    batch job id  = 510852

           Memory information
           ------------------

    heap      =   13107201 doubles =    100.0 Mbytes
    stack     =   13107201 doubles =    100.0 Mbytes
    global    =   26214400 doubles =    200.0 Mbytes (distinct from heap & stack)
    total     =   52428802 doubles =    400.0 Mbytes
    verify    = yes
    hardfail  = no 


           Directory information
           ---------------------
 
  0 permanent = /dtemp/jhammond
  0 scratch   = /scratch
 
 
 
 
                                NWChem Input Module
                                -------------------
 
 

 Scaling coordinates for geometry "geometry" by  1.889725989
 (inverse scale =  0.529177249)

 Turning off AUTOSYM since
 SYMMETRY directive was detected!
 

          ------
          auto-z
          ------
 
 
                             Geometry "geometry" -> ""
                             -------------------------
 
 Output coordinates in angstroms (scale by  1.889725989 to convert to a.u.)
 
  No.       Tag          Charge          X              Y              Z
 ---- ---------------- ---------- -------------- -------------- --------------
    1 C                    6.0000     0.00000000     1.39000000     0.00000000
    2 H                    1.0000     0.00000000     2.47000000     0.00000000
    3 C                    6.0000     1.20400000     0.69500000     0.00000000
    4 H                    1.0000     2.13900000     1.23500000     0.00000000
    5 C                    6.0000     0.00000000    -1.39000000     0.00000000
    6 H                    1.0000     0.00000000    -2.47000000     0.00000000
    7 C                    6.0000    -1.20400000    -0.69500000     0.00000000
    8 H                    1.0000    -2.13900000    -1.23500000     0.00000000
    9 C                    6.0000     1.20400000    -0.69500000     0.00000000
   10 H                    1.0000     2.13900000    -1.23500000     0.00000000
   11 C                    6.0000    -1.20400000     0.69500000     0.00000000
   12 H                    1.0000    -2.13900000     1.23500000     0.00000000
 
      Atomic Mass 
      ----------- 
 
      C                 12.000000
      H                  1.007825
 

 Effective nuclear repulsion energy (a.u.)     204.1957877989

            Nuclear Dipole moment (a.u.) 
            ----------------------------
        X                 Y               Z
 ---------------- ---------------- ----------------
     0.0000000000     0.0000000000     0.0000000000
 
      Symmetry information
      --------------------
 
 Group name             D2h       
 Group number             26
 Group order               8
 No. of unique centers     4
 
      Symmetry unique atoms
 
     1    2    3    4
 


                                Z-matrix (autoz)
                                -------- 

 Units are Angstrom for bonds and degrees for angles
 
      Type          Name      I     J     K     L     M      Value
      ----------- --------  ----- ----- ----- ----- ----- ----------
    1 Stretch                  1     2                       1.08000
    2 Stretch                  1     3                       1.39019
    3 Stretch                  1    11                       1.39019
    4 Stretch                  3     4                       1.07973
    5 Stretch                  3     9                       1.39000
    6 Stretch                  5     6                       1.08000
    7 Stretch                  5     7                       1.39019
    8 Stretch                  5     9                       1.39019
    9 Stretch                  7     8                       1.07973
   10 Stretch                  7    11                       1.39000
   11 Stretch                  9    10                       1.07973
   12 Stretch                 11    12                       1.07973
   13 Bend                     1     3     4               119.99647
   14 Bend                     1     3     9               119.99537
   15 Bend                     1    11     7               119.99537
   16 Bend                     1    11    12               119.99647
   17 Bend                     2     1     3               119.99537
   18 Bend                     2     1    11               119.99537
   19 Bend                     3     1    11               120.00926
   20 Bend                     3     9     5               119.99537
   21 Bend                     3     9    10               120.00816
   22 Bend                     4     3     9               120.00816
   23 Bend                     5     7     8               119.99647
   24 Bend                     5     7    11               119.99537
   25 Bend                     5     9    10               119.99647
   26 Bend                     6     5     7               119.99537
   27 Bend                     6     5     9               119.99537
   28 Bend                     7     5     9               120.00926
   29 Bend                     7    11    12               120.00816
   30 Bend                     8     7    11               120.00816
   31 Torsion                  1     3     9     5           0.00000
   32 Torsion                  1     3     9    10         180.00000
   33 Torsion                  1    11     7     5           0.00000
   34 Torsion                  1    11     7     8         180.00000
   35 Torsion                  2     1     3     4           0.00000
   36 Torsion                  2     1     3     9         180.00000
   37 Torsion                  2     1    11     7         180.00000
   38 Torsion                  2     1    11    12           0.00000
   39 Torsion                  3     1    11     7           0.00000
   40 Torsion                  3     1    11    12         180.00000
   41 Torsion                  3     9     5     6         180.00000
   42 Torsion                  3     9     5     7           0.00000
   43 Torsion                  4     3     1    11         180.00000
   44 Torsion                  4     3     9     5         180.00000
   45 Torsion                  4     3     9    10           0.00000
   46 Torsion                  5     7    11    12         180.00000
   47 Torsion                  6     5     7     8           0.00000
   48 Torsion                  6     5     7    11         180.00000
   49 Torsion                  6     5     9    10           0.00000
   50 Torsion                  7     5     9    10         180.00000
   51 Torsion                  8     7     5     9         180.00000
   52 Torsion                  8     7    11    12           0.00000
   53 Torsion                  9     3     1    11           0.00000
   54 Torsion                  9     5     7    11           0.00000
 
 
            XYZ format geometry
            -------------------
    12
 geometry
 C                     0.00000000     1.39000000     0.00000000
 H                     0.00000000     2.47000000     0.00000000
 C                     1.20400000     0.69500000     0.00000000
 H                     2.13900000     1.23500000     0.00000000
 C                     0.00000000    -1.39000000     0.00000000
 H                     0.00000000    -2.47000000     0.00000000
 C                    -1.20400000    -0.69500000     0.00000000
 H                    -2.13900000    -1.23500000     0.00000000
 C                     1.20400000    -0.69500000     0.00000000
 H                     2.13900000    -1.23500000     0.00000000
 C                    -1.20400000     0.69500000     0.00000000
 H                    -2.13900000     1.23500000     0.00000000
 
 ==============================================================================
                                internuclear distances
 ------------------------------------------------------------------------------
       center one      |      center two      | atomic units |  angstroms
 ------------------------------------------------------------------------------
    2 H                |   1 C                |     2.04090  |     1.08000
    3 C                |   1 C                |     2.62709  |     1.39019
    4 H                |   3 C                |     2.04040  |     1.07973
    6 H                |   5 C                |     2.04090  |     1.08000
    7 C                |   5 C                |     2.62709  |     1.39019
    8 H                |   7 C                |     2.04040  |     1.07973
    9 C                |   3 C                |     2.62672  |     1.39000
    9 C                |   5 C                |     2.62709  |     1.39019
   10 H                |   9 C                |     2.04040  |     1.07973
   11 C                |   1 C                |     2.62709  |     1.39019
   11 C                |   7 C                |     2.62672  |     1.39000
   12 H                |  11 C                |     2.04040  |     1.07973
 ------------------------------------------------------------------------------
                         number of included internuclear distances:         12
 ==============================================================================



 ==============================================================================
                                 internuclear angles
 ------------------------------------------------------------------------------
        center 1       |       center 2       |       center 3       |  degrees
 ------------------------------------------------------------------------------
    2 H                |   1 C                |   3 C                |   120.00
    2 H                |   1 C                |  11 C                |   120.00
    3 C                |   1 C                |  11 C                |   120.01
    1 C                |   3 C                |   4 H                |   120.00
    1 C                |   3 C                |   9 C                |   120.00
    4 H                |   3 C                |   9 C                |   120.01
    6 H                |   5 C                |   7 C                |   120.00
    6 H                |   5 C                |   9 C                |   120.00
    7 C                |   5 C                |   9 C                |   120.01
    5 C                |   7 C                |   8 H                |   120.00
    5 C                |   7 C                |  11 C                |   120.00
    8 H                |   7 C                |  11 C                |   120.01
    3 C                |   9 C                |   5 C                |   120.00
    3 C                |   9 C                |  10 H                |   120.01
    5 C                |   9 C                |  10 H                |   120.00
    1 C                |  11 C                |   7 C                |   120.00
    1 C                |  11 C                |  12 H                |   120.00
    7 C                |  11 C                |  12 H                |   120.01
 ------------------------------------------------------------------------------
                            number of included internuclear angles:         18
 ==============================================================================





 Summary of "ao basis" -> "" (spherical)
 ------------------------------------------------------------------------------
       Tag                 Description            Shells   Functions and Types
 ---------------- ------------------------------  ------  ---------------------
 *                          cc-pvdz                   on all atoms 


                      Basis "ao basis" -> "ao basis" (spherical)
                      -----
  C (Carbon)
  ----------
            Exponent  Coefficients 
       -------------- ---------------------------------------------------------
  1 S  6.66500000E+03  0.000692
  1 S  1.00000000E+03  0.005329
  1 S  2.28000000E+02  0.027077
  1 S  6.47100000E+01  0.101718
  1 S  2.10600000E+01  0.274740
  1 S  7.49500000E+00  0.448564
  1 S  2.79700000E+00  0.285074
  1 S  5.21500000E-01  0.015204
 
  2 S  6.66500000E+03 -0.000146
  2 S  1.00000000E+03 -0.001154
  2 S  2.28000000E+02 -0.005725
  2 S  6.47100000E+01 -0.023312
  2 S  2.10600000E+01 -0.063955
  2 S  7.49500000E+00 -0.149981
  2 S  2.79700000E+00 -0.127262
  2 S  5.21500000E-01  0.544529
 
  3 S  1.59600000E-01  1.000000
 
  4 P  9.43900000E+00  0.038109
  4 P  2.00200000E+00  0.209480
  4 P  5.45600000E-01  0.508557
 
  5 P  1.51700000E-01  1.000000
 
  6 D  5.50000000E-01  1.000000
 
  H (Hydrogen)
  ------------
            Exponent  Coefficients 
       -------------- ---------------------------------------------------------
  1 S  1.30100000E+01  0.019685
  1 S  1.96200000E+00  0.137977
  1 S  4.44600000E-01  0.478148
 
  2 S  1.22000000E-01  1.000000
 
  3 P  7.27000000E-01  1.000000
 


 Summary of "ao basis" -> "ao basis" (spherical)
 ------------------------------------------------------------------------------
       Tag                 Description            Shells   Functions and Types
 ---------------- ------------------------------  ------  ---------------------
 C                          cc-pvdz                  6       14   3s2p1d
 H                          cc-pvdz                  3        5   2s1p


                                 NWChem SCF Module
                                 -----------------
 
 

  ao basis        = "ao basis"
  functions       =   114
  atoms           =    12
  closed shells   =    21
  open shells     =     0
  charge          =   0.00
  wavefunction    = RHF 
  input vectors   = atomic
  output vectors  = /dtemp/jhammond/tce_benzene_2emet_5.movecs
  use symmetry    = T
  symmetry adapt  = T


 Summary of "ao basis" -> "ao basis" (spherical)
 ------------------------------------------------------------------------------
       Tag                 Description            Shells   Functions and Types
 ---------------- ------------------------------  ------  ---------------------
 C                          cc-pvdz                  6       14   3s2p1d
 H                          cc-pvdz                  3        5   2s1p


      Symmetry analysis of basis
      --------------------------
 
        ag         24
        au          6
        b1g        18
        b1u         9
        b2g         6
        b2u        24
        b3g         9
        b3u        18
 

 Forming initial guess at       0.6s

 
      Superposition of Atomic Density Guess
      -------------------------------------
 
 Sum of atomic energies:        -228.99255066
 
      Non-variational initial energy
      ------------------------------

 Total energy =    -233.352017
 1-e energy   =    -710.120459
 2-e energy   =     272.572654
 HOMO         =      -0.306797
 LUMO         =      -0.007322
 
 
      Symmetry analysis of molecular orbitals - initial
      -------------------------------------------------
 
  Numbering of irreducible representations: 
 
     1 ag          2 au          3 b1g         4 b1u         5 b2g     
     6 b2u         7 b3g         8 b3u     
 
  Orbital symmetries:
 
     1 ag          2 b3u         3 b2u         4 b1g         5 ag      
     6 b2u         7 ag          8 b3u         9 b2u        10 b1g     
    11 ag         12 ag         13 b2u        14 b3u        15 b3u     
    16 b2u        17 b1u        18 b1g        19 ag         20 b2g     
    21 b3g        22 b1u        23 au         24 ag         25 b2u     
    26 b3u        27 ag         28 b1g        29 b3g        30 b2u     
    31 ag      
 

 Starting SCF solution at       1.3s



 ----------------------------------------------
         Quadratically convergent ROHF

 Convergence threshold     :          1.000E-10
 Maximum no. of iterations :           20
 Final Fock-matrix accuracy:          1.000E-12
 ----------------------------------------------


              iter       energy          gnorm     gmax       time
             ----- ------------------- --------- --------- --------
                 1     -230.6573301746  8.22D-01  2.70D-01      2.5
                 2     -230.7172816003  2.26D-01  7.58D-02      4.5
                 3     -230.7223055054  8.08D-03  2.23D-03      7.1
                 4     -230.7223110441  2.60D-05  7.30D-06     11.1
                 5     -230.7223110441  5.79D-10  2.73D-10     17.8
                 6     -230.7223110441  2.64D-11  1.39D-11     21.4


       Final RHF  results 
       ------------------ 

         Total SCF energy =   -230.722311044135
      One-electron energy =   -714.777005181839
      Two-electron energy =    279.858906338801
 Nuclear repulsion energy =    204.195787798903

        Time for solution =     20.8s


 
       Symmetry analysis of molecular orbitals - final
       -----------------------------------------------
 
  Numbering of irreducible representations: 
 
     1 ag          2 au          3 b1g         4 b1u         5 b2g     
     6 b2u         7 b3g         8 b3u     
 
  Orbital symmetries:
 
     1 ag          2 b2u         3 b3u         4 ag          5 b1g     
     6 b2u         7 ag          8 b3u         9 b2u        10 b1g     
    11 ag         12 ag         13 b2u        14 b3u        15 b3u     
    16 b2u        17 b1u        18 b1g        19 ag         20 b2g     
    21 b3g        22 b1u        23 au         24 ag         25 b2u     
    26 b3u        27 b1g        28 ag         29 b2u        30 b3g     
    31 ag      
 
             Final eigenvalues
             -----------------

              1      
    1  -11.2371
    2  -11.2365
    3  -11.2365
    4  -11.2353
    5  -11.2353
    6  -11.2347
    7   -1.1510
    8   -1.0146
    9   -1.0145
   10   -0.8228
   11   -0.8227
   12   -0.7078
   13   -0.6413
   14   -0.6167
   15   -0.5857
   16   -0.5855
   17   -0.5008
   18   -0.4911
   19   -0.4911
   20   -0.3343
   21   -0.3342
   22    0.1385
   23    0.1386
   24    0.1830
   25    0.2203
   26    0.2203
   27    0.2564
   28    0.2564
   29    0.2736
   30    0.3532
   31    0.4391
 
                       ROHF Final Molecular Orbital Analysis
                       -------------------------------------
 
 Vector    7  Occ=2.000000D+00  E=-1.150954D+00  Symmetry=ag
              MO Center= -1.9D-16,  2.6D-16, -4.0D-18, r^2= 2.1D+00
   Bfn.  Coefficient  Atom+Function         Bfn.  Coefficient  Atom+Function  
  ----- ------------  ---------------      ----- ------------  ---------------
    21      0.179835   3 C  s                59      0.179835   7 C  s         
    97      0.179835  11 C  s                78      0.179835   9 C  s         
     2      0.179802   1 C  s                40      0.179802   5 C  s         
 
 Vector    8  Occ=2.000000D+00  E=-1.014635D+00  Symmetry=b3u
              MO Center=  1.1D-16, -2.1D-15,  4.3D-19, r^2= 2.8D+00
   Bfn.  Coefficient  Atom+Function         Bfn.  Coefficient  Atom+Function  
  ----- ------------  ---------------      ----- ------------  ---------------
    21      0.214164   3 C  s                59     -0.214164   7 C  s         
    78      0.214164   9 C  s                97     -0.214164  11 C  s         
 
 Vector    9  Occ=2.000000D+00  E=-1.014524D+00  Symmetry=b2u
              MO Center= -1.9D-15, -1.4D-16,  8.0D-21, r^2= 2.8D+00
   Bfn.  Coefficient  Atom+Function         Bfn.  Coefficient  Atom+Function  
  ----- ------------  ---------------      ----- ------------  ---------------
    40      0.247292   5 C  s                 2     -0.247292   1 C  s         
 
 Vector   10  Occ=2.000000D+00  E=-8.227531D-01  Symmetry=b1g
              MO Center=  2.2D-16, -3.3D-16, -5.9D-17, r^2= 3.6D+00
   Bfn.  Coefficient  Atom+Function         Bfn.  Coefficient  Atom+Function  
  ----- ------------  ---------------      ----- ------------  ---------------
    42      0.206730   5 C  px                4     -0.206730   1 C  px        
    78      0.172828   9 C  s                97      0.172828  11 C  s         
    59     -0.172828   7 C  s                21     -0.172828   3 C  s         
 
 Vector   11  Occ=2.000000D+00  E=-8.227425D-01  Symmetry=ag
              MO Center=  1.2D-15,  5.1D-16,  5.5D-19, r^2= 3.6D+00
   Bfn.  Coefficient  Atom+Function         Bfn.  Coefficient  Atom+Function  
  ----- ------------  ---------------      ----- ------------  ---------------
     2      0.199597   1 C  s                40      0.199597   5 C  s         
    41      0.162645   5 C  s                 3      0.162645   1 C  s         
    53      0.156678   6 H  s                15      0.156678   2 H  s         
 
 Vector   12  Occ=2.000000D+00  E=-7.077962D-01  Symmetry=ag
              MO Center=  5.0D-16, -8.9D-16,  2.7D-18, r^2= 4.2D+00
   Bfn.  Coefficient  Atom+Function         Bfn.  Coefficient  Atom+Function  
  ----- ------------  ---------------      ----- ------------  ---------------
    43      0.189576   5 C  py                5     -0.189576   1 C  py        
    23     -0.164170   3 C  px               61      0.164170   7 C  px        
    99      0.164170  11 C  px               80     -0.164170   9 C  px        
    34     -0.150293   4 H  s               110     -0.150293  12 H  s         
    72     -0.150293   8 H  s                91     -0.150293  10 H  s         
 
 Vector   13  Occ=2.000000D+00  E=-6.412951D-01  Symmetry=b2u
              MO Center=  1.7D-15, -6.9D-16, -7.7D-20, r^2= 5.2D+00
   Bfn.  Coefficient  Atom+Function         Bfn.  Coefficient  Atom+Function  
  ----- ------------  ---------------      ----- ------------  ---------------
    72      0.185196   8 H  s                91      0.185196  10 H  s         
    34     -0.185196   4 H  s               110     -0.185196  12 H  s         
    15      0.184878   2 H  s                53     -0.184878   6 H  s         
     3      0.153204   1 C  s                41     -0.153204   5 C  s         
    22     -0.153076   3 C  s                60      0.153076   7 C  s         
 
 Vector   14  Occ=2.000000D+00  E=-6.167246D-01  Symmetry=b3u
              MO Center= -4.7D-16,  6.9D-17,  1.8D-18, r^2= 2.7D+00
   Bfn.  Coefficient  Atom+Function         Bfn.  Coefficient  Atom+Function  
  ----- ------------  ---------------      ----- ------------  ---------------
     4      0.276885   1 C  px               42      0.276885   5 C  px        
    24      0.239881   3 C  py              100     -0.239881  11 C  py        
    62      0.239881   7 C  py               81     -0.239881   9 C  py        
 
 Vector   15  Occ=2.000000D+00  E=-5.856756D-01  Symmetry=b3u
              MO Center=  3.3D-16,  1.3D-15,  2.0D-17, r^2= 4.1D+00
   Bfn.  Coefficient  Atom+Function         Bfn.  Coefficient  Atom+Function  
  ----- ------------  ---------------      ----- ------------  ---------------
    61      0.196380   7 C  px               23      0.196380   3 C  px        
    99      0.196380  11 C  px               80      0.196380   9 C  px        
   110     -0.193923  12 H  s                91      0.193923  10 H  s         
    34      0.193923   4 H  s                72     -0.193923   8 H  s         
    81     -0.163855   9 C  py              100     -0.163855  11 C  py        
 
 Vector   16  Occ=2.000000D+00  E=-5.855340D-01  Symmetry=b2u
              MO Center= -1.6D-15,  1.7D-15,  1.2D-19, r^2= 4.1D+00
   Bfn.  Coefficient  Atom+Function         Bfn.  Coefficient  Atom+Function  
  ----- ------------  ---------------      ----- ------------  ---------------
     5      0.291084   1 C  py               43      0.291084   5 C  py        
    53     -0.224071   6 H  s                15      0.224071   2 H  s         
    61      0.163829   7 C  px               23      0.163829   3 C  px        
    99     -0.163829  11 C  px               80     -0.163829   9 C  px        
 
 Vector   17  Occ=2.000000D+00  E=-5.007524D-01  Symmetry=b1u
              MO Center= -1.1D-16, -8.6D-16, -4.1D-19, r^2= 2.8D+00
   Bfn.  Coefficient  Atom+Function         Bfn.  Coefficient  Atom+Function  
  ----- ------------  ---------------      ----- ------------  ---------------
    63      0.215528   7 C  pz               25      0.215528   3 C  pz        
    82      0.215528   9 C  pz              101      0.215528  11 C  pz        
    44      0.215502   5 C  pz                6      0.215502   1 C  pz        
 
 Vector   18  Occ=2.000000D+00  E=-4.911475D-01  Symmetry=b1g
              MO Center= -7.8D-16,  4.7D-16,  4.4D-31, r^2= 4.1D+00
   Bfn.  Coefficient  Atom+Function         Bfn.  Coefficient  Atom+Function  
  ----- ------------  ---------------      ----- ------------  ---------------
     4      0.256462   1 C  px               42     -0.256462   5 C  px        
    23     -0.229564   3 C  px               61      0.229564   7 C  px        
    99     -0.229564  11 C  px               80      0.229564   9 C  px        
    72     -0.190204   8 H  s                34     -0.190204   4 H  s         
   110      0.190204  12 H  s                91      0.190204  10 H  s         
 
 Vector   19  Occ=2.000000D+00  E=-4.911389D-01  Symmetry=ag
              MO Center= -1.5D-15,  3.5D-16, -2.2D-18, r^2= 4.1D+00
   Bfn.  Coefficient  Atom+Function         Bfn.  Coefficient  Atom+Function  
  ----- ------------  ---------------      ----- ------------  ---------------
    62      0.247451   7 C  py               24     -0.247451   3 C  py        
    81      0.247451   9 C  py              100     -0.247451  11 C  py        
     5      0.220628   1 C  py               43     -0.220628   5 C  py        
    53      0.219678   6 H  s                15      0.219678   2 H  s         
 
 Vector   20  Occ=2.000000D+00  E=-3.342920D-01  Symmetry=b2g
              MO Center=  4.4D-16, -2.2D-16, -2.4D-17, r^2= 3.1D+00
   Bfn.  Coefficient  Atom+Function         Bfn.  Coefficient  Atom+Function  
  ----- ------------  ---------------      ----- ------------  ---------------
    82      0.277910   9 C  pz              101     -0.277910  11 C  pz        
    25      0.277910   3 C  pz               63     -0.277910   7 C  pz        
   104     -0.223684  11 C  pz               85      0.223684   9 C  pz        
    66     -0.223684   7 C  pz               28      0.223684   3 C  pz        
 
 Vector   21  Occ=2.000000D+00  E=-3.342116D-01  Symmetry=b3g
              MO Center=  6.9D-17,  9.3D-16,  2.4D-20, r^2= 3.1D+00
   Bfn.  Coefficient  Atom+Function         Bfn.  Coefficient  Atom+Function  
  ----- ------------  ---------------      ----- ------------  ---------------
    44      0.320909   5 C  pz                6     -0.320909   1 C  pz        
     9     -0.258343   1 C  pz               47      0.258343   5 C  pz        
    25     -0.160436   3 C  pz               63      0.160436   7 C  pz        
   101     -0.160436  11 C  pz               82      0.160436   9 C  pz        
 
 Vector   22  Occ=0.000000D+00  E= 1.385187D-01  Symmetry=b1u
              MO Center= -8.6D-16, -1.8D-16,  3.3D-17, r^2= 3.8D+00
   Bfn.  Coefficient  Atom+Function         Bfn.  Coefficient  Atom+Function  
  ----- ------------  ---------------      ----- ------------  ---------------
     9      0.585137   1 C  pz               47      0.585137   5 C  pz        
    44      0.312914   5 C  pz                6      0.312914   1 C  pz        
   104     -0.292548  11 C  pz               66     -0.292548   7 C  pz        
    85     -0.292548   9 C  pz               28     -0.292548   3 C  pz        
   101     -0.156465  11 C  pz               63     -0.156465   7 C  pz        
 
 Vector   23  Occ=0.000000D+00  E= 1.385568D-01  Symmetry=au
              MO Center= -1.1D-16,  1.7D-16,  5.7D-17, r^2= 3.8D+00
   Bfn.  Coefficient  Atom+Function         Bfn.  Coefficient  Atom+Function  
  ----- ------------  ---------------      ----- ------------  ---------------
    28     -0.506816   3 C  pz               66     -0.506816   7 C  pz        
    85      0.506816   9 C  pz              104      0.506816  11 C  pz        
   101      0.270976  11 C  pz               82      0.270976   9 C  pz        
    25     -0.270976   3 C  pz               63     -0.270976   7 C  pz        
 
 Vector   24  Occ=0.000000D+00  E= 1.830112D-01  Symmetry=ag
              MO Center=  3.9D-16,  5.6D-17, -6.1D-19, r^2= 1.0D+01
   Bfn.  Coefficient  Atom+Function         Bfn.  Coefficient  Atom+Function  
  ----- ------------  ---------------      ----- ------------  ---------------
    92      0.762354  10 H  s               111      0.762354  12 H  s         
    35      0.762354   4 H  s                73      0.762354   8 H  s         
    54      0.762351   6 H  s                16      0.762351   2 H  s         
     3     -0.583736   1 C  s                41     -0.583736   5 C  s         
    60     -0.583625   7 C  s                22     -0.583625   3 C  s         
 
 Vector   25  Occ=0.000000D+00  E= 2.203074D-01  Symmetry=b2u
              MO Center=  3.6D-16, -3.1D-16, -1.8D-22, r^2= 1.1D+01
   Bfn.  Coefficient  Atom+Function         Bfn.  Coefficient  Atom+Function  
  ----- ------------  ---------------      ----- ------------  ---------------
    16     -1.330837   2 H  s                54      1.330837   6 H  s         
     3      1.036570   1 C  s                41     -1.036570   5 C  s         
     8      0.675625   1 C  py               46      0.675625   5 C  py        
    35     -0.665812   4 H  s                73      0.665812   8 H  s         
   111     -0.665812  12 H  s                92      0.665812  10 H  s         
 
 Vector   26  Occ=0.000000D+00  E= 2.203086D-01  Symmetry=b3u
              MO Center= -1.6D-15, -3.3D-16,  2.6D-18, r^2= 1.1D+01
   Bfn.  Coefficient  Atom+Function         Bfn.  Coefficient  Atom+Function  
  ----- ------------  ---------------      ----- ------------  ---------------
    35      1.152970   4 H  s                73     -1.152970   8 H  s         
   111     -1.152970  12 H  s                92      1.152970  10 H  s         
    60      0.897759   7 C  s                22     -0.897759   3 C  s         
    79     -0.897759   9 C  s                98      0.897759  11 C  s         
    26     -0.458397   3 C  px               64     -0.458397   7 C  px        
 
 Vector   27  Occ=0.000000D+00  E= 2.563774D-01  Symmetry=b1g
              MO Center= -1.4D-15, -2.8D-16, -2.6D-29, r^2= 1.2D+01
   Bfn.  Coefficient  Atom+Function         Bfn.  Coefficient  Atom+Function  
  ----- ------------  ---------------      ----- ------------  ---------------
    73      1.370584   8 H  s                35      1.370584   4 H  s         
   111     -1.370584  12 H  s                92     -1.370584  10 H  s         
    60     -0.858603   7 C  s                22     -0.858603   3 C  s         
    98      0.858603  11 C  s                79      0.858603   9 C  s         
    64      0.785193   7 C  px               26     -0.785193   3 C  px        
 
 Vector   28  Occ=0.000000D+00  E= 2.563803D-01  Symmetry=ag
              MO Center=  1.1D-15,  1.8D-16, -1.0D-17, r^2= 1.2D+01
   Bfn.  Coefficient  Atom+Function         Bfn.  Coefficient  Atom+Function  
  ----- ------------  ---------------      ----- ------------  ---------------
    16      1.581911   2 H  s                54      1.581911   6 H  s         
    41     -0.991468   5 C  s                 3     -0.991468   1 C  s         
     8     -0.973058   1 C  py               46      0.973058   5 C  py        
    35     -0.791431   4 H  s                73     -0.791431   8 H  s         
   111     -0.791431  12 H  s                92     -0.791431  10 H  s         
 
 Vector   29  Occ=0.000000D+00  E= 2.736049D-01  Symmetry=b2u
              MO Center=  4.6D-15,  1.1D-16, -1.1D-21, r^2= 1.3D+01
   Bfn.  Coefficient  Atom+Function         Bfn.  Coefficient  Atom+Function  
  ----- ------------  ---------------      ----- ------------  ---------------
    46      1.814376   5 C  py                8      1.814376   1 C  py        
    83      1.571486   9 C  px               26     -1.571486   3 C  px        
   102      1.571486  11 C  px               64     -1.571486   7 C  px        
    35      1.536639   4 H  s                92     -1.536639  10 H  s         
    73     -1.536639   8 H  s               111      1.536639  12 H  s         
 
 Vector   30  Occ=0.000000D+00  E= 3.532437D-01  Symmetry=b3g
              MO Center= -2.8D-16,  7.5D-16,  3.7D-21, r^2= 4.4D+00
   Bfn.  Coefficient  Atom+Function         Bfn.  Coefficient  Atom+Function  
  ----- ------------  ---------------      ----- ------------  ---------------
   104      0.752158  11 C  pz               66     -0.752158   7 C  pz        
    85     -0.752158   9 C  pz               28      0.752158   3 C  pz        
     9     -0.752053   1 C  pz               47      0.752053   5 C  pz        
     6     -0.234079   1 C  pz               44      0.234079   5 C  pz        
   101      0.234070  11 C  pz               82     -0.234070   9 C  pz        
 
 Vector   31  Occ=0.000000D+00  E= 4.390883D-01  Symmetry=ag
              MO Center= -7.8D-16,  1.6D-15,  1.8D-21, r^2= 6.4D+00
   Bfn.  Coefficient  Atom+Function         Bfn.  Coefficient  Atom+Function  
  ----- ------------  ---------------      ----- ------------  ---------------
     3      2.836067   1 C  s                41      2.836067   5 C  s         
     8     -1.781878   1 C  py               46      1.781878   5 C  py        
    98     -1.417662  11 C  s                79     -1.417662   9 C  s         
    22     -1.417662   3 C  s                60     -1.417662   7 C  s         
   102     -1.267631  11 C  px               83      1.267631   9 C  px        
 
 Vector   32  Occ=0.000000D+00  E= 4.391555D-01  Symmetry=b1g
              MO Center= -1.6D-15,  2.2D-16, -5.7D-29, r^2= 6.4D+00
   Bfn.  Coefficient  Atom+Function         Bfn.  Coefficient  Atom+Function  
  ----- ------------  ---------------      ----- ------------  ---------------
    22      2.457565   3 C  s                60      2.457565   7 C  s         
    79     -2.457565   9 C  s                98     -2.457565  11 C  s         
    84     -1.268713   9 C  py              103      1.268713  11 C  py        
    27     -1.268713   3 C  py               65      1.268713   7 C  py        
     7     -1.145142   1 C  px               45      1.145142   5 C  px        
 
 Vector   33  Occ=0.000000D+00  E= 4.718796D-01  Symmetry=b3u
              MO Center=  3.8D-15, -3.0D-15,  1.1D-17, r^2= 5.6D+00
   Bfn.  Coefficient  Atom+Function         Bfn.  Coefficient  Atom+Function  
  ----- ------------  ---------------      ----- ------------  ---------------
     7      2.338110   1 C  px               45      2.338110   5 C  px        
    79     -1.910486   9 C  s                98      1.910486  11 C  s         
    60      1.910486   7 C  s                22     -1.910486   3 C  s         
    27     -0.889769   3 C  py               65     -0.889769   7 C  py        
   103      0.889769  11 C  py               84      0.889769   9 C  py        
 
 Vector   34  Occ=0.000000D+00  E= 4.719277D-01  Symmetry=b2u
              MO Center=  2.1D-15, -2.6D-15, -1.6D-22, r^2= 5.6D+00
   Bfn.  Coefficient  Atom+Function         Bfn.  Coefficient  Atom+Function  
  ----- ------------  ---------------      ----- ------------  ---------------
    41     -2.206426   5 C  s                 3      2.206426   1 C  s         
    27     -1.824777   3 C  py               65     -1.824777   7 C  py        
    84     -1.824777   9 C  py              103     -1.824777  11 C  py        
    79     -1.103709   9 C  s                98      1.103709  11 C  s         
    22      1.103709   3 C  s                60     -1.103709   7 C  s         
 
 Vector   35  Occ=0.000000D+00  E= 5.842603D-01  Symmetry=b3u
              MO Center=  4.4D-15,  9.4D-16, -2.0D-17, r^2= 5.7D+00
   Bfn.  Coefficient  Atom+Function         Bfn.  Coefficient  Atom+Function  
  ----- ------------  ---------------      ----- ------------  ---------------
     7      0.480387   1 C  px               45      0.480387   5 C  px        
    65      0.415689   7 C  py               27      0.415689   3 C  py        
    84     -0.415689   9 C  py              103     -0.415689  11 C  py        
    42     -0.290863   5 C  px                4     -0.290863   1 C  px        
    81      0.252032   9 C  py              100      0.252032  11 C  py        
 

 center of mass
 --------------
 x =   0.00000000 y =   0.00000000 z =   0.00000000

 moments of inertia (a.u.)
 ------------------
         314.259082564958           0.000000000000           0.000000000000
           0.000000000000         314.346719767838           0.000000000000
           0.000000000000           0.000000000000         628.605802332796
 
  Mulliken analysis of the total density
  --------------------------------------

    Atom       Charge   Shell Charges
 -----------   ------   -------------------------------------------------------
    1 C    6     6.02   2.00  0.66  0.43  2.01  0.83  0.08
    2 H    1     0.98   0.76  0.18  0.03
    3 C    6     6.02   2.00  0.66  0.43  2.01  0.83  0.08
    4 H    1     0.98   0.76  0.18  0.03
    5 C    6     6.02   2.00  0.66  0.43  2.01  0.83  0.08
    6 H    1     0.98   0.76  0.18  0.03
    7 C    6     6.02   2.00  0.66  0.43  2.01  0.83  0.08
    8 H    1     0.98   0.76  0.18  0.03
    9 C    6     6.02   2.00  0.66  0.43  2.01  0.83  0.08
   10 H    1     0.98   0.76  0.18  0.03
   11 C    6     6.02   2.00  0.66  0.43  2.01  0.83  0.08
   12 H    1     0.98   0.76  0.18  0.03
 
       Multipole analysis of the density wrt the origin
       ------------------------------------------------
 
     L   x y z        total         open         nuclear
     -   - - -        -----         ----         -------
     0   0 0 0      0.000000      0.000000     42.000000
 
     1   1 0 0      0.000000      0.000000      0.000000
     1   0 1 0      0.000000      0.000000      0.000000
     1   0 0 1      0.000000      0.000000      0.000000
 
     2   2 0 0    -23.621396      0.000000    189.595189
     2   1 1 0      0.000000      0.000000      0.000000
     2   1 0 1      0.000000      0.000000      0.000000
     2   0 2 0    -23.623393      0.000000    189.553879
     2   0 1 1      0.000000      0.000000      0.000000
     2   0 0 2    -29.955723      0.000000      0.000000
 
                   NWChem Extensible Many-Electron Theory Module
                   ---------------------------------------------
 
              ======================================================
                   This portion of the program was automatically
                  generated by a Tensor Contraction Engine (TCE).
                  The development of this portion of the program
                 and TCE was supported by US Department of Energy,
                Office of Science, Office of Basic Energy Science.
                      TCE is a product of Battelle and PNNL.
              Please cite: S.Hirata, J.Phys.Chem.A 107, 9887 (2003).
              ======================================================
 
            General Information
            -------------------
      Number of processors :     8
         Wavefunction type : Restricted Hartree-Fock
          No. of electrons :    42
           Alpha electrons :    21
            Beta electrons :    21
           No. of orbitals :   228
            Alpha orbitals :   114
             Beta orbitals :   114
        Alpha frozen cores :     0
         Beta frozen cores :     0
     Alpha frozen virtuals :     0
      Beta frozen virtuals :     0
         Spin multiplicity : singlet 
    Number of AO functions :   114
       Number of AO shells :    54
        Use of symmetry is : on 
      Symmetry adaption is : on 
         Schwarz screening : 0.10D-09
 
          Correlation Information
          -----------------------
          Calculation type : Coupled-cluster singles & doubles                           
   Perturbative correction : none                                                        
            Max iterations :      100
        Residual threshold : 0.10D-06
          DIIS level shift : 0.00D+00
          Amplitude update :  5-th order DIIS
                I/O scheme : Global Array Library
 
            Memory Information
            ------------------
          Available GA space size is     209702204 doubles
          Available MA space size is      26208675 doubles
 
 Maximum block size supplied by input
 Maximum block size        15 doubles

 tile_dim =     15

 Block   Spin    Irrep     Size     Offset   Alpha
 -------------------------------------------------
   1    alpha     ag     6 doubles       0       1
   2    alpha     b1g    3 doubles       6       2
   3    alpha     b1u    1 doubles       9       3
   4    alpha     b2g    1 doubles      10       4
   5    alpha     b2u    5 doubles      11       5
   6    alpha     b3g    1 doubles      16       6
   7    alpha     b3u    4 doubles      17       7
   8    beta      ag     6 doubles      21       1
   9    beta      b1g    3 doubles      27       2
  10    beta      b1u    1 doubles      30       3
  11    beta      b2g    1 doubles      31       4
  12    beta      b2u    5 doubles      32       5
  13    beta      b3g    1 doubles      37       6
  14    beta      b3u    4 doubles      38       7
  15    alpha     ag     9 doubles      42      15
  16    alpha     ag     9 doubles      51      16
  17    alpha     au     6 doubles      60      17
  18    alpha     b1g   15 doubles      66      18
  19    alpha     b1u    8 doubles      81      19
  20    alpha     b2g    5 doubles      89      20
  21    alpha     b2u    9 doubles      94      21
  22    alpha     b2u   10 doubles     103      22
  23    alpha     b3g    8 doubles     113      23
  24    alpha     b3u   14 doubles     121      24
  25    beta      ag     9 doubles     135      15
  26    beta      ag     9 doubles     144      16
  27    beta      au     6 doubles     153      17
  28    beta      b1g   15 doubles     159      18
  29    beta      b1u    8 doubles     174      19
  30    beta      b2g    5 doubles     182      20
  31    beta      b2u    9 doubles     187      21
  32    beta      b2u   10 doubles     196      22
  33    beta      b3g    8 doubles     206      23
  34    beta      b3u   14 doubles     214      24

 Global array virtual files algorithm will be used

 Parallel file system coherency ......... OK
 
 Fock matrix recomputed
 1-e file size   =             2034
 1-e file name   = /scratch/tce_benzene
 Cpu & wall time / sec            4.4            4.4
 4-electron integrals stored in orbital form
 
 v2    file size   =          3743314
 4-index algorithm nr.   5 is used
 imaxsize =       20
 imaxsize ichop =        1
 --------- NEW LOOP STRUCTURE --------
 2_EL_BATCH AND COEFF MATRIX
 size_ic                663553
 size_icc                   360
 tile_dim                    15
 max_na                    24
 INTERMEDIATE FILES
 size_4af              59876644
 size_3a1mf             100563048
 size_2a2mf              54313022
 size_1a3mf              91218924
 size_2e               3743314
 before sf_create
 after sf_create
 STEP2 4index
 STEP2 tests
 handle_4a                 -3000
 i_from_x=                 -3000
 i_to_x=                 -2999
 handle_4a=                 -3000
 handle_3a1m=                 -2999
 size_3a1mf=             100563048
 size_4af=              59876644
 STEP3 4index
 handle_3a1m                 -2999
 STEP3 test
 handle_2a2m=                 -3000
 size_2a2mf=              54313022
 i_from_x=                 -2999
 i_to_x=                 -3000
 STEP4 4index
    1A3M part1   5  1  1  1     5   6      18144         28      54.18851221
    1A3M part1   6  1  1  1     6   6        324         35       4.02590384
    1A3M part1   4  1  1  1     4   6      41472         21      55.90713907
    1A3M part1   1  2  1  1     1   6      86184          0      85.53399892
    1A3M part2   4  1  1  1     1      18144          3         3.24181015
    1A3M part1   2  2  1  1     2   6      77004          7      70.75502444
    1A3M part2   5  1  1  1     1      15876          4         9.05556144
    1A3M part2   6  1  1  1     1       2268          5         0.17060240
    1A3M part1   1  1  1  1     1   6      86184          0      85.53399892
    1A3M part1   3  2  1  1     3   6      55440         14      58.88591267
    1A3M part2   3  2  1  1     1      16632          2        -0.46411012
    1A3M part2   5  1  1  1     2      17388         10         1.23016106
    1A3M part1   2  1  1  1     2   6      77004          7      70.75502444
    1A3M part2   6  1  1  1     2       2484         11        -0.01067397
    1A3M part2   4  1  1  1     2      19872          9         2.07638378
    1A3M part2   4  1  1  1     3      19008         15         1.40049222
    1A3M part2   3  2  1  1     2      18216          8        12.27035963
    1A3M part1   3  1  1  1     3   6      55440         14      58.88591267
    1A3M part2   2  2  1  1     1      17388          1         6.82743830
    1A3M part1   6  2  1  1     6   6        324         35       4.02590384
    1A3M part2   5  1  1  1     3      16632         16         7.44603804
    1A3M part2   5  1  1  1     4      18144         22         5.40129764
    1A3M part2   3  1  1  1     1      16632          2        -0.46411012
    1A3M part2   3  1  1  1     2      18216          8        12.27035963
    1A3M part2   6  1  1  1     3       2376         17         0.15113552
    1A3M part2   2  1  1  1     1      17388          1         6.82743830
    1A3M part2   6  2  1  1     1       2268          5         0.17060240
    1A3M part2   6  2  1  1     2       2484         11        -0.01067397
    1A3M part2   6  2  1  1     3       2376         17         0.15113552
    1A3M part2   6  2  1  1     4       2592         23         0.04225116
    1A3M part2   6  2  1  1     5       2268         29         2.25738502
    1A3M part2   6  1  1  1     4       2592         23         0.04225116
    1A3M part1   4  2  1  1     4   6      41472         21      55.90713907
    1A3M part2   4  2  1  1     1      18144          3         3.24181015
    1A3M part1   1  3  1  1     1   6      86184          0      85.53399892
    1A3M part1   5  2  1  1     5   6      18144         28      54.18851221
    1A3M part2   5  2  1  1     1      15876          4         9.05556144
    1A3M part2   5  2  1  1     2      17388         10         1.23016106
    1A3M part2   5  2  1  1     3      16632         16         7.44603804
    1A3M part2   5  2  1  1     4      18144         22         5.40129764
    1A3M part1   3  3  1  1     3   6      55440         14      58.88591267
    1A3M part2   6  1  1  1     5       2268         29         2.25738502
    1A3M part2   4  2  1  1     2      19872          9         2.07638378
    1A3M part1   2  3  1  1     2   6      77004          7      70.75502444
    1A3M part2   2  3  1  1     1      17388          1         6.82743830
    1A3M part2   3  3  1  1     1      16632          2        -0.46411012
    1A3M part2   3  3  1  1     2      18216          8        12.27035963
    1A3M part1   4  3  1  1     4   6      41472         21      55.90713907
    1A3M part2   4  3  1  1     1      18144          3         3.24181015
    1A3M part2   4  3  1  1     2      19872          9         2.07638378
    1A3M part2   4  3  1  1     3      19008         15         1.40049222
    1A3M part1   5  3  1  1     5   6      18144         28      54.18851221
    1A3M part1   6  3  1  1     6   6        324         35       4.02590384
    1A3M part2   6  3  1  1     1       2268          5         0.17060240
    1A3M part2   6  3  1  1     2       2484         11        -0.01067397
    1A3M part2   6  3  1  1     3       2376         17         0.15113552
    1A3M part2   6  3  1  1     4       2592         23         0.04225116
    1A3M part2   6  3  1  1     5       2268         29         2.25738502
    1A3M part2   4  2  1  1     3      19008         15         1.40049222
    1A3M part2   5  3  1  1     1      15876          4         9.05556144
    1A3M part2   5  3  1  1     2      17388         10         1.23016106
    1A3M part2   5  3  1  1     3      16632         16         7.44603804
    1A3M part2   5  3  1  1     4      18144         22         5.40129764
    1A3M part1   1  4  1  1     1   6      86184          0      85.53399892
    1A3M part1   3  4  1  1     3   6      55440         14      58.88591267
    1A3M part2   3  4  1  1     1      16632          2        -0.46411012
    1A3M part1   2  4  1  1     2   6      77004          7      70.75502444
    1A3M part2   2  4  1  1     1      17388          1         6.82743830
    1A3M part2   3  4  1  1     2      18216          8        12.27035963
    1A3M part1   4  4  1  1     4   6      41472         21      55.90713907
    1A3M part2   4  4  1  1     1      18144          3         3.24181015
    1A3M part2   4  4  1  1     2      19872          9         2.07638378
    1A3M part2   4  4  1  1     3      19008         15         1.40049222
    1A3M part1   5  4  1  1     5   6      18144         28      54.18851221
    1A3M part2   5  4  1  1     1      15876          4         9.05556144
    1A3M part2   5  4  1  1     2      17388         10         1.23016106
    1A3M part2   5  4  1  1     3      16632         16         7.44603804
    1A3M part2   5  4  1  1     4      18144         22         5.40129764
    1A3M part1   6  4  1  1     6   6        324         35       4.02590384
    1A3M part2   6  4  1  1     1       2268          5         0.17060240
    1A3M part2   6  4  1  1     2       2484         11        -0.01067397
    1A3M part2   6  4  1  1     3       2376         17         0.15113552
    1A3M part2   6  4  1  1     4       2592         23         0.04225116
    1A3M part2   6  4  1  1     5       2268         29         2.25738502
    1A3M part1   1  5  1  1     1   6      86184          0      85.53399892
    1A3M part1   3  5  1  1     3   6      55440         14      58.88591267
    1A3M part1   4  5  1  1     4   6      41472         21      55.90713907
    1A3M part2   3  5  1  1     1      16632          2        -0.46411012
    1A3M part2   4  5  1  1     1      18144          3         3.24181015
    1A3M part2   4  5  1  1     2      19872          9         2.07638378
    1A3M part2   4  5  1  1     3      19008         15         1.40049222
    1A3M part1   2  5  1  1     2   6      77004          7      70.75502444
    1A3M part2   2  5  1  1     1      17388          1         6.82743830
    1A3M part1   5  5  1  1     5   6      18144         28      54.18851221
    1A3M part2   5  5  1  1     1      15876          4         9.05556144
    1A3M part2   5  5  1  1     2      17388         10         1.23016106
    1A3M part2   5  5  1  1     3      16632         16         7.44603804
    1A3M part2   5  5  1  1     4      18144         22         5.40129764
    1A3M part2   3  5  1  1     2      18216          8        12.27035963
    1A3M part1   6  5  1  1     6   6        324         35       4.02590384
    1A3M part2   6  5  1  1     1       2268          5         0.17060240
    1A3M part2   6  5  1  1     2       2484         11        -0.01067397
    1A3M part2   6  5  1  1     3       2376         17         0.15113552
    1A3M part2   6  5  1  1     4       2592         23         0.04225116
    1A3M part2   6  5  1  1     5       2268         29         2.25738502
    1A3M part1   1  6  1  1     1   6      86184          0      85.53399892
    1A3M part1   4  6  1  1     4   6      41472         21      55.90713907
    1A3M part1   3  6  1  1     3   6      55440         14      58.88591267
    1A3M part2   3  6  1  1     1      16632          2        -0.46411012
    1A3M part2   3  6  1  1     2      18216          8        12.27035963
    1A3M part1   5  6  1  1     5   6      18144         28      54.18851221
    1A3M part2   4  6  1  1     1      18144          3         3.24181015
    1A3M part2   4  6  1  1     2      19872          9         2.07638378
    1A3M part2   5  6  1  1     1      15876          4         9.05556144
    1A3M part2   4  6  1  1     3      19008         15         1.40049222
    1A3M part2   5  6  1  1     2      17388         10         1.23016106
    1A3M part2   5  6  1  1     3      16632         16         7.44603804
    1A3M part2   5  6  1  1     4      18144         22         5.40129764
    1A3M part1   6  6  1  1     6   6        324         35       4.02590384
    1A3M part2   6  6  1  1     1       2268          5         0.17060240
    1A3M part2   6  6  1  1     2       2484         11        -0.01067397
    1A3M part2   6  6  1  1     3       2376         17         0.15113552
    1A3M part1   2  6  1  1     2   6      77004          7      70.75502444
    1A3M part2   2  6  1  1     1      17388          1         6.82743830
    1A3M part2   6  6  1  1     4       2592         23         0.04225116
    1A3M part2   6  6  1  1     5       2268         29         2.25738502
    1A3M part1   1  7  1  1     1   6      86184          0      85.53399892
    1A3M part1   2  7  1  1     2   6      77004          7      70.75502444
    1A3M part2   2  7  1  1     1      17388          1         6.82743830
    1A3M part1   3  7  1  1     3   6      55440         14      58.88591267
    1A3M part2   3  7  1  1     1      16632          2        -0.46411012
    1A3M part2   3  7  1  1     2      18216          8        12.27035963
    1A3M part1   5  7  1  1     5   6      18144         28      54.18851221
    1A3M part1   4  7  1  1     4   6      41472         21      55.90713907
    1A3M part2   5  7  1  1     1      15876          4         9.05556144
    1A3M part1   6  7  1  1     6   6        324         35       4.02590384
    1A3M part2   6  7  1  1     1       2268          5         0.17060240
    1A3M part2   5  7  1  1     2      17388         10         1.23016106
    1A3M part2   6  7  1  1     2       2484         11        -0.01067397
    1A3M part2   6  7  1  1     3       2376         17         0.15113552
    1A3M part2   5  7  1  1     3      16632         16         7.44603804
    1A3M part2   6  7  1  1     4       2592         23         0.04225116
    1A3M part2   6  7  1  1     5       2268         29         2.25738502
    1A3M part2   5  7  1  1     4      18144         22         5.40129764
    1A3M part1   1  8  1  1     1   6      86184          0      85.53399892
    1A3M part1   2  8  1  1     2   6      77004          7      70.75502444
    1A3M part2   2  8  1  1     1      17388          1         6.82743830
    1A3M part2   4  7  1  1     1      18144          3         3.24181015
    1A3M part2   4  7  1  1     2      19872          9         2.07638378
    1A3M part2   4  7  1  1     3      19008         15         1.40049222
    1A3M part1   3  8  1  1     3   6      55440         14      58.88591267
    1A3M part2   3  8  1  1     1      16632          2        -0.46411012
    1A3M part2   3  8  1  1     2      18216          8        12.27035963
    1A3M part1   4  8  1  1     4   6      41472         21      55.90713907
    1A3M part2   4  8  1  1     1      18144          3         3.24181015
    1A3M part2   4  8  1  1     2      19872          9         2.07638378
    1A3M part2   4  8  1  1     3      19008         15         1.40049222
    1A3M part1   5  8  1  1     5   6      18144         28      54.18851221
    1A3M part2   5  8  1  1     1      15876          4         9.05556144
    1A3M part2   5  8  1  1     2      17388         10         1.23016106
    1A3M part2   5  8  1  1     3      16632         16         7.44603804
    1A3M part2   5  8  1  1     4      18144         22         5.40129764
    1A3M part1   6  8  1  1     6   6        324         35       4.02590384
    1A3M part2   6  8  1  1     1       2268          5         0.17060240
    1A3M part2   6  8  1  1     2       2484         11        -0.01067397
    1A3M part2   6  8  1  1     3       2376         17         0.15113552
    1A3M part2   6  8  1  1     4       2592         23         0.04225116
    1A3M part2   6  8  1  1     5       2268         29         2.25738502
    1A3M part1   2  9  1  1     2   6      77004          7      70.75502444
    1A3M part1   1  9  1  1     1   6      86184          0      85.53399892
    1A3M part2   2  9  1  1     1      17388          1         6.82743830
    1A3M part1   3  9  1  1     3   6      55440         14      58.88591267
    1A3M part2   3  9  1  1     1      16632          2        -0.46411012
    1A3M part2   3  9  1  1     2      18216          8        12.27035963
    1A3M part1   4  9  1  1     4   6      41472         21      55.90713907
    1A3M part2   4  9  1  1     1      18144          3         3.24181015
    1A3M part2   4  9  1  1     2      19872          9         2.07638378
    1A3M part2   4  9  1  1     3      19008         15         1.40049222
    1A3M part1   5  9  1  1     5   6      18144         28      54.18851221
    1A3M part2   5  9  1  1     1      15876          4         9.05556144
    1A3M part2   5  9  1  1     2      17388         10         1.23016106
    1A3M part2   5  9  1  1     3      16632         16         7.44603804
    1A3M part2   5  9  1  1     4      18144         22         5.40129764
    1A3M part1   6  9  1  1     6   6        324         35       4.02590384
    1A3M part2   6  9  1  1     1       2268          5         0.17060240
    1A3M part2   6  9  1  1     2       2484         11        -0.01067397
    1A3M part2   6  9  1  1     3       2376         17         0.15113552
    1A3M part2   6  9  1  1     4       2592         23         0.04225116
    1A3M part2   6  9  1  1     5       2268         29         2.25738502
    1A3M part1   1 10  1  1     1   6      86184          0      85.53399892
    1A3M part1   2 10  1  1     2   6      77004          7      70.75502444
    1A3M part2   2 10  1  1     1      17388          1         6.82743830
    1A3M part1   4 10  1  1     4   6      41472         21      55.90713907
    1A3M part2   4 10  1  1     1      18144          3         3.24181015
    1A3M part1   3 10  1  1     3   6      55440         14      58.88591267
    1A3M part2   3 10  1  1     1      16632          2        -0.46411012
    1A3M part2   3 10  1  1     2      18216          8        12.27035963
    1A3M part2   4 10  1  1     2      19872          9         2.07638378
    1A3M part2   4 10  1  1     3      19008         15         1.40049222
    1A3M part1   5 10  1  1     5   6      18144         28      54.18851221
    1A3M part2   5 10  1  1     1      15876          4         9.05556144
    1A3M part2   5 10  1  1     2      17388         10         1.23016106
    1A3M part2   5 10  1  1     3      16632         16         7.44603804
    1A3M part2   5 10  1  1     4      18144         22         5.40129764
    1A3M part1   6 10  1  1     6   6        324         35       4.02590384
    1A3M part2   6 10  1  1     1       2268          5         0.17060240
    1A3M part2   6 10  1  1     2       2484         11        -0.01067397
    1A3M part2   6 10  1  1     3       2376         17         0.15113552
    1A3M part2   6 10  1  1     4       2592         23         0.04225116
    1A3M part2   6 10  1  1     5       2268         29         2.25738502
    1A3M part1   1 11  1  1     1   6      86184          0      85.53399892
    1A3M part1   3 11  1  1     3   6      55440         14      58.88591267
    1A3M part1   4 11  1  1     4   6      41472         21      55.90713907
    1A3M part1   2 11  1  1     2   6      77004          7      70.75502444
    1A3M part2   3 11  1  1     1      16632          2        -0.46411012
    1A3M part2   4 11  1  1     1      18144          3         3.24181015
    1A3M part2   2 11  1  1     1      17388          1         6.82743830
    1A3M part2   3 11  1  1     2      18216          8        12.27035963
    1A3M part2   4 11  1  1     2      19872          9         2.07638378
    1A3M part2   4 11  1  1     3      19008         15         1.40049222
    1A3M part1   5 11  1  1     5   6      18144         28      54.18851221
    1A3M part2   5 11  1  1     1      15876          4         9.05556144
    1A3M part1   6 11  1  1     6   6        324         35       4.02590384
    1A3M part2   6 11  1  1     1       2268          5         0.17060240
    1A3M part2   6 11  1  1     2       2484         11        -0.01067397
    1A3M part2   6 11  1  1     3       2376         17         0.15113552
    1A3M part2   6 11  1  1     4       2592         23         0.04225116
    1A3M part2   6 11  1  1     5       2268         29         2.25738502
    1A3M part2   5 11  1  1     2      17388         10         1.23016106
    1A3M part2   5 11  1  1     3      16632         16         7.44603804
    1A3M part2   5 11  1  1     4      18144         22         5.40129764
    1A3M part1   2 12  1  1     2   6      77004          7      70.75502444
    1A3M part2   2 12  1  1     1      17388          1         6.82743830
    1A3M part1   1 12  1  1     1   6      86184          0      85.53399892
    1A3M part1   3 12  1  1     3   6      55440         14      58.88591267
    1A3M part2   3 12  1  1     1      16632          2        -0.46411012
    1A3M part2   3 12  1  1     2      18216          8        12.27035963
    1A3M part1   4 12  1  1     4   6      41472         21      55.90713907
    1A3M part2   4 12  1  1     1      18144          3         3.24181015
    1A3M part2   4 12  1  1     2      19872          9         2.07638378
    1A3M part2   4 12  1  1     3      19008         15         1.40049222
    1A3M part1   6 12  1  1     6   6        324         35       4.02590384
    1A3M part2   6 12  1  1     1       2268          5         0.17060240
    1A3M part1   5 12  1  1     5   6      18144         28      54.18851221
    1A3M part2   5 12  1  1     1      15876          4         9.05556144
    1A3M part2   5 12  1  1     2      17388         10         1.23016106
    1A3M part2   5 12  1  1     3      16632         16         7.44603804
    1A3M part2   5 12  1  1     4      18144         22         5.40129764
    1A3M part2   6 12  1  1     2       2484         11        -0.01067397
    1A3M part2   6 12  1  1     3       2376         17         0.15113552
    1A3M part2   6 12  1  1     4       2592         23         0.04225116
    1A3M part2   6 12  1  1     5       2268         29         2.25738502
    1A3M part1   1 13  1  1     1   6      86184          0      85.53399892
    1A3M part1   2 13  1  1     2   6      77004          7      70.75502444
    1A3M part2   2 13  1  1     1      17388          1         6.82743830
    1A3M part1   3 13  1  1     3   6      55440         14      58.88591267
    1A3M part2   3 13  1  1     1      16632          2        -0.46411012
    1A3M part2   3 13  1  1     2      18216          8        12.27035963
    1A3M part1   4 13  1  1     4   6      41472         21      55.90713907
    1A3M part2   4 13  1  1     1      18144          3         3.24181015
    1A3M part2   4 13  1  1     2      19872          9         2.07638378
    1A3M part2   4 13  1  1     3      19008         15         1.40049222
    1A3M part1   6 13  1  1     6   6        324         35       4.02590384
    1A3M part2   6 13  1  1     1       2268          5         0.17060240
    1A3M part2   6 13  1  1     2       2484         11        -0.01067397
    1A3M part2   6 13  1  1     3       2376         17         0.15113552
    1A3M part2   6 13  1  1     4       2592         23         0.04225116
    1A3M part2   6 13  1  1     5       2268         29         2.25738502
    1A3M part1   5 13  1  1     5   6      18144         28      54.18851221
    1A3M part2   5 13  1  1     1      15876          4         9.05556144
    1A3M part2   5 13  1  1     2      17388         10         1.23016106
    1A3M part2   5 13  1  1     3      16632         16         7.44603804
    1A3M part2   5 13  1  1     4      18144         22         5.40129764
    1A3M part1   1 14  1  1     1   6      86184          0      85.53399892
    1A3M part1   2 14  1  1     2   6      77004          7      70.75502444
    1A3M part2   2 14  1  1     1      17388          1         6.82743830
    1A3M part1   3 14  1  1     3   6      55440         14      58.88591267
    1A3M part2   3 14  1  1     1      16632          2        -0.46411012
    1A3M part2   3 14  1  1     2      18216          8        12.27035963
    1A3M part1   4 14  1  1     4   6      41472         21      55.90713907
    1A3M part2   4 14  1  1     1      18144          3         3.24181015
    1A3M part2   4 14  1  1     2      19872          9         2.07638378
    1A3M part2   4 14  1  1     3      19008         15         1.40049222
    1A3M part1   6 14  1  1     6   6        324         35       4.02590384
    1A3M part2   6 14  1  1     1       2268          5         0.17060240
    1A3M part2   6 14  1  1     2       2484         11        -0.01067397
    1A3M part2   6 14  1  1     3       2376         17         0.15113552
    1A3M part2   6 14  1  1     4       2592         23         0.04225116
    1A3M part2   6 14  1  1     5       2268         29         2.25738502
    1A3M part1   5 14  1  1     5   6      18144         28      54.18851221
    1A3M part2   5 14  1  1     1      15876          4         9.05556144
    1A3M part2   5 14  1  1     2      17388         10         1.23016106
    1A3M part2   5 14  1  1     3      16632         16         7.44603804
    1A3M part2   5 14  1  1     4      18144         22         5.40129764
    1A3M part1   1 15  1  1     1   6      86184          0      85.53399892
    1A3M part1   2 15  1  1     2   6      77004          7      70.75502444
    1A3M part2   2 15  1  1     1      17388          1         6.82743830
    1A3M part1   3 15  1  1     3   6      55440         14      58.88591267
    1A3M part2   3 15  1  1     1      16632          2        -0.46411012
    1A3M part2   3 15  1  1     2      18216          8        12.27035963
    1A3M part1   4 15  1  1     4   6      41472         21      55.90713907
    1A3M part1   6 15  1  1     6   6        324         35       4.02590384
    1A3M part2   4 15  1  1     1      18144          3         3.24181015
    1A3M part2   6 15  1  1     1       2268          5         0.17060240
    1A3M part1   1 16  1  1     1   6      86184          0      85.53399892
    1A3M part2   4 15  1  1     2      19872          9         2.07638378
    1A3M part2   6 15  1  1     2       2484         11        -0.01067397
    1A3M part2   6 15  1  1     3       2376         17         0.15113552
    1A3M part1   5 15  1  1     5   6      18144         28      54.18851221
    1A3M part2   5 15  1  1     1      15876          4         9.05556144
    1A3M part2   5 15  1  1     2      17388         10         1.23016106
    1A3M part2   5 15  1  1     3      16632         16         7.44603804
    1A3M part2   5 15  1  1     4      18144         22         5.40129764
    1A3M part2   4 15  1  1     3      19008         15         1.40049222
    1A3M part2   6 15  1  1     4       2592         23         0.04225116
    1A3M part2   6 15  1  1     5       2268         29         2.25738502
    1A3M part1   2 16  1  1     2   6      77004          7      70.75502444
    1A3M part2   2 16  1  1     1      17388          1         6.82743830
    1A3M part1   3 16  1  1     3   6      55440         14      58.88591267
    1A3M part2   3 16  1  1     1      16632          2        -0.46411012
    1A3M part2   3 16  1  1     2      18216          8        12.27035963
    1A3M part1   4 16  1  1     4   6      41472         21      55.90713907
    1A3M part2   4 16  1  1     1      18144          3         3.24181015
    1A3M part2   4 16  1  1     2      19872          9         2.07638378
    1A3M part2   4 16  1  1     3      19008         15         1.40049222
    1A3M part1   5 16  1  1     5   6      18144         28      54.18851221
    1A3M part2   5 16  1  1     1      15876          4         9.05556144
    1A3M part2   5 16  1  1     2      17388         10         1.23016106
    1A3M part2   5 16  1  1     3      16632         16         7.44603804
    1A3M part2   5 16  1  1     4      18144         22         5.40129764
    1A3M part1   6 16  1  1     6   6        324         35       4.02590384
    1A3M part2   6 16  1  1     1       2268          5         0.17060240
    1A3M part2   6 16  1  1     2       2484         11        -0.01067397
    1A3M part2   6 16  1  1     3       2376         17         0.15113552
    1A3M part2   6 16  1  1     4       2592         23         0.04225116
    1A3M part2   6 16  1  1     5       2268         29         2.25738502
    1A3M part1   1 17  1  1     1   6      86184          0      85.53399892
    1A3M part1   2 17  1  1     2   6      77004          7      70.75502444
    1A3M part1   3 17  1  1     3   6      55440         14      58.88591267
    1A3M part2   2 17  1  1     1      17388          1         6.82743830
    1A3M part2   3 17  1  1     1      16632          2        -0.46411012
    1A3M part2   3 17  1  1     2      18216          8        12.27035963
    1A3M part1   4 17  1  1     4   6      41472         21      55.90713907
    1A3M part2   4 17  1  1     1      18144          3         3.24181015
    1A3M part2   4 17  1  1     2      19872          9         2.07638378
    1A3M part2   4 17  1  1     3      19008         15         1.40049222
    1A3M part1   5 17  1  1     5   6      18144         28      54.18851221
    1A3M part2   5 17  1  1     1      15876          4         9.05556144
    1A3M part2   5 17  1  1     2      17388         10         1.23016106
    1A3M part2   5 17  1  1     3      16632         16         7.44603804
    1A3M part2   5 17  1  1     4      18144         22         5.40129764
    1A3M part1   6 17  1  1     6   6        324         35       4.02590384
    1A3M part2   6 17  1  1     1       2268          5         0.17060240
    1A3M part2   6 17  1  1     2       2484         11        -0.01067397
    1A3M part2   6 17  1  1     3       2376         17         0.15113552
    1A3M part2   6 17  1  1     4       2592         23         0.04225116
    1A3M part2   6 17  1  1     5       2268         29         2.25738502
    1A3M part1   1  1  2  1     1   6      43092         36       1.99680149
    1A3M part1   2  1  2  1     2   6      38502         43       4.29272064
    1A3M part1   4  1  2  1     4   6      20736         57      -0.22553323
    1A3M part1   5  1  2  1     5   6       9072         64      -4.01252370
    1A3M part1   3  1  2  1     3   6      27720         50      -0.10305000
    1A3M part2   2  1  2  1     1       8694         37         0.69702662
    1A3M part2   3  1  2  1     1       8316         38         0.04100486
    1A3M part1   6  1  2  1     6   6        162         71      -0.56985376
    1A3M part2   6  1  2  1     1       1134         41        -0.01451281
    1A3M part2   6  1  2  1     2       1242         47         0.00121504
    1A3M part2   6  1  2  1     3       1188         53        -0.02050969
    1A3M part2   4  1  2  1     1       9072         39         0.10347306
    1A3M part2   5  1  2  1     1       7938         40         0.02893133
    1A3M part2   3  1  2  1     2       9108         44        -0.04327513
    1A3M part2   6  1  2  1     4       1296         59        -0.00220419
    1A3M part2   6  1  2  1     5       1134         65        -0.27503283
    1A3M part1   1  2  2  1     1   6      43092         36       1.99680149
    1A3M part2   5  1  2  1     2       8694         46         0.04912515
    1A3M part2   5  1  2  1     3       8316         52        -0.56095887
    1A3M part1   2  2  2  1     2   6      38502         43       4.29272064
    1A3M part2   4  1  2  1     2       9936         45         0.52849639
    1A3M part2   4  1  2  1     3       9504         51        -0.36097133
    1A3M part2   5  1  2  1     4       9072         58        -0.59135227
    1A3M part2   2  2  2  1     1       8694         37         0.69702662
    1A3M part1   3  2  2  1     3   6      27720         50      -0.10305000
    1A3M part2   3  2  2  1     1       8316         38         0.04100486
    1A3M part2   3  2  2  1     2       9108         44        -0.04327513
    1A3M part1   4  2  2  1     4   6      20736         57      -0.22553323
    1A3M part2   4  2  2  1     1       9072         39         0.10347306
    1A3M part2   4  2  2  1     2       9936         45         0.52849639
    1A3M part1   6  2  2  1     6   6        162         71      -0.56985376
    1A3M part2   6  2  2  1     1       1134         41        -0.01451281
    1A3M part2   6  2  2  1     2       1242         47         0.00121504
    1A3M part2   6  2  2  1     3       1188         53        -0.02050969
    1A3M part2   6  2  2  1     4       1296         59        -0.00220419
    1A3M part2   6  2  2  1     5       1134         65        -0.27503283
    1A3M part1   5  2  2  1     5   6       9072         64      -4.01252370
    1A3M part2   5  2  2  1     1       7938         40         0.02893133
    1A3M part2   5  2  2  1     2       8694         46         0.04912515
    1A3M part2   5  2  2  1     3       8316         52        -0.56095887
    1A3M part2   4  2  2  1     3       9504         51        -0.36097133
    1A3M part2   5  2  2  1     4       9072         58        -0.59135227
    1A3M part1   2  3  2  1     2   6      38502         43       4.29272064
    1A3M part2   2  3  2  1     1       8694         37         0.69702662
    1A3M part1   1  3  2  1     1   6      43092         36       1.99680149
    1A3M part1   3  3  2  1     3   6      27720         50      -0.10305000
    1A3M part2   3  3  2  1     1       8316         38         0.04100486
    1A3M part2   3  3  2  1     2       9108         44        -0.04327513
    1A3M part1   6  3  2  1     6   6        162         71      -0.56985376
    1A3M part2   6  3  2  1     1       1134         41        -0.01451281
    1A3M part2   6  3  2  1     2       1242         47         0.00121504
    1A3M part1   5  3  2  1     5   6       9072         64      -4.01252370
    1A3M part2   5  3  2  1     1       7938         40         0.02893133
    1A3M part2   6  3  2  1     3       1188         53        -0.02050969
    1A3M part2   6  3  2  1     4       1296         59        -0.00220419
[...]
    1A3M part1   1 15 17 17     1   6     469224      10368     162.82382036
    1A3M part1   5 14 17 17     5   6      98784      10396     112.14815744
    1A3M part2   5 14 17 17     1      86436      10372        16.34637815
    1A3M part2   5 14 17 17     2      94668      10378         2.65427345
    1A3M part2   5 14 17 17     3      90552      10384        15.25823286
    1A3M part2   5 14 17 17     4      98784      10390        11.89137650
    1A3M part1   2 15 17 17     2   6     419244      10375     138.44712106
    1A3M part1   3 15 17 17     3   6     301840      10382     120.51143416
    1A3M part1   5 15 17 17     5   6      98784      10396     112.14815744
    1A3M part1   6 15 17 17     6   6       1764      10403       8.72231570
    1A3M part2   6 15 17 17     1      12348      10373         0.37591935
    1A3M part2   6 15 17 17     2      13524      10379        -0.02227114
    1A3M part2   6 15 17 17     3      12936      10385         0.32107889
    1A3M part2   6 15 17 17     4      14112      10391         0.09616330
    1A3M part2   6 15 17 17     5      12348      10397         4.90950299
    1A3M part1   4 15 17 17     4   6     225792      10389     121.24185500
    1A3M part2   2 15 17 17     1      94668      10369        15.79285738
    1A3M part2   5 15 17 17     1      86436      10372        16.34637815
    1A3M part2   5 15 17 17     2      94668      10378         2.65427345
    1A3M part2   4 15 17 17     1      98784      10371         6.82056479
    1A3M part1   2 16 17 17     2   6     419244      10375     138.44712106
    1A3M part2   4 15 17 17     2     108192      10377         5.27765729
    1A3M part2   4 15 17 17     3     103488      10383         4.59271970
    1A3M part1   6 16 17 17     6   6       1764      10403       8.72231570
    1A3M part2   6 16 17 17     1      12348      10373         0.37591935
    1A3M part2   6 16 17 17     2      13524      10379        -0.02227114
    1A3M part2   6 16 17 17     3      12936      10385         0.32107889
    1A3M part2   6 16 17 17     4      14112      10391         0.09616330
    1A3M part2   6 16 17 17     5      12348      10397         4.90950299
    1A3M part1   4 16 17 17     4   6     225792      10389     121.24185500
    1A3M part1   1 16 17 17     1   6     469224      10368     162.82382036
    1A3M part2   5 15 17 17     3      90552      10384        15.25823286
    1A3M part2   5 15 17 17     4      98784      10390        11.89137650
    1A3M part1   3 16 17 17     3   6     301840      10382     120.51143416
    1A3M part2   3 16 17 17     1      90552      10370        -1.16625749
    1A3M part2   3 16 17 17     2      99176      10376        21.41637212
    1A3M part2   3 15 17 17     1      90552      10370        -1.16625749
    1A3M part2   3 15 17 17     2      99176      10376        21.41637212
    1A3M part2   2 16 17 17     1      94668      10369        15.79285738
    1A3M part1   3 17 17 17     3   6     301840      10382     120.51143416
    1A3M part1   5 16 17 17     5   6      98784      10396     112.14815744
    1A3M part2   5 16 17 17     1      86436      10372        16.34637815
    1A3M part2   5 16 17 17     2      94668      10378         2.65427345
    1A3M part2   5 16 17 17     3      90552      10384        15.25823286
    1A3M part2   5 16 17 17     4      98784      10390        11.89137650
    1A3M part1   2 17 17 17     2   6     419244      10375     138.44712106
    1A3M part2   2 17 17 17     1      94668      10369        15.79285738
    1A3M part2   4 16 17 17     1      98784      10371         6.82056479
    1A3M part2   4 16 17 17     2     108192      10377         5.27765729
    1A3M part2   4 16 17 17     3     103488      10383         4.59271970
    1A3M part1   1 17 17 17     1   6     469224      10368     162.82382036
    1A3M part1   5 17 17 17     5   6      98784      10396     112.14815744
    1A3M part1   6 17 17 17     6   6       1764      10403       8.72231570
    1A3M part2   6 17 17 17     1      12348      10373         0.37591935
    1A3M part2   6 17 17 17     2      13524      10379        -0.02227114
    1A3M part2   6 17 17 17     3      12936      10385         0.32107889
    1A3M part2   6 17 17 17     4      14112      10391         0.09616330
    1A3M part2   6 17 17 17     5      12348      10397         4.90950299
    1A3M part2   3 17 17 17     1      90552      10370        -1.16625749
    1A3M part1   4 17 17 17     4   6     225792      10389     121.24185500
    1A3M part2   3 17 17 17     2      99176      10376        21.41637212
    1A3M part2   4 17 17 17     1      98784      10371         6.82056479
    1A3M part2   5 17 17 17     1      86436      10372        16.34637815
    1A3M part2   5 17 17 17     2      94668      10378         2.65427345
    1A3M part2   5 17 17 17     3      90552      10384        15.25823286
    1A3M part2   5 17 17 17     4      98784      10390        11.89137650
    1A3M part2   4 17 17 17     2     108192      10377         5.27765729
    1A3M part2   4 17 17 17     3     103488      10383         4.59271970
 STEP5 4index
 DONE --- DONE ---- DONE ---- DONE
 Cpu & wall time / sec           25.3           92.8
 T1-number-of-tasks                     9
 
 t1 file size   =              325
 t1 file name   = /scratch/tce_benzene
 T2-number-of-boxes                   827
 
 t2 file size   =           721351
 t2 file name   = /scratch/tce_benzene

 CCSD iterations
 --------------------------------------------------------
 Iter          Residuum       Correlation     Cpu    Wall
 --------------------------------------------------------
    1   0.2192621803843  -0.7970584483331     6.6     6.6
    2   0.0609544167547  -0.8124029836864     6.6     6.6
    3   0.0236116592789  -0.8307415267064     6.6     6.6
    4   0.0109149461159  -0.8326245497326     6.5     6.6
    5   0.0055683674703  -0.8343845899309     6.6     6.6
 MICROCYCLE DIIS UPDATE:                     5                     5
    6   0.0016376953196  -0.8351330183181     6.6     6.6
    7   0.0006800352279  -0.8353900190101     6.5     6.6
    8   0.0003417667821  -0.8353753906322     6.6     6.6
    9   0.0001846466902  -0.8353864457905     6.6     6.6
   10   0.0001023834109  -0.8353914787181     6.6     6.6
 MICROCYCLE DIIS UPDATE:                    10                     5
   11   0.0000179181132  -0.8353975587725     6.6     6.6
   12   0.0000061586759  -0.8354000767957     6.5     6.6
   13   0.0000026877999  -0.8354011436854     6.7     6.7
   14   0.0000012749982  -0.8354013872269     6.7     6.6
   15   0.0000006391901  -0.8354015234286     6.6     6.6
 MICROCYCLE DIIS UPDATE:                    15                     5
   16   0.0000002019839  -0.8354016062741     6.6     6.6
   17   0.0000000898077  -0.8354016345841     6.7     6.6
 --------------------------------------------------------
 Iterations converged
 CCSD correlation energy / hartree =        -0.835401634584120
 CCSD total energy / hartree       =      -231.557712678719554

 Singles contributions
  83b1u (alpha) ---  10b1u (alpha)             0.01709
  90b2g (alpha) ---  11b2g (alpha)            -0.02365
  92b2g (alpha) ---  11b2g (alpha)            -0.01109
 115b3g (alpha) ---  17b3g (alpha)             0.02366
 117b3g (alpha) ---  17b3g (alpha)            -0.01109

 Doubles contributions
  46ag  (alpha) 139ag  (beta ) ---   5ag  (alpha)  26ag  (beta )            -0.01068
  46ag  (alpha) 139ag  (beta ) ---   6ag  (alpha)  27ag  (beta )            -0.01112
  46ag  (alpha) 139ag  (beta ) ---   9b1g (alpha)  30b1g (beta )            -0.01112
  47ag  (alpha) 140ag  (beta ) ---  10b1u (alpha)  31b1u (beta )            -0.01142
  46ag  (alpha) 139ag  (beta ) ---  15b2u (alpha)  36b2u (beta )            -0.01135
  46ag  (alpha) 139ag  (beta ) ---  16b2u (alpha)  37b2u (beta )            -0.01055
  49ag  (alpha) 142ag  (beta ) ---  16b2u (alpha)  37b2u (beta )            -0.01088
  46ag  (alpha) 139ag  (beta ) ---  21b3u (alpha)  42b3u (beta )            -0.01055
  45ag  (alpha) 175b1u (beta ) ---  16b2u (alpha)  38b3g (beta )            -0.01229
  48ag  (alpha) 175b1u (beta ) ---  14b2u (alpha)  38b3g (beta )             0.01157
  48ag  (alpha) 175b1u (beta ) ---  17b3g (alpha)  35b2u (beta )             0.01137
  45ag  (alpha) 175b1u (beta ) ---  21b3u (alpha)  32b2g (beta )             0.01030
  61au  (alpha)  70b1g (alpha) ---  11b2g (alpha)  20b3u (alpha)            -0.01021
  61au  (alpha)  82b1u (alpha) ---  11b2g (alpha)  17b3g (alpha)            -0.05211
  61au  (alpha) 114b3g (alpha) ---  10b1u (alpha)  11b2g (alpha)             0.01187
  61au  (alpha) 154au  (beta ) ---   8b1g (alpha)  29b1g (beta )            -0.01258
  61au  (alpha) 154au  (beta ) ---  10b1u (alpha)  31b1u (beta )            -0.02743
  61au  (alpha) 154au  (beta ) ---  11b2g (alpha)  32b2g (beta )            -0.08814
  61au  (alpha) 155au  (beta ) ---  11b2g (alpha)  32b2g (beta )            -0.02166
  62au  (alpha) 154au  (beta ) ---  11b2g (alpha)  32b2g (beta )            -0.02166
  62au  (alpha) 155au  (beta ) ---  11b2g (alpha)  32b2g (beta )            -0.01073
  61au  (alpha) 154au  (beta ) ---  17b3g (alpha)  38b3g (beta )            -0.03536
  61au  (alpha) 161b1g (beta ) ---  11b2g (alpha)  42b3u (beta )            -0.01228
  61au  (alpha) 163b1g (beta ) ---  11b2g (alpha)  40b3u (beta )             0.01166
  61au  (alpha) 161b1g (beta ) ---  17b3g (alpha)  37b2u (beta )             0.01030
  61au  (alpha) 163b1g (beta ) ---  19b3u (alpha)  32b2g (beta )             0.01130
  61au  (alpha) 175b1u (beta ) ---  17b3g (alpha)  32b2g (beta )             0.05245
  61au  (alpha) 177b1u (beta ) ---  17b3g (alpha)  32b2g (beta )            -0.01208
  62au  (alpha) 175b1u (beta ) ---  17b3g (alpha)  32b2g (beta )             0.01209
  61au  (alpha) 184b2g (beta ) ---  10b1u (alpha)  38b3g (beta )             0.01049
  61au  (alpha) 190b2u (beta ) ---  10b1u (alpha)  41b3u (beta )            -0.01119
  61au  (alpha) 190b2u (beta ) ---  11b2g (alpha)  27ag  (beta )             0.01369
  61au  (alpha) 207b3g (beta ) ---  10b1u (alpha)  32b2g (beta )             0.03891
  61au  (alpha) 209b3g (beta ) ---  10b1u (alpha)  32b2g (beta )             0.01495
  62au  (alpha) 207b3g (beta ) ---  10b1u (alpha)  32b2g (beta )             0.01049
  61au  (alpha) 207b3g (beta ) ---  11b2g (alpha)  31b1u (beta )             0.02704
  61au  (alpha) 209b3g (beta ) ---  11b2g (alpha)  31b1u (beta )             0.01115
  61au  (alpha) 218b3u (beta ) ---   8b1g (alpha)  32b2g (beta )             0.01267
  61au  (alpha) 216b3u (beta ) ---  17b3g (alpha)  27ag  (beta )            -0.01020
  70b1g (alpha) 154au  (beta ) ---  11b2g (alpha)  40b3u (beta )             0.01130
  68b1g (alpha) 154au  (beta ) ---  16b2u (alpha)  38b3g (beta )             0.01030
  68b1g (alpha) 154au  (beta ) ---  21b3u (alpha)  32b2g (beta )            -0.01228
  70b1g (alpha) 154au  (beta ) ---  19b3u (alpha)  32b2g (beta )             0.01166
  71b1g (alpha) 164b1g (beta ) ---  21b3u (alpha)  42b3u (beta )            -0.01087
  82b1u (alpha) 114b3g (alpha) ---  10b1u (alpha)  17b3g (alpha)            -0.01188
  82b1u (alpha) 138ag  (beta ) ---  11b2g (alpha)  42b3u (beta )             0.01030
  82b1u (alpha) 141ag  (beta ) ---  14b2u (alpha)  38b3g (beta )             0.01137
  82b1u (alpha) 138ag  (beta ) ---  17b3g (alpha)  37b2u (beta )            -0.01229
  82b1u (alpha) 141ag  (beta ) ---  17b3g (alpha)  35b2u (beta )             0.01157
  82b1u (alpha) 154au  (beta ) ---  11b2g (alpha)  38b3g (beta )             0.05245
  82b1u (alpha) 155au  (beta ) ---  11b2g (alpha)  38b3g (beta )             0.01209
  84b1u (alpha) 154au  (beta ) ---  11b2g (alpha)  38b3g (beta )            -0.01208
  82b1u (alpha) 175b1u (beta ) ---   4ag  (alpha)  25ag  (beta )            -0.01258
  82b1u (alpha) 175b1u (beta ) ---  10b1u (alpha)  31b1u (beta )            -0.02743
  82b1u (alpha) 175b1u (beta ) ---  11b2g (alpha)  32b2g (beta )            -0.03536
  82b1u (alpha) 175b1u (beta ) ---  17b3g (alpha)  38b3g (beta )            -0.08818
  82b1u (alpha) 177b1u (beta ) ---  17b3g (alpha)  38b3g (beta )             0.02166
  84b1u (alpha) 175b1u (beta ) ---  17b3g (alpha)  38b3g (beta )             0.02166
  84b1u (alpha) 177b1u (beta ) ---  17b3g (alpha)  38b3g (beta )            -0.01073
  82b1u (alpha) 184b2g (beta ) ---  10b1u (alpha)  32b2g (beta )             0.01049
  83b1u (alpha) 183b2g (beta ) ---  10b1u (alpha)  32b2g (beta )             0.01004
  82b1u (alpha) 192b2u (beta ) ---   4ag  (alpha)  38b3g (beta )             0.01267
  82b1u (alpha) 190b2u (beta ) ---  11b2g (alpha)  30b1g (beta )            -0.01020
  82b1u (alpha) 207b3g (beta ) ---  10b1u (alpha)  38b3g (beta )            -0.03892
  82b1u (alpha) 209b3g (beta ) ---  10b1u (alpha)  38b3g (beta )            -0.01495
  83b1u (alpha) 208b3g (beta ) ---  10b1u (alpha)  38b3g (beta )            -0.01004
  84b1u (alpha) 207b3g (beta ) ---  10b1u (alpha)  38b3g (beta )             0.01049
  82b1u (alpha) 207b3g (beta ) ---  17b3g (alpha)  31b1u (beta )            -0.02704
  82b1u (alpha) 209b3g (beta ) ---  17b3g (alpha)  31b1u (beta )            -0.01115
  82b1u (alpha) 216b3u (beta ) ---  10b1u (alpha)  41b3u (beta )            -0.01119
  82b1u (alpha) 216b3u (beta ) ---  17b3g (alpha)  30b1g (beta )             0.01370
  91b2g (alpha) 154au  (beta ) ---  17b3g (alpha)  31b1u (beta )             0.01049
  90b2g (alpha) 176b1u (beta ) ---  11b2g (alpha)  31b1u (beta )             0.01004
  91b2g (alpha) 175b1u (beta ) ---  11b2g (alpha)  31b1u (beta )             0.01049
  90b2g (alpha) 183b2g (beta ) ---  11b2g (alpha)  32b2g (beta )            -0.01335
  97b2u (alpha) 154au  (beta ) ---   6ag  (alpha)  32b2g (beta )             0.01369
  97b2u (alpha) 154au  (beta ) ---  20b3u (alpha)  31b1u (beta )            -0.01119
  97b2u (alpha) 175b1u (beta ) ---   9b1g (alpha)  32b2g (beta )            -0.01020
  99b2u (alpha) 175b1u (beta ) ---  17b3g (alpha)  25ag  (beta )             0.01267
  97b2u (alpha) 190b2u (beta ) ---   6ag  (alpha)  27ag  (beta )            -0.01218
  95b2u (alpha) 188b2u (beta ) ---  16b2u (alpha)  37b2u (beta )            -0.01080
  99b2u (alpha) 192b2u (beta ) ---  17b3g (alpha)  38b3g (beta )            -0.01141
  97b2u (alpha) 207b3g (beta ) ---  20b3u (alpha)  32b2g (beta )             0.01021
 114b3g (alpha) 154au  (beta ) ---  10b1u (alpha)  32b2g (beta )             0.02704
 116b3g (alpha) 154au  (beta ) ---  10b1u (alpha)  32b2g (beta )             0.01115
 114b3g (alpha) 154au  (beta ) ---  11b2g (alpha)  31b1u (beta )             0.03891
 114b3g (alpha) 155au  (beta ) ---  11b2g (alpha)  31b1u (beta )             0.01049
 116b3g (alpha) 154au  (beta ) ---  11b2g (alpha)  31b1u (beta )             0.01495
 114b3g (alpha) 175b1u (beta ) ---  10b1u (alpha)  38b3g (beta )            -0.02704
 116b3g (alpha) 175b1u (beta ) ---  10b1u (alpha)  38b3g (beta )            -0.01115
 114b3g (alpha) 175b1u (beta ) ---  17b3g (alpha)  31b1u (beta )            -0.03892
 114b3g (alpha) 177b1u (beta ) ---  17b3g (alpha)  31b1u (beta )             0.01049
 115b3g (alpha) 176b1u (beta ) ---  17b3g (alpha)  31b1u (beta )            -0.01004
 116b3g (alpha) 175b1u (beta ) ---  17b3g (alpha)  31b1u (beta )            -0.01495
 114b3g (alpha) 190b2u (beta ) ---  11b2g (alpha)  41b3u (beta )             0.01021
 114b3g (alpha) 207b3g (beta ) ---  10b1u (alpha)  31b1u (beta )            -0.02503
 114b3g (alpha) 209b3g (beta ) ---  10b1u (alpha)  31b1u (beta )            -0.01035
 116b3g (alpha) 207b3g (beta ) ---  10b1u (alpha)  31b1u (beta )            -0.01035
 114b3g (alpha) 207b3g (beta ) ---  11b2g (alpha)  32b2g (beta )            -0.02178
 114b3g (alpha) 207b3g (beta ) ---  17b3g (alpha)  38b3g (beta )            -0.02178
 115b3g (alpha) 208b3g (beta ) ---  17b3g (alpha)  38b3g (beta )            -0.01335
 114b3g (alpha) 216b3u (beta ) ---  17b3g (alpha)  41b3u (beta )            -0.01021
 123b3u (alpha) 154au  (beta ) ---   6ag  (alpha)  38b3g (beta )            -0.01020
 125b3u (alpha) 154au  (beta ) ---  11b2g (alpha)  29b1g (beta )             0.01267
 123b3u (alpha) 175b1u (beta ) ---   9b1g (alpha)  38b3g (beta )             0.01370
 123b3u (alpha) 175b1u (beta ) ---  20b3u (alpha)  31b1u (beta )            -0.01119
 123b3u (alpha) 207b3g (beta ) ---  20b3u (alpha)  38b3g (beta )            -0.01021
 123b3u (alpha) 216b3u (beta ) ---   9b1g (alpha)  30b1g (beta )            -0.01219
 125b3u (alpha) 218b3u (beta ) ---  11b2g (alpha)  32b2g (beta )            -0.01141
 122b3u (alpha) 215b3u (beta ) ---  21b3u (alpha)  42b3u (beta )            -0.01078

 Task  times  cpu:      165.7s     wall:      233.7s
 
 
                                NWChem Input Module
                                -------------------
 
 
 Summary of allocated global arrays
-----------------------------------
  No active global arrays



                         GA Statistics for process    0
                         ------------------------------

       create   destroy   get      put      acc     scatter   gather  read&inc
calls:  968      968     9.42e+05 1.11e+04 1.08e+05    0        0        0     
number of processes/call 1.06e+00 1.16e+00 1.02e+00 0.00e+00 0.00e+00
bytes total:             7.82e+09 1.43e+08 4.79e+08 0.00e+00 0.00e+00 0.00e+00
bytes remote:            6.06e+09 1.22e+08 4.15e+08 0.00e+00 0.00e+00 0.00e+00
Max memory consumed for GA by this process: 15032040 bytes
 
MA_summarize_allocated_blocks: starting scan ...
MA_summarize_allocated_blocks: scan completed: 0 heap blocks, 0 stack blocks
MA usage statistics:

	allocation statistics:
					      heap	     stack
					      ----	     -----
	current number of blocks	         0	         0
	maximum number of blocks	        17	        34
	current total bytes		         0	         0
	maximum total bytes		     80096	  22511832
	maximum total K-bytes		        81	     22512
	maximum total M-bytes		         1	        23



                                  ACKNOWLEDGEMENT
                                  ---------------

            Please use the following acknowledgement where appropriate 
            for results obtained with NWChem:

            High Performance Computational Chemistry Group, "NWChem, A
            Computational Chemistry Package for Parallel Computers, 
            Version 5.1" (2007), Pacific Northwest National Laboratory,
            Richland, Washington 99352-0999, USA.


                                     CITATION
                                     --------

          Please use the following citation when publishing results
          obtained with NWChem:

          E. J. Bylaska, W. A. de Jong, N. Govind, K. Kowalski, T. P. Straatsma,
          M. Valiev, D. Wang, E. Apra, T. L. Windus, J. Hammond, P. Nichols,
          S. Hirata, M. T. Hackler, Y. Zhao, P.-D. Fan, R. J. Harrison,
          M. Dupuis, D. M. A. Smith, J. Nieplocha, V. Tipparaju, M. Krishnan,
          Q. Wu, T. Van Voorhis, A. A. Auer, M. Nooijen,
          E. Brown, G. Cisneros, G. I. Fann, H. Fruchtl, J. Garza, K. Hirao,
          R. Kendall, J. A. Nichols, K. Tsemekhman, K. Wolinski, J. Anchell,
          D. Bernholdt, P. Borowski, T. Clark, D. Clerc, H. Dachsel, M. Deegan,
          K. Dyall, D. Elwood, E. Glendening, M. Gutowski, A. Hess, J. Jaffe,
          B. Johnson, J. Ju, R. Kobayashi, R. Kutteh, Z. Lin, R. Littlefield,
          X. Long, B. Meng, T. Nakajima, S. Niu, L. Pollack, M. Rosing,
          G. Sandrone, M. Stave, H. Taylor, G. Thomas, J. van Lenthe, A. Wong,
          and Z. Zhang,
          "NWChem, A Computational Chemistry Package for Parallel Computers, 
          Version 5.1" (2007),
                      Pacific Northwest National Laboratory,
                      Richland, Washington 99352-0999, USA.



 Total times  cpu:      165.9s     wall:      234.4s
