 argument  1 = /var/lib/gitlab-runner/builds/PH7zszVW/0/edoapra/nwchem/QA/tests/dft_x/dft_x.nw



============================== echo of input deck ==============================
echo
start bett

geometry
zmat
  C
  O 1 AB
  H 1 AH3 2 H3AB
  H 2 BH9 1 H9BA 3 180. 0
  X 1 1. 2 BAH12 3 180. 0
  H 1 AH1 5 H1AH2 2 90. 0
  H 1 AH1 5 H1AH2 2 -90. 0
  variables
  AB 1.42294
  AH1 1.096734
  AH3 1.089541
  BH9 0.97
  H1AH2 54.401488
  BAH12 130.662232
  H3AB 106.27799
  H9BA 107.3899
end
end

basis
  C library 6-31G*
  H library 6-31G*
  O library 6-31G*
end

title "Test with OLYP"
dft
  xc optx lyp
end
task dft optimize

title "Test with B3LYP"
dft
  xc b3lyp
end
task dft optimize

================================================================================


                                         
                                         


              Northwest Computational Chemistry Package (NWChem) 6.8
              ------------------------------------------------------


                    Environmental Molecular Sciences Laboratory
                       Pacific Northwest National Laboratory
                                Richland, WA 99352

                              Copyright (c) 1994-2018
                       Pacific Northwest National Laboratory
                            Battelle Memorial Institute

             NWChem is an open-source computational chemistry package
                        distributed under the terms of the
                      Educational Community License (ECL) 2.0
             A copy of the license is included with this distribution
                              in the LICENSE.TXT file

                                  ACKNOWLEDGMENT
                                  --------------

            This software and its documentation were developed at the
            EMSL at Pacific Northwest National Laboratory, a multiprogram
            national laboratory, operated for the U.S. Department of Energy
            by Battelle under Contract Number DE-AC05-76RL01830. Support
            for this work was provided by the Department of Energy Office
            of Biological and Environmental Research, Office of Basic
            Energy Sciences, and the Office of Advanced Scientific Computing.


           Job information
           ---------------

    hostname        = durian
    program         = /var/lib/gitlab-runner/builds/PH7zszVW/0/edoapra/nwchem/bin/LINUX64/nwchem
    date            = Wed Sep 25 01:02:39 2019

    compiled        = Wed_Sep_25_00:28:29_2019
    source          = /var/lib/gitlab-runner/builds/PH7zszVW/0/edoapra/nwchem
    nwchem branch   = Development
    nwchem revision = 26821eaa
    ga revision     = 5.7.0
    use scalapack   = T
    input           = /var/lib/gitlab-runner/builds/PH7zszVW/0/edoapra/nwchem/QA/tests/dft_x/dft_x.nw
    prefix          = bett.
    data base       = ./bett.db
    status          = startup
    nproc           =        2
    time left       =     -1s



           Memory information
           ------------------

    heap     =  208704538 doubles =   1592.3 Mbytes
    stack    =  208704543 doubles =   1592.3 Mbytes
    global   =  417409088 doubles =   3184.6 Mbytes (distinct from heap & stack)
    total    =  834818169 doubles =   6369.2 Mbytes
    verify   = yes
    hardfail = no 


           Directory information
           ---------------------

  0 permanent = .
  0 scratch   = .




                                NWChem Input Module
                                -------------------



 Scaling coordinates for geometry "geometry" by  1.889725989
 (inverse scale =  0.529177249)

 CS  symmetry detected


                             Geometry "geometry" -> ""
                             -------------------------

 Output coordinates in angstroms (scale by  1.889725989 to convert to a.u.)

  No.       Tag          Charge          X              Y              Z
 ---- ---------------- ---------- -------------- -------------- --------------
    1 C                    6.0000     0.01105038     0.66596653     0.00000000
    2 O                    8.0000     0.08817602    -0.75488177     0.00000000
    3 H                    1.0000     1.03882462     1.02760129     0.00000000
    4 H                    1.0000    -0.82041411    -1.09453450     0.00000000
    5 X                    0.0000    -0.78171625     1.27549181     0.00000000
    6 H                    1.0000    -0.49506047     1.05509411    -0.89177183
    7 H                    1.0000    -0.49506047     1.05509411     0.89177183

      Atomic Mass 
      ----------- 

      C                 12.000000
      O                 15.994910
      H                  1.007825


 Effective nuclear repulsion energy (a.u.)      40.2078492238

            Nuclear Dipole moment (a.u.) 
            ----------------------------
        X                 Y               Z
 ---------------- ---------------- ----------------
     0.0000000000     0.0000000000     0.0000000000

      Symmetry information
      --------------------

 Group name             Cs        
 Group number              2
 Group order               2
 No. of unique centers     6

      Symmetry unique atoms

     1    2    3    4    5    6



                                Z-matrix (user)
                                -------- 

 Units are Angstrom for bonds and degrees for angles

  Constrained variables are marked with a plus sign (+).


      Type          Name      I     J     K     L     M      Value
      ----------- --------  ----- ----- ----- ----- ----- ----------
    1 Stretch      AB          2     1                       1.42294
    2 Stretch      AH3         3     1                       1.08954
    3 Bend         H3AB        3     1     2               106.27799
    4 Stretch      BH9         4     2                       0.97000
    5 Bend         H9BA        4     2     1               107.38990
    6 Torsion                  4     2     1     3         180.00000
    7 Stretch                  5     1                       1.00000
    8 Bend         BAH12       5     1     2               130.66223
    9 Torsion                  5     1     2     3         180.00000
   10+Stretch      AH1         6     1                       1.09673
   11+Bend         H1AH2       6     1     5                54.40149
   12 Torsion                  6     1     5     2          90.00000
   13+Stretch      AH1         7     1                       1.09673
   14+Bend         H1AH2       7     1     5                54.40149
   15 Torsion                  7     1     5     2         -90.00000


            XYZ format geometry
            -------------------
     7
 geometry
 C                     0.01105038     0.66596653     0.00000000
 O                     0.08817602    -0.75488177     0.00000000
 H                     1.03882462     1.02760129     0.00000000
 H                    -0.82041411    -1.09453450     0.00000000
 X                    -0.78171625     1.27549181     0.00000000
 H                    -0.49506047     1.05509411    -0.89177183
 H                    -0.49506047     1.05509411     0.89177183

 ==============================================================================
                                internuclear distances
 ------------------------------------------------------------------------------
       center one      |      center two      | atomic units |  angstroms
 ------------------------------------------------------------------------------
    2 O                |   1 C                |     2.68897  |     1.42294
    3 H                |   1 C                |     2.05893  |     1.08954
    4 H                |   2 O                |     1.83303  |     0.97000
    5 X                |   1 C                |     1.88973  |     1.00000
    5 X                |   2 O                |     4.17417  |     2.20888
    5 X                |   3 H                |     3.47207  |     1.83734
    5 X                |   4 H                |     4.47930  |     2.37034
    6 H                |   1 C                |     2.07253  |     1.09673
    6 H                |   5 X                |     1.81847  |     0.96229
    7 H                |   1 C                |     2.07253  |     1.09673
    7 H                |   5 X                |     1.81847  |     0.96229
 ------------------------------------------------------------------------------
                         number of included internuclear distances:         11
 ==============================================================================



 ==============================================================================
                                 internuclear angles
 ------------------------------------------------------------------------------
        center 1       |       center 2       |       center 3       |  degrees
 ------------------------------------------------------------------------------
    2 O                |   1 C                |   3 H                |   106.28
    2 O                |   1 C                |   5 X                |   130.66
    2 O                |   1 C                |   6 H                |   112.29
    2 O                |   1 C                |   7 H                |   112.29
    3 H                |   1 C                |   5 X                |   123.06
    3 H                |   1 C                |   6 H                |   108.51
    3 H                |   1 C                |   7 H                |   108.51
    1 C                |   5 X                |   6 H                |    67.93
    1 C                |   5 X                |   7 H                |    67.93
    6 H                |   1 C                |   7 H                |   108.80
    1 C                |   2 O                |   4 H                |   107.39
    2 O                |   1 C                |   5 X                |   130.66
    4 H                |   2 O                |   5 X                |    87.30
    3 H                |   1 C                |   5 X                |   123.06
    4 H                |   2 O                |   5 X                |    87.30
    5 X                |   1 C                |   2 O                |   130.66
    5 X                |   1 C                |   3 H                |   123.06
    1 C                |   5 X                |   4 H                |    53.38
    1 C                |   5 X                |   6 H                |    67.93
    1 C                |   5 X                |   7 H                |    67.93
    2 O                |   5 X                |   3 H                |    59.05
    5 X                |   2 O                |   4 H                |    87.30
    2 O                |   5 X                |   6 H                |    70.86
    2 O                |   5 X                |   7 H                |    70.86
    3 H                |   5 X                |   4 H                |    83.18
    3 H                |   5 X                |   6 H                |    70.97
    3 H                |   5 X                |   7 H                |    70.97
    4 H                |   5 X                |   6 H                |    77.05
    4 H                |   5 X                |   7 H                |    77.05
    6 H                |   5 X                |   7 H                |   135.86
    6 H                |   5 X                |   1 C                |    67.93
    7 H                |   5 X                |   1 C                |    67.93
 ------------------------------------------------------------------------------
                            number of included internuclear angles:         32
 ==============================================================================



                      Basis "ao basis" -> "" (cartesian)
                      -----
  C (Carbon)
  ----------
            Exponent  Coefficients 
       -------------- ---------------------------------------------------------
  1 S  3.04752490E+03  0.001835
  1 S  4.57369510E+02  0.014037
  1 S  1.03948690E+02  0.068843
  1 S  2.92101550E+01  0.232184
  1 S  9.28666300E+00  0.467941
  1 S  3.16392700E+00  0.362312

  2 S  7.86827240E+00 -0.119332
  2 S  1.88128850E+00 -0.160854
  2 S  5.44249300E-01  1.143456

  3 P  7.86827240E+00  0.068999
  3 P  1.88128850E+00  0.316424
  3 P  5.44249300E-01  0.744308

  4 S  1.68714400E-01  1.000000

  5 P  1.68714400E-01  1.000000

  6 D  8.00000000E-01  1.000000

  H (Hydrogen)
  ------------
            Exponent  Coefficients 
       -------------- ---------------------------------------------------------
  1 S  1.87311370E+01  0.033495
  1 S  2.82539370E+00  0.234727
  1 S  6.40121700E-01  0.813757

  2 S  1.61277800E-01  1.000000

  O (Oxygen)
  ----------
            Exponent  Coefficients 
       -------------- ---------------------------------------------------------
  1 S  5.48467170E+03  0.001831
  1 S  8.25234950E+02  0.013950
  1 S  1.88046960E+02  0.068445
  1 S  5.29645000E+01  0.232714
  1 S  1.68975700E+01  0.470193
  1 S  5.79963530E+00  0.358521

  2 S  1.55396160E+01 -0.110778
  2 S  3.59993360E+00 -0.148026
  2 S  1.01376180E+00  1.130767

  3 P  1.55396160E+01  0.070874
  3 P  3.59993360E+00  0.339753
  3 P  1.01376180E+00  0.727159

  4 S  2.70005800E-01  1.000000

  5 P  2.70005800E-01  1.000000

  6 D  8.00000000E-01  1.000000



 Summary of "ao basis" -> "" (cartesian)
 ------------------------------------------------------------------------------
       Tag                 Description            Shells   Functions and Types
 ---------------- ------------------------------  ------  ---------------------
 C                           6-31G*                  6       15   3s2p1d
 H                           6-31G*                  2        2   2s
 O                           6-31G*                  6       15   3s2p1d


                                  Test with OLYP
                                  --------------


                           NWChem Geometry Optimization
                           ----------------------------




                                  Test with OLYP


 maximum gradient threshold         (gmax) =   0.000450
 rms gradient threshold             (grms) =   0.000300
 maximum cartesian step threshold   (xmax) =   0.001800
 rms cartesian step threshold       (xrms) =   0.001200
 fixed trust radius                (trust) =   0.300000
 maximum step size to saddle      (sadstp) =   0.100000
 energy precision                  (eprec) =   5.0D-06
 maximum number of steps          (nptopt) =   20
 initial hessian option           (inhess) =    0
 line search option               (linopt) =    1
 hessian update option            (modupd) =    1
 saddle point option              (modsad) =    0
 initial eigen-mode to follow     (moddir) =    0
 initial variable to follow       (vardir) =    0
 follow first negative mode     (firstneg) =    T
 apply conjugacy                    (opcg) =    F
 source of zmatrix                         =   user    


          -------------------
          Energy Minimization
          -------------------


 Names of Z-matrix variables 
    1 AB           2 AH3          3 H3AB         4 BH9          5 H9BA    
    6              7              8 BAH12        9             10 AH1     
   11 H1AH2       12             13 AH1         14 H1AH2       15         

 Variables with the same non-blank name are constrained to be equal

     variables named      AH1 =    10   13
     variables named    H1AH2 =    11   14

 Using diagonal initial Hessian 
 Scaling for Hessian diagonals: bonds = 1.00  angles = 0.25  torsions = 0.10

          --------
          Step   0
          --------


                         Geometry "geometry" -> "geometry"
                         ---------------------------------

 Output coordinates in angstroms (scale by  1.889725989 to convert to a.u.)

  No.       Tag          Charge          X              Y              Z
 ---- ---------------- ---------- -------------- -------------- --------------
    1 C                    6.0000     0.01105038     0.66596653     0.00000000
    2 O                    8.0000     0.08817602    -0.75488177     0.00000000
    3 H                    1.0000     1.03882462     1.02760129     0.00000000
    4 H                    1.0000    -0.82041411    -1.09453450     0.00000000
    5 X                    0.0000    -0.78171625     1.27549181     0.00000000
    6 H                    1.0000    -0.49506047     1.05509411    -0.89177183
    7 H                    1.0000    -0.49506047     1.05509411     0.89177183

      Atomic Mass 
      ----------- 

      C                 12.000000
      O                 15.994910
      H                  1.007825


 Effective nuclear repulsion energy (a.u.)      40.2078492238

            Nuclear Dipole moment (a.u.) 
            ----------------------------
        X                 Y               Z
 ---------------- ---------------- ----------------
     0.0000000000     0.0000000000     0.0000000000

      Symmetry information
      --------------------

 Group name             Cs        
 Group number              2
 Group order               2
 No. of unique centers     6

      Symmetry unique atoms

     1    2    3    4    5    6


                                 NWChem DFT Module
                                 -----------------


                                  Test with OLYP




 Summary of "ao basis" -> "ao basis" (cartesian)
 ------------------------------------------------------------------------------
       Tag                 Description            Shells   Functions and Types
 ---------------- ------------------------------  ------  ---------------------
 C                           6-31G*                  6       15   3s2p1d
 H                           6-31G*                  2        2   2s
 O                           6-31G*                  6       15   3s2p1d


      Symmetry analysis of basis
      --------------------------

        a'         28
        a"         10

  Caching 1-el integrals 

            General Information
            -------------------
          SCF calculation type: DFT
          Wavefunction type:  closed shell.
          No. of atoms     :     7
          No. of electrons :    18
           Alpha electrons :     9
            Beta electrons :     9
          Charge           :     0
          Spin multiplicity:     1
          Use of symmetry is: on ; symmetry adaption is: on 
          Maximum number of iterations:  30
          AO basis - number of functions:    38
                     number of shells:    20
          Convergence on energy requested:  1.00D-06
          Convergence on density requested:  1.00D-05
          Convergence on gradient requested:  5.00D-04

              XC Information
              --------------
                        Slater Exchange Functional  1.052 local    
                      OPTX     Exchange Functional  1.432 non-local
              Lee-Yang-Parr Correlation Functional  1.000          

             Grid Information
             ----------------
          Grid used for XC integration:  medium    
          Radial quadrature: Mura-Knowles        
          Angular quadrature: Lebedev. 
          Tag              B.-S. Rad. Rad. Pts. Rad. Cut. Ang. Pts.
          ---              ---------- --------- --------- ---------
          C                   0.70       49           7.0       434
          O                   0.60       49           7.0       434
          H                   0.35       45           8.0       434
          X                   0.00        0           0.0         0
          Grid pruning is: on 
          Number of quadrature shells:   233
          Spatial weights used:  Erf1

          Convergence Information
          -----------------------
          Convergence aids based upon iterative change in 
          total energy or number of iterations. 
          Levelshifting, if invoked, occurs when the 
          HOMO/LUMO gap drops below (HL_TOL):  1.00D-02
          DIIS, if invoked, will attempt to extrapolate 
          using up to (NFOCK): 10 stored Fock matrices.

                    Damping( 0%)  Levelshifting(0.5)       DIIS
                  --------------- ------------------- ---------------
          dE  on:    start            ASAP                start   
          dE off:    2 iters         30 iters            30 iters 


      Screening Tolerance Information
      -------------------------------
          Density screening/tol_rho:  1.00D-10
          AO Gaussian exp screening on grid/accAOfunc:  14
          CD Gaussian exp screening on grid/accCDfunc:  20
          XC Gaussian exp screening on grid/accXCfunc:  20
          Schwarz screening/accCoul:  1.00D-08


      Superposition of Atomic Density Guess
      -------------------------------------

 Sum of atomic energies:        -114.40753654

      Non-variational initial energy
      ------------------------------

 Total energy =    -115.267622
 1-e energy   =    -234.726616
 2-e energy   =      79.251145
 HOMO         =      -0.366960
 LUMO         =       0.122576


      Symmetry analysis of molecular orbitals - initial
      -------------------------------------------------

  Numbering of irreducible representations: 

     1 a'          2 a"      

  Orbital symmetries:

     1 a'          2 a'          3 a'          4 a'          5 a'      
     6 a"          7 a'          8 a'          9 a"         10 a'      
    11 a'         12 a'         13 a"         14 a'         15 a'      
    16 a"         17 a'         18 a'         19 a"      

   Time after variat. SCF:      0.1
   Time prior to 1st pass:      0.1

 Grid_pts file          = ./bett.gridpts.0
 Record size in doubles =  12289        No. of grid_pts per rec  =   3070
 Max. records in memory =     20        Max. recs in file   = 506625431


           Memory utilization after 1st SCF pass: 
           Heap Space remaining (MW):      125.04           125038658
          Stack Space remaining (MW):      208.70           208704140

   convergence    iter        energy       DeltaE   RMS-Dens  Diis-err    time
 ---------------- ----- ----------------- --------- --------- ---------  ------
 d= 0,ls=0.0,diis     1   -115.6242379479 -1.56D+02  2.72D-02  4.03D-01     0.3
 d= 0,ls=0.0,diis     2   -115.5913865434  3.29D-02  1.66D-02  7.82D-01     0.4
 d= 0,ls=0.0,diis     3   -115.6653726400 -7.40D-02  2.62D-03  3.38D-02     0.6
 d= 0,ls=0.0,diis     4   -115.6683165226 -2.94D-03  6.43D-04  8.91D-04     0.7
 d= 0,ls=0.0,diis     5   -115.6684013726 -8.48D-05  2.35D-04  1.41D-04     0.9
  Resetting Diis
 d= 0,ls=0.0,diis     6   -115.6684185102 -1.71D-05  3.55D-05  2.76D-06     1.0
 d= 0,ls=0.0,diis     7   -115.6684188662 -3.56D-07  7.16D-06  3.06D-08     1.2


         Total DFT energy =     -115.668418866213
      One electron energy =     -236.852150091029
           Coulomb energy =       96.448648738747
    Exchange-Corr. energy =      -15.472766737751
 Nuclear repulsion energy =       40.207849223820

 Numeric. integr. density =       17.999998333124

     Total iterative time =      1.1s



                  Occupations of the irreducible representations
                  ----------------------------------------------

                     irrep           alpha         beta
                     --------     --------     --------
                     a'                7.0          7.0
                     a"                2.0          2.0


                       DFT Final Molecular Orbital Analysis
                       ------------------------------------

 Vector    1  Occ=2.000000D+00  E=-1.877067D+01  Symmetry=a'
              MO Center=  8.8D-02, -7.5D-01, -4.5D-20, r^2= 1.5D-02
   Bfn.  Coefficient  Atom+Function         Bfn.  Coefficient  Atom+Function  
  ----- ------------  ---------------      ----- ------------  ---------------
    16      0.993069  2 O  s                 17      0.026000  2 O  s          

 Vector    2  Occ=2.000000D+00  E=-9.944834D+00  Symmetry=a'
              MO Center=  1.1D-02,  6.7D-01,  9.4D-18, r^2= 2.8D-02
   Bfn.  Coefficient  Atom+Function         Bfn.  Coefficient  Atom+Function  
  ----- ------------  ---------------      ----- ------------  ---------------
     1      0.993737  1 C  s                  2      0.044199  1 C  s          

 Vector    3  Occ=2.000000D+00  E=-9.223139D-01  Symmetry=a'
              MO Center= -7.7D-02, -5.7D-01,  1.4D-16, r^2= 5.9D-01
   Bfn.  Coefficient  Atom+Function         Bfn.  Coefficient  Atom+Function  
  ----- ------------  ---------------      ----- ------------  ---------------
    17      0.453566  2 O  s                 21      0.413671  2 O  s          
    16     -0.200774  2 O  s                  2      0.137833  1 C  s          
    33      0.132989  4 H  s                  4     -0.103109  1 C  py         
    18     -0.102238  2 O  px                 1     -0.073839  1 C  s          
    19      0.067077  2 O  py                 6      0.060588  1 C  s          

 Vector    4  Occ=2.000000D+00  E=-6.105653D-01  Symmetry=a'
              MO Center= -5.3D-03,  4.7D-01,  2.3D-15, r^2= 1.5D+00
   Bfn.  Coefficient  Atom+Function         Bfn.  Coefficient  Atom+Function  
  ----- ------------  ---------------      ----- ------------  ---------------
     2      0.357951  1 C  s                  6      0.329965  1 C  s          
     1     -0.179010  1 C  s                 19      0.177756  2 O  py         
    21     -0.165508  2 O  s                 31      0.142041  3 H  s          
    17     -0.140483  2 O  s                 35      0.131066  6 H  s          
    37      0.131066  7 H  s                 33     -0.123132  4 H  s          

 Vector    5  Occ=2.000000D+00  E=-4.441655D-01  Symmetry=a'
              MO Center= -1.5D-01, -9.1D-02, -9.0D-15, r^2= 1.5D+00
   Bfn.  Coefficient  Atom+Function         Bfn.  Coefficient  Atom+Function  
  ----- ------------  ---------------      ----- ------------  ---------------
    18      0.323777  2 O  px                19      0.276929  2 O  py         
     4     -0.248055  1 C  py                33     -0.209359  4 H  s          
     3      0.202247  1 C  px                22      0.165700  2 O  px         
    21      0.142998  2 O  s                 34     -0.131198  4 H  s          
    23      0.129915  2 O  py                35     -0.120905  6 H  s          

 Vector    6  Occ=2.000000D+00  E=-3.766049D-01  Symmetry=a"
              MO Center= -1.7D-01,  5.9D-01, -3.0D-14, r^2= 1.4D+00
   Bfn.  Coefficient  Atom+Function         Bfn.  Coefficient  Atom+Function  
  ----- ------------  ---------------      ----- ------------  ---------------
     5      0.432287  1 C  pz                20      0.228231  2 O  pz         
    35     -0.211014  6 H  s                 37      0.211014  7 H  s          
     9      0.188882  1 C  pz                36     -0.163741  6 H  s          
    38      0.163741  7 H  s                 24      0.141700  2 O  pz         
    12     -0.027080  1 C  dxz        

 Vector    7  Occ=2.000000D+00  E=-3.640535D-01  Symmetry=a'
              MO Center=  3.0D-01,  2.9D-01,  2.3D-14, r^2= 1.5D+00
   Bfn.  Coefficient  Atom+Function         Bfn.  Coefficient  Atom+Function  
  ----- ------------  ---------------      ----- ------------  ---------------
     3      0.336579  1 C  px                19     -0.330498  2 O  py         
     4      0.248378  1 C  py                31      0.246914  3 H  s          
    23     -0.192071  2 O  py                32      0.178421  3 H  s          
     7      0.176500  1 C  px                21      0.118857  2 O  s          
     8      0.106334  1 C  py                18      0.097294  2 O  px         

 Vector    8  Occ=2.000000D+00  E=-2.759958D-01  Symmetry=a'
              MO Center=  1.5D-01, -2.6D-01,  1.2D-14, r^2= 1.6D+00
   Bfn.  Coefficient  Atom+Function         Bfn.  Coefficient  Atom+Function  
  ----- ------------  ---------------      ----- ------------  ---------------
    18      0.416195  2 O  px                21      0.336558  2 O  s          
    22      0.275437  2 O  px                 3     -0.245162  1 C  px         
    19     -0.232371  2 O  py                31     -0.167873  3 H  s          
    32     -0.168332  3 H  s                 23     -0.166505  2 O  py         
    33     -0.156444  4 H  s                 17      0.144756  2 O  s          

 Vector    9  Occ=2.000000D+00  E=-2.047164D-01  Symmetry=a"
              MO Center= -1.1D-02, -4.3D-01,  2.2D-15, r^2= 1.3D+00
   Bfn.  Coefficient  Atom+Function         Bfn.  Coefficient  Atom+Function  
  ----- ------------  ---------------      ----- ------------  ---------------
    20      0.605553  2 O  pz                24      0.468582  2 O  pz         
    36      0.190305  6 H  s                 38     -0.190305  7 H  s          
     5     -0.154852  1 C  pz                35      0.142246  6 H  s          
    37     -0.142246  7 H  s                 14     -0.058877  1 C  dyz        
    27     -0.044217  2 O  dxz        

 Vector   10  Occ=0.000000D+00  E= 5.008685D-02  Symmetry=a'
              MO Center= -8.0D-01, -6.9D-01,  8.6D-16, r^2= 2.5D+00
   Bfn.  Coefficient  Atom+Function         Bfn.  Coefficient  Atom+Function  
  ----- ------------  ---------------      ----- ------------  ---------------
    34      1.256400  4 H  s                 21     -1.120154  2 O  s          
     6     -0.554236  1 C  s                  8     -0.505558  1 C  py         
    22      0.472362  2 O  px                36      0.410772  6 H  s          
    38      0.410772  7 H  s                 18      0.274393  2 O  px         
    32      0.239087  3 H  s                  4     -0.205992  1 C  py         

 Vector   11  Occ=0.000000D+00  E= 1.098708D-01  Symmetry=a'
              MO Center= -5.4D-02,  9.6D-01, -2.3D-15, r^2= 3.7D+00
   Bfn.  Coefficient  Atom+Function         Bfn.  Coefficient  Atom+Function  
  ----- ------------  ---------------      ----- ------------  ---------------
     6      2.435951  1 C  s                 32     -1.098890  3 H  s          
    36     -1.100626  6 H  s                 38     -1.100626  7 H  s          
    21     -0.655682  2 O  s                 34      0.443366  4 H  s          
    23     -0.220195  2 O  py                 2      0.216331  1 C  s          
     8      0.197346  1 C  py                22      0.184074  2 O  px         

 Vector   12  Occ=0.000000D+00  E= 1.437742D-01  Symmetry=a'
              MO Center=  4.0D-01,  8.4D-01, -2.9D-15, r^2= 2.8D+00
   Bfn.  Coefficient  Atom+Function         Bfn.  Coefficient  Atom+Function  
  ----- ------------  ---------------      ----- ------------  ---------------
    32      1.667439  3 H  s                  7     -1.171569  1 C  px         
    36     -0.667452  6 H  s                 38     -0.667452  7 H  s          
     8     -0.544199  1 C  py                 3     -0.401340  1 C  px         
    34     -0.354648  4 H  s                 23     -0.329814  2 O  py         
    21     -0.211147  2 O  s                 19     -0.198409  2 O  py         

 Vector   13  Occ=0.000000D+00  E= 1.542159D-01  Symmetry=a"
              MO Center= -4.6D-01,  1.0D+00,  4.3D-15, r^2= 2.8D+00
   Bfn.  Coefficient  Atom+Function         Bfn.  Coefficient  Atom+Function  
  ----- ------------  ---------------      ----- ------------  ---------------
    36      1.509619  6 H  s                 38     -1.509619  7 H  s          
     9      1.311766  1 C  pz                 5      0.469226  1 C  pz         
    24     -0.237074  2 O  pz                20     -0.110288  2 O  pz         
    35      0.083859  6 H  s                 37     -0.083859  7 H  s          
    12      0.034137  1 C  dxz               27      0.025470  2 O  dxz        

 Vector   14  Occ=0.000000D+00  E= 1.740845D-01  Symmetry=a'
              MO Center= -1.2D-02,  3.1D-01, -1.4D-15, r^2= 2.7D+00
   Bfn.  Coefficient  Atom+Function         Bfn.  Coefficient  Atom+Function  
  ----- ------------  ---------------      ----- ------------  ---------------
     8      1.167989  1 C  py                34      0.797584  4 H  s          
    23      0.756762  2 O  py                32      0.679849  3 H  s          
     7     -0.665469  1 C  px                 6     -0.615410  1 C  s          
    21      0.583334  2 O  s                 36     -0.528378  6 H  s          
    38     -0.528378  7 H  s                 19      0.372030  2 O  py         

 Vector   15  Occ=0.000000D+00  E= 5.063746D-01  Symmetry=a'
              MO Center=  7.2D-02,  6.6D-01,  1.8D-16, r^2= 1.9D+00
   Bfn.  Coefficient  Atom+Function         Bfn.  Coefficient  Atom+Function  
  ----- ------------  ---------------      ----- ------------  ---------------
     8      1.506349  1 C  py                 4     -0.915009  1 C  py         
    21      0.870956  2 O  s                  6     -0.535666  1 C  s          
     2      0.364839  1 C  s                  7     -0.311720  1 C  px         
    23      0.287641  2 O  py                19     -0.283870  2 O  py         
    34      0.274094  4 H  s                 17     -0.163245  2 O  s          

 Vector   16  Occ=0.000000D+00  E= 5.503653D-01  Symmetry=a'
              MO Center= -2.6D-01,  5.8D-01,  7.2D-15, r^2= 2.1D+00
   Bfn.  Coefficient  Atom+Function         Bfn.  Coefficient  Atom+Function  
  ----- ------------  ---------------      ----- ------------  ---------------
     7      1.630614  1 C  px                 3     -0.717648  1 C  px         
    31     -0.494234  3 H  s                 32     -0.397793  3 H  s          
     8      0.345400  1 C  py                 4     -0.235587  1 C  py         
    21      0.221103  2 O  s                 35      0.199820  6 H  s          
    37      0.199820  7 H  s                 17     -0.179495  2 O  s          

 Vector   17  Occ=0.000000D+00  E= 5.607094D-01  Symmetry=a"
              MO Center=  2.4D-01,  5.7D-01, -7.2D-15, r^2= 2.0D+00
   Bfn.  Coefficient  Atom+Function         Bfn.  Coefficient  Atom+Function  
  ----- ------------  ---------------      ----- ------------  ---------------
     9      1.692781  1 C  pz                 5     -0.716127  1 C  pz         
    35      0.410729  6 H  s                 37     -0.410729  7 H  s          
    36      0.371020  6 H  s                 38     -0.371020  7 H  s          
    20     -0.236818  2 O  pz                12      0.195538  1 C  dxz        
    24     -0.153582  2 O  pz                14     -0.063393  1 C  dyz        

 Vector   18  Occ=0.000000D+00  E= 7.367619D-01  Symmetry=a'
              MO Center= -3.1D-01, -4.9D-01,  1.8D-15, r^2= 2.4D+00
   Bfn.  Coefficient  Atom+Function         Bfn.  Coefficient  Atom+Function  
  ----- ------------  ---------------      ----- ------------  ---------------
     7      0.965875  1 C  px                33     -0.927439  4 H  s          
    32     -0.911229  3 H  s                 34      0.752411  4 H  s          
    36      0.495871  6 H  s                 38      0.495871  7 H  s          
     3     -0.452067  1 C  px                18     -0.347171  2 O  px         
    23     -0.335474  2 O  py                35     -0.304372  6 H  s          

 Vector   19  Occ=0.000000D+00  E= 8.073695D-01  Symmetry=a"
              MO Center= -3.6D-01,  9.1D-01, -6.6D-15, r^2= 2.1D+00
   Bfn.  Coefficient  Atom+Function         Bfn.  Coefficient  Atom+Function  
  ----- ------------  ---------------      ----- ------------  ---------------
     9      1.496410  1 C  pz                36      1.492521  6 H  s          
    38     -1.492521  7 H  s                  5     -0.845534  1 C  pz         
    35     -0.666354  6 H  s                 37      0.666354  7 H  s          
    24     -0.317483  2 O  pz                14      0.241170  1 C  dyz        
    12     -0.223979  1 C  dxz               20      0.206776  2 O  pz         

 Vector   20  Occ=0.000000D+00  E= 8.248308D-01  Symmetry=a'
              MO Center=  4.3D-01,  2.9D-01, -1.3D-14, r^2= 2.5D+00
   Bfn.  Coefficient  Atom+Function         Bfn.  Coefficient  Atom+Function  
  ----- ------------  ---------------      ----- ------------  ---------------
    32      1.451856  3 H  s                  7     -1.203605  1 C  px         
    31     -0.780017  3 H  s                  3      0.678690  1 C  px         
    36     -0.610969  6 H  s                 38     -0.610969  7 H  s          
    18     -0.525527  2 O  px                22      0.524810  2 O  px         
    33     -0.329235  4 H  s                 34      0.291130  4 H  s          

 Vector   21  Occ=0.000000D+00  E= 8.522203D-01  Symmetry=a'
              MO Center= -1.8D-01,  7.3D-01,  1.6D-14, r^2= 2.3D+00
   Bfn.  Coefficient  Atom+Function         Bfn.  Coefficient  Atom+Function  
  ----- ------------  ---------------      ----- ------------  ---------------
     6      0.953957  1 C  s                 21     -0.796026  2 O  s          
    35      0.730417  6 H  s                 37      0.730417  7 H  s          
    36     -0.711797  6 H  s                 38     -0.711797  7 H  s          
    31      0.537143  3 H  s                  2     -0.488571  1 C  s          
    34      0.457953  4 H  s                 17      0.408834  2 O  s          

 Vector   22  Occ=0.000000D+00  E= 9.150891D-01  Symmetry=a'
              MO Center=  1.9D-01, -6.1D-01,  6.6D-16, r^2= 2.6D+00
   Bfn.  Coefficient  Atom+Function         Bfn.  Coefficient  Atom+Function  
  ----- ------------  ---------------      ----- ------------  ---------------
     6      2.078056  1 C  s                 21      1.359515  2 O  s          
    17     -0.821306  2 O  s                 34     -0.805347  4 H  s          
     2     -0.771826  1 C  s                 32     -0.743004  3 H  s          
    23     -0.710568  2 O  py                19      0.459196  2 O  py         
    33      0.443027  4 H  s                 36     -0.406115  6 H  s          

 Vector   23  Occ=0.000000D+00  E= 9.438738D-01  Symmetry=a"
              MO Center=  9.3D-02, -6.8D-01, -9.0D-15, r^2= 1.6D+00
   Bfn.  Coefficient  Atom+Function         Bfn.  Coefficient  Atom+Function  
  ----- ------------  ---------------      ----- ------------  ---------------
    24      1.189954  2 O  pz                20     -0.907013  2 O  pz         
     9     -0.561160  1 C  pz                12     -0.231944  1 C  dxz        
    35     -0.223058  6 H  s                 37      0.223058  7 H  s          
    29     -0.133044  2 O  dyz               27     -0.065741  2 O  dxz        

 Vector   24  Occ=0.000000D+00  E= 9.906718D-01  Symmetry=a'
              MO Center=  6.9D-03,  3.2D-01,  6.4D-15, r^2= 2.7D+00
   Bfn.  Coefficient  Atom+Function         Bfn.  Coefficient  Atom+Function  
  ----- ------------  ---------------      ----- ------------  ---------------
     6      3.725385  1 C  s                  2     -1.657562  1 C  s          
    36     -1.019569  6 H  s                 38     -1.019569  7 H  s          
    32     -0.970407  3 H  s                  8      0.746440  1 C  py         
    23      0.635799  2 O  py                19     -0.503541  2 O  py         
    34      0.275018  4 H  s                 13     -0.198919  1 C  dyy        

 Vector   25  Occ=0.000000D+00  E= 1.072908D+00  Symmetry=a'
              MO Center= -2.1D-02, -5.5D-01,  2.5D-15, r^2= 1.9D+00
   Bfn.  Coefficient  Atom+Function         Bfn.  Coefficient  Atom+Function  
  ----- ------------  ---------------      ----- ------------  ---------------
    22     -1.344019  2 O  px                 6      1.283959  1 C  s          
    34     -0.960815  4 H  s                 23     -0.929859  2 O  py         
    21      0.827887  2 O  s                 18      0.708182  2 O  px         
     2     -0.418018  1 C  s                 17     -0.419353  2 O  s          
    19      0.357348  2 O  py                31     -0.331355  3 H  s          

 Vector   26  Occ=0.000000D+00  E= 1.413484D+00  Symmetry=a'
              MO Center=  3.0D-02, -3.3D-02,  1.2D-16, r^2= 1.8D+00
   Bfn.  Coefficient  Atom+Function         Bfn.  Coefficient  Atom+Function  
  ----- ------------  ---------------      ----- ------------  ---------------
     6      3.683286  1 C  s                 21     -3.176272  2 O  s          
    23     -1.323573  2 O  py                17      1.061517  2 O  s          
     2     -0.955051  1 C  s                  8     -0.833307  1 C  py         
    26      0.640809  2 O  dxy               11     -0.604347  1 C  dxy        
    32     -0.549583  3 H  s                 28      0.516581  2 O  dyy        

 Vector   27  Occ=0.000000D+00  E= 1.429464D+00  Symmetry=a"
              MO Center=  5.4D-02,  1.4D-01, -5.6D-18, r^2= 1.1D+00
   Bfn.  Coefficient  Atom+Function         Bfn.  Coefficient  Atom+Function  
  ----- ------------  ---------------      ----- ------------  ---------------
    14      1.072797  1 C  dyz               29     -0.901196  2 O  dyz        
    12      0.701796  1 C  dxz               27      0.225848  2 O  dxz        
     5      0.174148  1 C  pz                36     -0.148099  6 H  s          
    38      0.148099  7 H  s                 24      0.145453  2 O  pz         
    35      0.124809  6 H  s                 37     -0.124809  7 H  s          

 Vector   28  Occ=0.000000D+00  E= 1.519825D+00  Symmetry=a'
              MO Center=  8.1D-02, -2.4D-01,  7.6D-16, r^2= 1.5D+00
   Bfn.  Coefficient  Atom+Function         Bfn.  Coefficient  Atom+Function  
  ----- ------------  ---------------      ----- ------------  ---------------
    21      2.598241  2 O  s                  6     -2.077473  1 C  s          
    17     -0.898735  2 O  s                 11     -0.811140  1 C  dxy        
    23      0.753872  2 O  py                26      0.683833  2 O  dxy        
    25     -0.560240  2 O  dxx                8      0.549119  1 C  py         
    22     -0.513147  2 O  px                 2      0.439558  1 C  s          

 Vector   29  Occ=0.000000D+00  E= 1.670537D+00  Symmetry=a"
              MO Center=  1.1D-01, -6.5D-01, -2.3D-17, r^2= 7.9D-01
   Bfn.  Coefficient  Atom+Function         Bfn.  Coefficient  Atom+Function  
  ----- ------------  ---------------      ----- ------------  ---------------
    27      1.629186  2 O  dxz                9     -0.369865  1 C  pz         
    29      0.370937  2 O  dyz               12      0.326517  1 C  dxz        
    14     -0.215314  1 C  dyz               35     -0.181909  6 H  s          
    37      0.181909  7 H  s                 24      0.160859  2 O  pz         
    36     -0.135082  6 H  s                 38      0.135082  7 H  s          

 Vector   30  Occ=0.000000D+00  E= 1.960549D+00  Symmetry=a'
              MO Center= -4.4D-02,  2.8D-01,  3.5D-16, r^2= 1.1D+00
   Bfn.  Coefficient  Atom+Function         Bfn.  Coefficient  Atom+Function  
  ----- ------------  ---------------      ----- ------------  ---------------
    15     -0.725456  1 C  dzz               21      0.724498  2 O  s          
    13      0.686131  1 C  dyy               17     -0.526870  2 O  s          
    30     -0.463387  2 O  dzz               22     -0.399009  2 O  px         
     6     -0.376969  1 C  s                  7      0.377732  1 C  px         
    19     -0.373101  2 O  py                35      0.368928  6 H  s          

 Vector   31  Occ=0.000000D+00  E= 2.041971D+00  Symmetry=a'
              MO Center=  7.6D-02,  3.3D-01,  3.4D-16, r^2= 1.3D+00
   Bfn.  Coefficient  Atom+Function         Bfn.  Coefficient  Atom+Function  
  ----- ------------  ---------------      ----- ------------  ---------------
    10      0.938364  1 C  dxx                7      0.729923  1 C  px         
    31     -0.679401  3 H  s                 22     -0.674042  2 O  px         
    26     -0.552482  2 O  dxy               21      0.473479  2 O  s          
    33     -0.456287  4 H  s                 13     -0.446198  1 C  dyy        
    15     -0.437958  1 C  dzz               25      0.366023  2 O  dxx        

 Vector   32  Occ=0.000000D+00  E= 2.057322D+00  Symmetry=a"
              MO Center= -3.6D-02,  2.5D-01,  4.4D-17, r^2= 1.3D+00
   Bfn.  Coefficient  Atom+Function         Bfn.  Coefficient  Atom+Function  
  ----- ------------  ---------------      ----- ------------  ---------------
    12      1.533077  1 C  dxz               29      0.944757  2 O  dyz        
     9     -0.708812  1 C  pz                27     -0.542868  2 O  dxz        
    35     -0.532862  6 H  s                 37      0.532862  7 H  s          
    24      0.359176  2 O  pz                 5     -0.130775  1 C  pz         
    20     -0.129141  2 O  pz                14      0.108303  1 C  dyz        

 Vector   33  Occ=0.000000D+00  E= 2.260917D+00  Symmetry=a'
              MO Center=  5.7D-02,  2.5D-01, -6.0D-17, r^2= 1.2D+00
   Bfn.  Coefficient  Atom+Function         Bfn.  Coefficient  Atom+Function  
  ----- ------------  ---------------      ----- ------------  ---------------
    11      1.564973  1 C  dxy               26      1.152535  2 O  dxy        
    31     -0.456842  3 H  s                 15     -0.416304  1 C  dzz        
    10      0.359589  1 C  dxx               35      0.276489  6 H  s          
    37      0.276489  7 H  s                 22      0.237597  2 O  px         
    32      0.216432  3 H  s                  6     -0.146958  1 C  s          

 Vector   34  Occ=0.000000D+00  E= 2.314005D+00  Symmetry=a"
              MO Center=  2.3D-02,  1.9D-01, -3.1D-16, r^2= 1.3D+00
   Bfn.  Coefficient  Atom+Function         Bfn.  Coefficient  Atom+Function  
  ----- ------------  ---------------      ----- ------------  ---------------
    14      1.556851  1 C  dyz               29      1.252850  2 O  dyz        
    12     -0.757883  1 C  dxz               35      0.401963  6 H  s          
    37     -0.401963  7 H  s                 24      0.237851  2 O  pz         
    36     -0.206723  6 H  s                 38      0.206723  7 H  s          
     9     -0.085876  1 C  pz                27      0.076648  2 O  dxz        

 Vector   35  Occ=0.000000D+00  E= 2.364619D+00  Symmetry=a'
              MO Center= -2.1D-02, -5.9D-01,  5.1D-16, r^2= 1.2D+00
   Bfn.  Coefficient  Atom+Function         Bfn.  Coefficient  Atom+Function  
  ----- ------------  ---------------      ----- ------------  ---------------
    21      2.112189  2 O  s                  6     -1.210359  1 C  s          
    33     -1.156917  4 H  s                 26      0.976234  2 O  dxy        
    30     -0.947907  2 O  dzz               22     -0.697920  2 O  px         
    17     -0.670223  2 O  s                 25      0.620154  2 O  dxx        
     8      0.477653  1 C  py                15      0.450652  1 C  dzz        

 Vector   36  Occ=0.000000D+00  E= 2.709847D+00  Symmetry=a'
              MO Center=  5.8D-02, -2.8D-01,  1.1D-16, r^2= 1.4D+00
   Bfn.  Coefficient  Atom+Function         Bfn.  Coefficient  Atom+Function  
  ----- ------------  ---------------      ----- ------------  ---------------
    21      2.070388  2 O  s                  6     -1.650107  1 C  s          
    23      1.514673  2 O  py                28      1.104119  2 O  dyy        
    25     -0.878812  2 O  dxx               13     -0.864244  1 C  dyy        
     8      0.818656  1 C  py                 4      0.793966  1 C  py         
    17     -0.588209  2 O  s                 10      0.518732  1 C  dxx        

 Vector   37  Occ=0.000000D+00  E= 3.613174D+00  Symmetry=a'
              MO Center=  8.2D-02, -7.4D-01, -2.5D-17, r^2= 1.1D+00
   Bfn.  Coefficient  Atom+Function         Bfn.  Coefficient  Atom+Function  
  ----- ------------  ---------------      ----- ------------  ---------------
    21      4.696927  2 O  s                 30     -1.758708  2 O  dzz        
    25     -1.692316  2 O  dxx               28     -1.514626  2 O  dyy        
     6     -1.163808  1 C  s                 23      0.637129  2 O  py         
     8      0.585542  1 C  py                34     -0.552540  4 H  s          
     2      0.528025  1 C  s                 16     -0.502011  2 O  s          

 Vector   38  Occ=0.000000D+00  E= 4.151328D+00  Symmetry=a'
              MO Center=  1.3D-02,  6.5D-01,  1.7D-16, r^2= 9.1D-01
   Bfn.  Coefficient  Atom+Function         Bfn.  Coefficient  Atom+Function  
  ----- ------------  ---------------      ----- ------------  ---------------
     2      2.879964  1 C  s                  6      2.335986  1 C  s          
    13     -2.054995  1 C  dyy               10     -1.823200  1 C  dxx        
    15     -1.829555  1 C  dzz               21     -0.784693  2 O  s          
    28      0.595630  2 O  dyy               32     -0.542546  3 H  s          
    36     -0.519353  6 H  s                 38     -0.519353  7 H  s          


 center of mass
 --------------
 x =   0.04515245 y =  -0.11939337 z =   0.00000000

 moments of inertia (a.u.)
 ------------------
          72.947473891760           0.000000000000           0.000000000000
           0.000000000000          14.178747257114           0.000000000000
           0.000000000000           0.000000000000          75.677676318842

     Multipole analysis of the density
     ---------------------------------

     L   x y z        total         alpha         beta         nuclear
     -   - - -        -----         -----         ----         -------
     0   0 0 0     -0.000000     -9.000000     -9.000000     18.000000

     1   1 0 0     -0.559690     -0.279845     -0.279845      0.000000
     1   0 1 0      0.300284      0.150142      0.150142      0.000000
     1   0 0 1     -0.000000     -0.000000     -0.000000      0.000000

     2   2 0 0     -8.715559     -8.474035     -8.474035      8.232512
     2   1 1 0      1.573035      0.014357      0.014357      1.544320
     2   1 0 1     -0.000000     -0.000000     -0.000000      0.000000
     2   0 2 0     -9.468067    -25.625220    -25.625220     41.782373
     2   0 1 1     -0.000000     -0.000000     -0.000000      0.000000
     2   0 0 2    -10.044285     -7.862056     -7.862056      5.679828


            General Information
            -------------------
          SCF calculation type: DFT
          Wavefunction type:  closed shell.
          No. of atoms     :     7
          No. of electrons :    18
           Alpha electrons :     9
            Beta electrons :     9
          Charge           :     0
          Spin multiplicity:     1
          Use of symmetry is: on ; symmetry adaption is: on 
          Maximum number of iterations:  30
          AO basis - number of functions:    38
                     number of shells:    20
          Convergence on energy requested:  1.00D-06
          Convergence on density requested:  1.00D-05
          Convergence on gradient requested:  5.00D-04

              XC Information
              --------------
                        Slater Exchange Functional  1.052 local    
                      OPTX     Exchange Functional  1.432 non-local
              Lee-Yang-Parr Correlation Functional  1.000          

             Grid Information
             ----------------
          Grid used for XC integration:  medium    
          Radial quadrature: Mura-Knowles        
          Angular quadrature: Lebedev. 
          Tag              B.-S. Rad. Rad. Pts. Rad. Cut. Ang. Pts.
          ---              ---------- --------- --------- ---------
          C                   0.70       49           7.0       434
          O                   0.60       49           7.0       434
          H                   0.35       45           8.0       434
          X                   0.00        0           0.0         0
          Grid pruning is: on 
          Number of quadrature shells:   233
          Spatial weights used:  Erf1

          Convergence Information
          -----------------------
          Convergence aids based upon iterative change in 
          total energy or number of iterations. 
          Levelshifting, if invoked, occurs when the 
          HOMO/LUMO gap drops below (HL_TOL):  1.00D-02
          DIIS, if invoked, will attempt to extrapolate 
          using up to (NFOCK): 10 stored Fock matrices.

                    Damping( 0%)  Levelshifting(0.5)       DIIS
                  --------------- ------------------- ---------------
          dE  on:    start            ASAP                start   
          dE off:    2 iters         30 iters            30 iters 


      Screening Tolerance Information
      -------------------------------
          Density screening/tol_rho:  1.00D-10
          AO Gaussian exp screening on grid/accAOfunc:  14
          CD Gaussian exp screening on grid/accCDfunc:  20
          XC Gaussian exp screening on grid/accXCfunc:  20
          Schwarz screening/accCoul:  1.00D-08



                            NWChem DFT Gradient Module
                            --------------------------


                                  Test with OLYP



  charge          =   0.00
  wavefunction    = closed shell

  Using symmetry


                         DFT ENERGY GRADIENTS

    atom               coordinates                        gradient
                 x          y          z           x          y          z
   1 C       0.020882   1.258494   0.000000    0.001585   0.009559   0.000000
   2 O       0.166629  -1.426520   0.000000   -0.003292   0.000542   0.000000
   3 H       1.963094   1.941885   0.000000   -0.004684  -0.002313   0.000000
   4 H      -1.550358  -2.068370   0.000000    0.001687  -0.000698   0.000000
   5 X      -1.477230   2.410330   0.000000    0.000000   0.000000   0.000000
   6 H      -0.935529   1.993839  -1.685204    0.002352  -0.003545   0.004330
   7 H      -0.935529   1.993839   1.685204    0.002352  -0.003545  -0.004330

                 ----------------------------------------
                 |  Time  |  1-e(secs)   |  2-e(secs)   |
                 ----------------------------------------
                 |  CPU   |       0.00   |       0.31   |
                 ----------------------------------------
                 |  WALL  |       0.00   |       0.31   |
                 ----------------------------------------

@ Step       Energy      Delta E   Gmax     Grms     Xrms     Xmax   Walltime
@ ---- ---------------- -------- -------- -------- -------- -------- --------
@    0    -115.66841887  0.0D+00  0.00586  0.00267  0.00000  0.00000      1.7
                                                                    



                                Z-matrix (user)
                                -------- 

 Units are Angstrom for bonds and degrees for angles

  Constrained variables are marked with a plus sign (+).


      Type          Name      I     J     K     L     M      Value     Gradient
      ----------- --------  ----- ----- ----- ----- ----- ---------- ----------
    1 Stretch      AB          2     1                       1.42294    0.00007
    2 Stretch      AH3         3     1                       1.08954   -0.00519
    3 Bend         H3AB        3     1     2               106.27799   -0.00068
    4 Stretch      BH9         4     2                       0.97000   -0.00134
    5 Bend         H9BA        4     2     1               107.38990    0.00121
    6 Torsion                  4     2     1     3         180.00000    0.00000
    7 Stretch                  5     1                       1.00000    0.00000
    8 Bend         BAH12       5     1     2               130.66223   -0.00176
    9 Torsion                  5     1     2     3         180.00000    0.00000
   10+Stretch      AH1         6     1                       1.09673   -0.00586
   11+Bend         H1AH2       6     1     5                54.40149    0.00083
   12 Torsion                  6     1     5     2          90.00000   -0.00123
   13+Stretch      AH1         7     1                       1.09673   -0.00586
   14+Bend         H1AH2       7     1     5                54.40149    0.00083
   15 Torsion                  7     1     5     2         -90.00000    0.00123


                                 NWChem DFT Module
                                 -----------------


                                  Test with OLYP




 Summary of "ao basis" -> "ao basis" (cartesian)
 ------------------------------------------------------------------------------
       Tag                 Description            Shells   Functions and Types
 ---------------- ------------------------------  ------  ---------------------
 C                           6-31G*                  6       15   3s2p1d
 H                           6-31G*                  2        2   2s
 O                           6-31G*                  6       15   3s2p1d


      Symmetry analysis of basis
      --------------------------

        a'         28
        a"         10

  Caching 1-el integrals 

            General Information
            -------------------
          SCF calculation type: DFT
          Wavefunction type:  closed shell.
          No. of atoms     :     7
          No. of electrons :    18
           Alpha electrons :     9
            Beta electrons :     9
          Charge           :     0
          Spin multiplicity:     1
          Use of symmetry is: on ; symmetry adaption is: on 
          Maximum number of iterations:  30
          AO basis - number of functions:    38
                     number of shells:    20
          Convergence on energy requested:  1.00D-06
          Convergence on density requested:  1.00D-05
          Convergence on gradient requested:  5.00D-04

              XC Information
              --------------
                        Slater Exchange Functional  1.052 local    
                      OPTX     Exchange Functional  1.432 non-local
              Lee-Yang-Parr Correlation Functional  1.000          

             Grid Information
             ----------------
          Grid used for XC integration:  medium    
          Radial quadrature: Mura-Knowles        
          Angular quadrature: Lebedev. 
          Tag              B.-S. Rad. Rad. Pts. Rad. Cut. Ang. Pts.
          ---              ---------- --------- --------- ---------
          C                   0.70       49           7.0       434
          O                   0.60       49           7.0       434
          H                   0.35       45           8.0       434
          X                   0.00        0           0.0         0
          Grid pruning is: on 
          Number of quadrature shells:   233
          Spatial weights used:  Erf1

          Convergence Information
          -----------------------
          Convergence aids based upon iterative change in 
          total energy or number of iterations. 
          Levelshifting, if invoked, occurs when the 
          HOMO/LUMO gap drops below (HL_TOL):  1.00D-02
          DIIS, if invoked, will attempt to extrapolate 
          using up to (NFOCK): 10 stored Fock matrices.

                    Damping( 0%)  Levelshifting(0.5)       DIIS
                  --------------- ------------------- ---------------
          dE  on:    start            ASAP                start   
          dE off:    2 iters         30 iters            30 iters 


      Screening Tolerance Information
      -------------------------------
          Density screening/tol_rho:  1.00D-10
          AO Gaussian exp screening on grid/accAOfunc:  14
          CD Gaussian exp screening on grid/accCDfunc:  20
          XC Gaussian exp screening on grid/accXCfunc:  20
          Schwarz screening/accCoul:  1.00D-08


 Loading old vectors from job with title :

Test with OLYP


      Symmetry analysis of molecular orbitals - initial
      -------------------------------------------------

  Numbering of irreducible representations: 

     1 a'          2 a"      

  Orbital symmetries:

     1 a'          2 a'          3 a'          4 a'          5 a'      
     6 a"          7 a'          8 a'          9 a"         10 a'      
    11 a'         12 a'         13 a"         14 a'         15 a'      
    16 a'         17 a"         18 a'         19 a"      

   Time after variat. SCF:      1.7
   Time prior to 1st pass:      1.7

 Grid_pts file          = ./bett.gridpts.0
 Record size in doubles =  12289        No. of grid_pts per rec  =   3070
 Max. records in memory =     20        Max. recs in file   = 506625431


           Memory utilization after 1st SCF pass: 
           Heap Space remaining (MW):      125.04           125038658
          Stack Space remaining (MW):      208.70           208704140

   convergence    iter        energy       DeltaE   RMS-Dens  Diis-err    time
 ---------------- ----- ----------------- --------- --------- ---------  ------
 d= 0,ls=0.0,diis     1   -115.6684104485 -1.56D+02  9.09D-04  6.71D-04     1.9
 d= 0,ls=0.0,diis     2   -115.6684876770 -7.72D-05  4.36D-04  3.65D-04     2.1
 d= 0,ls=0.0,diis     3   -115.6685208651 -3.32D-05  1.63D-04  1.03D-04     2.2
 d= 0,ls=0.0,diis     4   -115.6685317406 -1.09D-05  5.11D-05  6.44D-06     2.4
 d= 0,ls=0.0,diis     5   -115.6685323878 -6.47D-07  9.16D-06  2.74D-07     2.5


         Total DFT energy =     -115.668532387788
      One electron energy =     -236.571455155231
           Coulomb energy =       96.291912525334
    Exchange-Corr. energy =      -15.460728792658
 Nuclear repulsion energy =       40.071739034767

 Numeric. integr. density =       17.999997235040

     Total iterative time =      0.8s



                  Occupations of the irreducible representations
                  ----------------------------------------------

                     irrep           alpha         beta
                     --------     --------     --------
                     a'                7.0          7.0
                     a"                2.0          2.0


                       DFT Final Molecular Orbital Analysis
                       ------------------------------------

 Vector    1  Occ=2.000000D+00  E=-1.877414D+01  Symmetry=a'
              MO Center=  9.2D-02, -7.7D-01,  1.8D-20, r^2= 1.5D-02
   Bfn.  Coefficient  Atom+Function         Bfn.  Coefficient  Atom+Function  
  ----- ------------  ---------------      ----- ------------  ---------------
    16      0.993072  2 O  s                 17      0.025997  2 O  s          

 Vector    2  Occ=2.000000D+00  E=-9.947567D+00  Symmetry=a'
              MO Center=  5.4D-03,  6.5D-01, -1.1D-17, r^2= 2.8D-02
   Bfn.  Coefficient  Atom+Function         Bfn.  Coefficient  Atom+Function  
  ----- ------------  ---------------      ----- ------------  ---------------
     1      0.993752  1 C  s                  2      0.044031  1 C  s          

 Vector    3  Occ=2.000000D+00  E=-9.240292D-01  Symmetry=a'
              MO Center= -7.5D-02, -5.8D-01,  3.4D-16, r^2= 5.9D-01
   Bfn.  Coefficient  Atom+Function         Bfn.  Coefficient  Atom+Function  
  ----- ------------  ---------------      ----- ------------  ---------------
    17      0.454664  2 O  s                 21      0.414069  2 O  s          
    16     -0.201035  2 O  s                  2      0.136602  1 C  s          
    33      0.132910  4 H  s                  4     -0.103454  1 C  py         
    18     -0.102743  2 O  px                 1     -0.073227  1 C  s          
    19      0.067397  2 O  py                 6      0.060643  1 C  s          

 Vector    4  Occ=2.000000D+00  E=-6.093909D-01  Symmetry=a'
              MO Center= -4.9D-03,  4.7D-01, -4.3D-16, r^2= 1.5D+00
   Bfn.  Coefficient  Atom+Function         Bfn.  Coefficient  Atom+Function  
  ----- ------------  ---------------      ----- ------------  ---------------
     2      0.357451  1 C  s                  6      0.333709  1 C  s          
     1     -0.178921  1 C  s                 19      0.177909  2 O  py         
    21     -0.163480  2 O  s                 31      0.141617  3 H  s          
    17     -0.138113  2 O  s                 35      0.130605  6 H  s          
    37      0.130605  7 H  s                 33     -0.121572  4 H  s          

 Vector    5  Occ=2.000000D+00  E=-4.450457D-01  Symmetry=a'
              MO Center= -1.5D-01, -1.1D-01, -2.3D-18, r^2= 1.5D+00
   Bfn.  Coefficient  Atom+Function         Bfn.  Coefficient  Atom+Function  
  ----- ------------  ---------------      ----- ------------  ---------------
    18      0.323985  2 O  px                19      0.283301  2 O  py         
     4     -0.251775  1 C  py                33     -0.211308  4 H  s          
     3      0.194182  1 C  px                22      0.166055  2 O  px         
    21      0.138753  2 O  s                 23      0.133566  2 O  py         
    34     -0.132557  4 H  s                 35     -0.119131  6 H  s          

 Vector    6  Occ=2.000000D+00  E=-3.740133D-01  Symmetry=a"
              MO Center= -1.7D-01,  5.8D-01,  2.2D-15, r^2= 1.4D+00
   Bfn.  Coefficient  Atom+Function         Bfn.  Coefficient  Atom+Function  
  ----- ------------  ---------------      ----- ------------  ---------------
     5      0.430260  1 C  pz                20      0.233690  2 O  pz         
    35     -0.209007  6 H  s                 37      0.209007  7 H  s          
     9      0.191560  1 C  pz                36     -0.163516  6 H  s          
    38      0.163516  7 H  s                 24      0.145203  2 O  pz         
    12     -0.025810  1 C  dxz        

 Vector    7  Occ=2.000000D+00  E=-3.625158D-01  Symmetry=a'
              MO Center=  2.9D-01,  2.3D-01, -3.2D-15, r^2= 1.5D+00
   Bfn.  Coefficient  Atom+Function         Bfn.  Coefficient  Atom+Function  
  ----- ------------  ---------------      ----- ------------  ---------------
    19     -0.334276  2 O  py                 3      0.329508  1 C  px         
     4      0.248624  1 C  py                31      0.239720  3 H  s          
    23     -0.196242  2 O  py                 7      0.177110  1 C  px         
    32      0.174225  3 H  s                 21      0.136566  2 O  s          
    18      0.121232  2 O  px                 8      0.105759  1 C  py         

 Vector    8  Occ=2.000000D+00  E=-2.778443D-01  Symmetry=a'
              MO Center=  1.6D-01, -2.1D-01,  1.3D-15, r^2= 1.7D+00
   Bfn.  Coefficient  Atom+Function         Bfn.  Coefficient  Atom+Function  
  ----- ------------  ---------------      ----- ------------  ---------------
    18      0.409476  2 O  px                21      0.331285  2 O  s          
    22      0.270256  2 O  px                 3     -0.258869  1 C  px         
    19     -0.217765  2 O  py                31     -0.177869  3 H  s          
    32     -0.177949  3 H  s                 33     -0.157720  4 H  s          
    23     -0.156543  2 O  py                17      0.143402  2 O  s          

 Vector    9  Occ=2.000000D+00  E=-2.071291D-01  Symmetry=a"
              MO Center= -1.2D-02, -4.2D-01, -4.5D-17, r^2= 1.3D+00
   Bfn.  Coefficient  Atom+Function         Bfn.  Coefficient  Atom+Function  
  ----- ------------  ---------------      ----- ------------  ---------------
    20      0.603357  2 O  pz                24      0.464930  2 O  pz         
    36      0.195327  6 H  s                 38     -0.195327  7 H  s          
     5     -0.155452  1 C  pz                35      0.144304  6 H  s          
    37     -0.144304  7 H  s                 14     -0.059452  1 C  dyz        
    27     -0.044080  2 O  dxz        

 Vector   10  Occ=0.000000D+00  E= 4.976641D-02  Symmetry=a'
              MO Center= -8.1D-01, -7.3D-01,  2.4D-16, r^2= 2.5D+00
   Bfn.  Coefficient  Atom+Function         Bfn.  Coefficient  Atom+Function  
  ----- ------------  ---------------      ----- ------------  ---------------
    34      1.269073  4 H  s                 21     -1.130587  2 O  s          
     6     -0.504946  1 C  s                  8     -0.504865  1 C  py         
    22      0.481124  2 O  px                36      0.384613  6 H  s          
    38      0.384613  7 H  s                 18      0.280329  2 O  px         
    32      0.231458  3 H  s                  4     -0.200238  1 C  py         

 Vector   11  Occ=0.000000D+00  E= 1.063740D-01  Symmetry=a'
              MO Center= -9.9D-02,  1.0D+00, -1.3D-14, r^2= 3.6D+00
   Bfn.  Coefficient  Atom+Function         Bfn.  Coefficient  Atom+Function  
  ----- ------------  ---------------      ----- ------------  ---------------
     6      2.413609  1 C  s                 36     -1.116943  6 H  s          
    38     -1.116943  7 H  s                 32     -1.020245  3 H  s          
    21     -0.622925  2 O  s                 34      0.383936  4 H  s          
    23     -0.239372  2 O  py                 2      0.220272  1 C  s          
     8      0.203292  1 C  py                22      0.173003  2 O  px         

 Vector   12  Occ=0.000000D+00  E= 1.403841D-01  Symmetry=a'
              MO Center=  4.6D-01,  8.2D-01,  8.9D-15, r^2= 2.8D+00
   Bfn.  Coefficient  Atom+Function         Bfn.  Coefficient  Atom+Function  
  ----- ------------  ---------------      ----- ------------  ---------------
    32      1.693651  3 H  s                  7     -1.144624  1 C  px         
    36     -0.586120  6 H  s                 38     -0.586120  7 H  s          
     8     -0.535380  1 C  py                 3     -0.405463  1 C  px         
    34     -0.379311  4 H  s                 23     -0.307309  2 O  py         
    19     -0.192399  2 O  py                 4     -0.161055  1 C  py         

 Vector   13  Occ=0.000000D+00  E= 1.529492D-01  Symmetry=a"
              MO Center= -4.5D-01,  1.0D+00,  7.3D-15, r^2= 2.7D+00
   Bfn.  Coefficient  Atom+Function         Bfn.  Coefficient  Atom+Function  
  ----- ------------  ---------------      ----- ------------  ---------------
    36      1.479381  6 H  s                 38     -1.479381  7 H  s          
     9      1.284723  1 C  pz                 5      0.475583  1 C  pz         
    24     -0.241835  2 O  pz                20     -0.118220  2 O  pz         
    35      0.086239  6 H  s                 37     -0.086239  7 H  s          
    12      0.033081  1 C  dxz        

 Vector   14  Occ=0.000000D+00  E= 1.746508D-01  Symmetry=a'
              MO Center= -1.9D-02,  2.9D-01, -2.6D-15, r^2= 2.6D+00
   Bfn.  Coefficient  Atom+Function         Bfn.  Coefficient  Atom+Function  
  ----- ------------  ---------------      ----- ------------  ---------------
     8      1.196755  1 C  py                34      0.786657  4 H  s          
    23      0.760398  2 O  py                 7     -0.648619  1 C  px         
    32      0.631473  3 H  s                 21      0.603487  2 O  s          
     6     -0.572979  1 C  s                 36     -0.551517  6 H  s          
    38     -0.551517  7 H  s                 19      0.373995  2 O  py         

 Vector   15  Occ=0.000000D+00  E= 5.057554D-01  Symmetry=a'
              MO Center=  7.5D-02,  6.4D-01, -1.4D-15, r^2= 1.9D+00
   Bfn.  Coefficient  Atom+Function         Bfn.  Coefficient  Atom+Function  
  ----- ------------  ---------------      ----- ------------  ---------------
     8      1.529247  1 C  py                 4     -0.905078  1 C  py         
    21      0.883790  2 O  s                  6     -0.548501  1 C  s          
     2      0.372418  1 C  s                  7     -0.329737  1 C  px         
    23      0.300390  2 O  py                34      0.290171  4 H  s          
    19     -0.281636  2 O  py                35     -0.163720  6 H  s          

 Vector   16  Occ=0.000000D+00  E= 5.515737D-01  Symmetry=a'
              MO Center= -2.8D-01,  5.7D-01, -1.1D-16, r^2= 2.1D+00
   Bfn.  Coefficient  Atom+Function         Bfn.  Coefficient  Atom+Function  
  ----- ------------  ---------------      ----- ------------  ---------------
     7      1.590058  1 C  px                 3     -0.719376  1 C  px         
    31     -0.489549  3 H  s                  8      0.367969  1 C  py         
    32     -0.367833  3 H  s                  4     -0.255372  1 C  py         
    21      0.227843  2 O  s                 35      0.201982  6 H  s          
    37      0.201982  7 H  s                 17     -0.183177  2 O  s          

 Vector   17  Occ=0.000000D+00  E= 5.637054D-01  Symmetry=a"
              MO Center=  2.2D-01,  5.4D-01,  4.8D-16, r^2= 2.1D+00
   Bfn.  Coefficient  Atom+Function         Bfn.  Coefficient  Atom+Function  
  ----- ------------  ---------------      ----- ------------  ---------------
     9      1.663074  1 C  pz                 5     -0.715776  1 C  pz         
    35      0.413477  6 H  s                 37     -0.413477  7 H  s          
    36      0.347775  6 H  s                 38     -0.347775  7 H  s          
    20     -0.249736  2 O  pz                12      0.190397  1 C  dxz        
    24     -0.140044  2 O  pz                14     -0.073485  1 C  dyz        

 Vector   18  Occ=0.000000D+00  E= 7.343018D-01  Symmetry=a'
              MO Center= -3.0D-01, -4.7D-01,  1.2D-15, r^2= 2.5D+00
   Bfn.  Coefficient  Atom+Function         Bfn.  Coefficient  Atom+Function  
  ----- ------------  ---------------      ----- ------------  ---------------
     7      0.984046  1 C  px                32     -0.938280  3 H  s          
    33     -0.919004  4 H  s                 34      0.760441  4 H  s          
    36      0.505930  6 H  s                 38      0.505930  7 H  s          
     3     -0.460665  1 C  px                18     -0.341710  2 O  px         
    23     -0.331412  2 O  py                35     -0.301726  6 H  s          

 Vector   19  Occ=0.000000D+00  E= 8.008996D-01  Symmetry=a"
              MO Center= -3.7D-01,  9.4D-01, -1.1D-15, r^2= 2.2D+00
   Bfn.  Coefficient  Atom+Function         Bfn.  Coefficient  Atom+Function  
  ----- ------------  ---------------      ----- ------------  ---------------
     9      1.496991  1 C  pz                36      1.496478  6 H  s          
    38     -1.496478  7 H  s                  5     -0.841447  1 C  pz         
    35     -0.666972  6 H  s                 37      0.666972  7 H  s          
    24     -0.303666  2 O  pz                14      0.248470  1 C  dyz        
    12     -0.212892  1 C  dxz               20      0.187376  2 O  pz         

 Vector   20  Occ=0.000000D+00  E= 8.193157D-01  Symmetry=a'
              MO Center=  3.4D-01,  2.5D-01,  1.2D-15, r^2= 2.7D+00
   Bfn.  Coefficient  Atom+Function         Bfn.  Coefficient  Atom+Function  
  ----- ------------  ---------------      ----- ------------  ---------------
    32      1.416647  3 H  s                  7     -1.172333  1 C  px         
    31     -0.729874  3 H  s                  3      0.669671  1 C  px         
    36     -0.647283  6 H  s                 38     -0.647283  7 H  s          
    18     -0.526685  2 O  px                22      0.512400  2 O  px         
    33     -0.381398  4 H  s                 34      0.362066  4 H  s          

 Vector   21  Occ=0.000000D+00  E= 8.480286D-01  Symmetry=a'
              MO Center= -8.2D-02,  8.2D-01,  3.1D-16, r^2= 2.2D+00
   Bfn.  Coefficient  Atom+Function         Bfn.  Coefficient  Atom+Function  
  ----- ------------  ---------------      ----- ------------  ---------------
     6      1.105868  1 C  s                 21     -0.790219  2 O  s          
    35      0.710342  6 H  s                 37      0.710342  7 H  s          
    36     -0.692959  6 H  s                 38     -0.692959  7 H  s          
    31      0.611054  3 H  s                 32     -0.551528  3 H  s          
     2     -0.548769  1 C  s                  4     -0.406863  1 C  py         

 Vector   22  Occ=0.000000D+00  E= 9.140210D-01  Symmetry=a'
              MO Center=  1.8D-01, -6.6D-01,  2.6D-14, r^2= 2.5D+00
   Bfn.  Coefficient  Atom+Function         Bfn.  Coefficient  Atom+Function  
  ----- ------------  ---------------      ----- ------------  ---------------
     6      1.960676  1 C  s                 21      1.425899  2 O  s          
    17     -0.842078  2 O  s                 34     -0.813228  4 H  s          
     2     -0.723835  1 C  s                 23     -0.699083  2 O  py         
    32     -0.671662  3 H  s                 19      0.457872  2 O  py         
    33      0.446504  4 H  s                 22      0.410775  2 O  px         

 Vector   23  Occ=0.000000D+00  E= 9.461269D-01  Symmetry=a"
              MO Center=  1.0D-01, -7.0D-01, -3.0D-14, r^2= 1.5D+00
   Bfn.  Coefficient  Atom+Function         Bfn.  Coefficient  Atom+Function  
  ----- ------------  ---------------      ----- ------------  ---------------
    24      1.203197  2 O  pz                20     -0.906830  2 O  pz         
     9     -0.625096  1 C  pz                12     -0.229285  1 C  dxz        
    35     -0.215427  6 H  s                 37      0.215427  7 H  s          
    29     -0.138266  2 O  dyz               27     -0.066475  2 O  dxz        
    36     -0.036833  6 H  s                 38      0.036833  7 H  s          

 Vector   24  Occ=0.000000D+00  E= 9.897114D-01  Symmetry=a'
              MO Center=  2.5D-02,  3.2D-01, -4.6D-16, r^2= 2.7D+00
   Bfn.  Coefficient  Atom+Function         Bfn.  Coefficient  Atom+Function  
  ----- ------------  ---------------      ----- ------------  ---------------
     6      3.655351  1 C  s                  2     -1.643385  1 C  s          
    36     -0.993360  6 H  s                 38     -0.993360  7 H  s          
    32     -0.974896  3 H  s                  8      0.824572  1 C  py         
    23      0.664946  2 O  py                19     -0.508296  2 O  py         
    34      0.285431  4 H  s                 31     -0.209732  3 H  s          

 Vector   25  Occ=0.000000D+00  E= 1.072132D+00  Symmetry=a'
              MO Center= -2.3D-02, -5.5D-01,  3.4D-15, r^2= 1.9D+00
   Bfn.  Coefficient  Atom+Function         Bfn.  Coefficient  Atom+Function  
  ----- ------------  ---------------      ----- ------------  ---------------
     6      1.361239  1 C  s                 22     -1.343757  2 O  px         
    34     -0.951337  4 H  s                 23     -0.905787  2 O  py         
    21      0.837457  2 O  s                 18      0.706163  2 O  px         
     2     -0.461091  1 C  s                 17     -0.422902  2 O  s          
    19      0.346214  2 O  py                31     -0.340039  3 H  s          

 Vector   26  Occ=0.000000D+00  E= 1.408876D+00  Symmetry=a'
              MO Center=  2.5D-02, -4.7D-02, -3.7D-16, r^2= 1.8D+00
   Bfn.  Coefficient  Atom+Function         Bfn.  Coefficient  Atom+Function  
  ----- ------------  ---------------      ----- ------------  ---------------
     6      3.610083  1 C  s                 21     -3.136245  2 O  s          
    23     -1.309850  2 O  py                17      1.059712  2 O  s          
     2     -0.940018  1 C  s                  8     -0.779755  1 C  py         
    26      0.641824  2 O  dxy               11     -0.597521  1 C  dxy        
    32     -0.547627  3 H  s                 28      0.517009  2 O  dyy        

 Vector   27  Occ=0.000000D+00  E= 1.433830D+00  Symmetry=a"
              MO Center=  5.3D-02,  1.4D-01,  7.4D-16, r^2= 1.1D+00
   Bfn.  Coefficient  Atom+Function         Bfn.  Coefficient  Atom+Function  
  ----- ------------  ---------------      ----- ------------  ---------------
    14      1.054983  1 C  dyz               29     -0.886402  2 O  dyz        
    12      0.743779  1 C  dxz               27      0.261868  2 O  dxz        
     5      0.169632  1 C  pz                36     -0.144618  6 H  s          
    38      0.144618  7 H  s                 24      0.136264  2 O  pz         
[...]
 C                           6-31G*                  6       15   3s2p1d
 H                           6-31G*                  2        2   2s
 O                           6-31G*                  6       15   3s2p1d


      Symmetry analysis of basis
      --------------------------

        a'         28
        a"         10


  The DFT is already converged 

         Total DFT energy =   -115.714405091714


            General Information
            -------------------
          SCF calculation type: DFT
          Wavefunction type:  closed shell.
          No. of atoms     :     7
          No. of electrons :    18
           Alpha electrons :     9
            Beta electrons :     9
          Charge           :     0
          Spin multiplicity:     1
          Use of symmetry is: on ; symmetry adaption is: on 
          Maximum number of iterations:  30
          AO basis - number of functions:    38
                     number of shells:    20
          Convergence on energy requested:  1.00D-06
          Convergence on density requested:  1.00D-05
          Convergence on gradient requested:  5.00D-04

              XC Information
              --------------
                         B3LYP Method XC Potential
                     Hartree-Fock (Exact) Exchange  0.200          
                        Slater Exchange Functional  0.800 local    
                    Becke 1988 Exchange Functional  0.720 non-local
              Lee-Yang-Parr Correlation Functional  0.810          
                  VWN I RPA Correlation Functional  0.190 local    

             Grid Information
             ----------------
          Grid used for XC integration:  medium    
          Radial quadrature: Mura-Knowles        
          Angular quadrature: Lebedev. 
          Tag              B.-S. Rad. Rad. Pts. Rad. Cut. Ang. Pts.
          ---              ---------- --------- --------- ---------
          C                   0.70       49           7.0       434
          O                   0.60       49           7.0       434
          H                   0.35       45           8.0       434
          X                   0.00        0           0.0         0
          Grid pruning is: on 
          Number of quadrature shells:   233
          Spatial weights used:  Erf1

          Convergence Information
          -----------------------
          Convergence aids based upon iterative change in 
          total energy or number of iterations. 
          Levelshifting, if invoked, occurs when the 
          HOMO/LUMO gap drops below (HL_TOL):  1.00D-02
          DIIS, if invoked, will attempt to extrapolate 
          using up to (NFOCK): 10 stored Fock matrices.

                    Damping( 0%)  Levelshifting(0.5)       DIIS
                  --------------- ------------------- ---------------
          dE  on:    start            ASAP                start   
          dE off:    2 iters         30 iters            30 iters 


      Screening Tolerance Information
      -------------------------------
          Density screening/tol_rho:  1.00D-10
          AO Gaussian exp screening on grid/accAOfunc:  14
          CD Gaussian exp screening on grid/accCDfunc:  20
          XC Gaussian exp screening on grid/accXCfunc:  20
          Schwarz screening/accCoul:  1.00D-08



                            NWChem DFT Gradient Module
                            --------------------------


                                  Test with B3LYP



  charge          =   0.00
  wavefunction    = closed shell

  Using symmetry


                         DFT ENERGY GRADIENTS

    atom               coordinates                        gradient
                 x          y          z           x          y          z
   1 C       0.020032   1.248853   0.000000    0.000031   0.000008   0.000000
   2 O       0.163028  -1.428087   0.000000    0.000162   0.000088   0.000000
   3 H       1.964507   1.947188   0.000000   -0.000065  -0.000022   0.000000
   4 H      -1.549553  -2.075556   0.000000   -0.000161  -0.000048   0.000000
   5 X      -1.473397   2.406743   0.000000    0.000000   0.000000   0.000000
   6 H      -0.936328   2.002178  -1.687745    0.000017  -0.000013   0.000034
   7 H      -0.936328   2.002178   1.687745    0.000017  -0.000013  -0.000034

                 ----------------------------------------
                 |  Time  |  1-e(secs)   |  2-e(secs)   |
                 ----------------------------------------
                 |  CPU   |       0.00   |       0.31   |
                 ----------------------------------------
                 |  WALL  |       0.00   |       0.31   |
                 ----------------------------------------

  Step       Energy      Delta E   Gmax     Grms     Xrms     Xmax   Walltime
  ---- ---------------- -------- -------- -------- -------- -------- --------
@    2    -115.71440509 -5.1D-07  0.00017  0.00005  0.00050  0.00112     11.9
                                     ok       ok       ok       ok  



                                Z-matrix (user)
                                -------- 

 Units are Angstrom for bonds and degrees for angles

  Constrained variables are marked with a plus sign (+).


      Type          Name      I     J     K     L     M      Value     Gradient
      ----------- --------  ----- ----- ----- ----- ----- ---------- ----------
    1 Stretch      AB          2     1                       1.41860   -0.00004
    2 Stretch      AH3         3     1                       1.09332   -0.00007
    3 Bend         H3AB        3     1     2               106.69743    0.00000
    4 Stretch      BH9         4     2                       0.96886    0.00017
    5 Bend         H9BA        4     2     1               107.65221   -0.00001
    6 Torsion                  4     2     1     3         180.00000   -0.00000
    7 Stretch                  5     1                       1.00000    0.00000
    8 Bend         BAH12       5     1     2               130.84493   -0.00000
    9 Torsion                  5     1     2     3         180.00000   -0.00000
   10+Stretch      AH1         6     1                       1.10122   -0.00004
   11+Bend         H1AH2       6     1     5                54.19710   -0.00000
   12 Torsion                  6     1     5     2          90.31758   -0.00000
   13+Stretch      AH1         7     1                       1.10122   -0.00004
   14+Bend         H1AH2       7     1     5                54.19710   -0.00000
   15 Torsion                  7     1     5     2         -90.31758    0.00000


      ----------------------
      Optimization converged
      ----------------------


  Step       Energy      Delta E   Gmax     Grms     Xrms     Xmax   Walltime
  ---- ---------------- -------- -------- -------- -------- -------- --------
@    2    -115.71440509 -5.1D-07  0.00017  0.00005  0.00050  0.00112     11.9
                                     ok       ok       ok       ok  



                                Z-matrix (user)
                                -------- 

 Units are Angstrom for bonds and degrees for angles

  Constrained variables are marked with a plus sign (+).


      Type          Name      I     J     K     L     M      Value     Gradient
      ----------- --------  ----- ----- ----- ----- ----- ---------- ----------
    1 Stretch      AB          2     1                       1.41860   -0.00004
    2 Stretch      AH3         3     1                       1.09332   -0.00007
    3 Bend         H3AB        3     1     2               106.69743    0.00000
    4 Stretch      BH9         4     2                       0.96886    0.00017
    5 Bend         H9BA        4     2     1               107.65221   -0.00001
    6 Torsion                  4     2     1     3         180.00000   -0.00000
    7 Stretch                  5     1                       1.00000    0.00000
    8 Bend         BAH12       5     1     2               130.84493   -0.00000
    9 Torsion                  5     1     2     3         180.00000   -0.00000
   10+Stretch      AH1         6     1                       1.10122   -0.00004
   11+Bend         H1AH2       6     1     5                54.19710   -0.00000
   12 Torsion                  6     1     5     2          90.31758   -0.00000
   13+Stretch      AH1         7     1                       1.10122   -0.00004
   14+Bend         H1AH2       7     1     5                54.19710   -0.00000
   15 Torsion                  7     1     5     2         -90.31758    0.00000



                         Geometry "geometry" -> "geometry"
                         ---------------------------------

 Output coordinates in angstroms (scale by  1.889725989 to convert to a.u.)

  No.       Tag          Charge          X              Y              Z
 ---- ---------------- ---------- -------------- -------------- --------------
    1 C                    6.0000     0.01060045     0.66086475     0.00000000
    2 O                    8.0000     0.08627066    -0.75571130     0.00000000
    3 H                    1.0000     1.03957231     1.03040752     0.00000000
    4 H                    1.0000    -0.81998807    -1.09833709     0.00000000
    5 X                    0.0000    -0.77968836     1.27359345     0.00000000
    6 H                    1.0000    -0.49548364     1.05950711    -0.89311644
    7 H                    1.0000    -0.49548364     1.05950711     0.89311644

      Atomic Mass 
      ----------- 

      C                 12.000000
      O                 15.994910
      H                  1.007825


 Effective nuclear repulsion energy (a.u.)      40.2188058224

            Nuclear Dipole moment (a.u.) 
            ----------------------------
        X                 Y               Z
 ---------------- ---------------- ----------------
    -0.0332875800    -0.0555904508     0.0000000000

      Symmetry information
      --------------------

 Group name             Cs        
 Group number              2
 Group order               2
 No. of unique centers     6

      Symmetry unique atoms

     1    2    3    4    5    6


                Final and change from initial internal coordinates
                --------------------------------------------------



                                Z-matrix (user)
                                -------- 

 Units are Angstrom for bonds and degrees for angles

  Constrained variables are marked with a plus sign (+).


      Type          Name      I     J     K     L     M      Value       Change
      ----------- --------  ----- ----- ----- ----- ----- ---------- ----------
    1 Stretch      AB          2     1                       1.41860   -0.00132
    2 Stretch      AH3         3     1                       1.09332   -0.00455
    3 Bend         H3AB        3     1     2               106.69743    0.16323
    4 Stretch      BH9         4     2                       0.96886   -0.00282
    5 Bend         H9BA        4     2     1               107.65221    0.90370
    6 Torsion                  4     2     1     3         180.00000    0.00000
    7 Stretch                  5     1                       1.00000   -0.00000
    8 Bend         BAH12       5     1     2               130.84493   -0.17029
    9 Torsion                  5     1     2     3         180.00000    0.00000
   10+Stretch      AH1         6     1                       1.10122   -0.00545
   11+Bend         H1AH2       6     1     5                54.19710    0.10434
   12 Torsion                  6     1     5     2          90.31758   -0.30011
   13+Stretch      AH1         7     1                       1.10122   -0.00545
   14+Bend         H1AH2       7     1     5                54.19710    0.10434
   15 Torsion                  7     1     5     2         -90.31758    0.30011

 ==============================================================================
                                internuclear distances
 ------------------------------------------------------------------------------
       center one      |      center two      | atomic units |  angstroms
 ------------------------------------------------------------------------------
    2 O                |   1 C                |     2.68076  |     1.41860
    3 H                |   1 C                |     2.06607  |     1.09332
    4 H                |   2 O                |     1.83089  |     0.96886
    5 X                |   1 C                |     1.88972  |     1.00000
    5 X                |   2 O                |     4.16939  |     2.20635
    5 X                |   3 H                |     3.46848  |     1.83544
    5 X                |   4 H                |     4.48295  |     2.37227
    6 H                |   1 C                |     2.08101  |     1.10122
    6 H                |   5 X                |     1.81676  |     0.96139
    7 H                |   1 C                |     2.08101  |     1.10122
    7 H                |   5 X                |     1.81676  |     0.96139
 ------------------------------------------------------------------------------
                         number of included internuclear distances:         11
 ==============================================================================



 ==============================================================================
                                 internuclear angles
 ------------------------------------------------------------------------------
        center 1       |       center 2       |       center 3       |  degrees
 ------------------------------------------------------------------------------
    2 O                |   1 C                |   3 H                |   106.70
    2 O                |   1 C                |   5 X                |   130.84
    2 O                |   1 C                |   6 H                |   112.71
    2 O                |   1 C                |   7 H                |   112.71
    3 H                |   1 C                |   5 X                |   122.46
    3 H                |   1 C                |   6 H                |   108.07
    3 H                |   1 C                |   7 H                |   108.07
    1 C                |   5 X                |   6 H                |    68.28
    1 C                |   5 X                |   7 H                |    68.28
    6 H                |   1 C                |   7 H                |   108.39
    1 C                |   2 O                |   4 H                |   107.65
    2 O                |   1 C                |   5 X                |   130.84
    4 H                |   2 O                |   5 X                |    87.60
    3 H                |   1 C                |   5 X                |   122.46
    4 H                |   2 O                |   5 X                |    87.60
    5 X                |   1 C                |   2 O                |   130.84
    5 X                |   1 C                |   3 H                |   122.46
    1 C                |   5 X                |   4 H                |    53.19
    1 C                |   5 X                |   6 H                |    68.28
    1 C                |   5 X                |   7 H                |    68.28
    2 O                |   5 X                |   3 H                |    59.28
    5 X                |   2 O                |   4 H                |    87.60
    2 O                |   5 X                |   6 H                |    71.29
    2 O                |   5 X                |   7 H                |    71.29
    3 H                |   5 X                |   4 H                |    83.36
    3 H                |   5 X                |   6 H                |    71.18
    3 H                |   5 X                |   7 H                |    71.18
    4 H                |   5 X                |   6 H                |    77.43
    4 H                |   5 X                |   7 H                |    77.43
    6 H                |   5 X                |   7 H                |   136.56
    6 H                |   5 X                |   1 C                |    68.28
    7 H                |   5 X                |   1 C                |    68.28
 ------------------------------------------------------------------------------
                            number of included internuclear angles:         32
 ==============================================================================




 Task  times  cpu:        3.9s     wall:        3.9s


                                NWChem Input Module
                                -------------------


 Summary of allocated global arrays
-----------------------------------
  No active global arrays



                         GA Statistics for process    0
                         ------------------------------

       create   destroy   get      put      acc     scatter   gather  read&inc
calls: 1738     1738     1.96e+05 8710     5.40e+04    0        0     1.23e+04 
number of processes/call 2.91e+13 2.68e+13 3.18e+12 0.00e+00 0.00e+00
bytes total:             6.85e+07 1.34e+07 2.77e+07 0.00e+00 0.00e+00 9.80e+04
bytes remote:            2.29e+06 1.05e+06 1.40e+06 0.00e+00 0.00e+00 0.00e+00
Max memory consumed for GA by this process: 416480 bytes

MA_summarize_allocated_blocks: starting scan ...
MA_summarize_allocated_blocks: scan completed: 0 heap blocks, 0 stack blocks
MA usage statistics:

	allocation statistics:
					      heap	     stack
					      ----	     -----
	current number of blocks	         0	         0
	maximum number of blocks	        26	        57
	current total bytes		         0	         0
	maximum total bytes		 669328384	  32708376
	maximum total K-bytes		    669329	     32709
	maximum total M-bytes		       670	        33


                                     CITATION
                                     --------
                Please cite the following reference when publishing
                           results obtained with NWChem:

                 M. Valiev, E.J. Bylaska, N. Govind, K. Kowalski,
              T.P. Straatsma, H.J.J. van Dam, D. Wang, J. Nieplocha,
                        E. Apra, T.L. Windus, W.A. de Jong
                 "NWChem: a comprehensive and scalable open-source
                  solution for large scale molecular simulations"
                      Comput. Phys. Commun. 181, 1477 (2010)
                           doi:10.1016/j.cpc.2010.04.018

                                      AUTHORS
                                      -------
          E. Apra, E. J. Bylaska, W. A. de Jong, N. Govind, K. Kowalski,
       T. P. Straatsma, M. Valiev, H. J. J. van Dam, D. Wang, T. L. Windus,
        J. Hammond, J. Autschbach, K. Bhaskaran-Nair, J. Brabec, K. Lopata,
    S. A. Fischer, S. Krishnamoorthy, M. Jacquelin, W. Ma, M. Klemm, O. Villa,
      Y. Chen, V. Anisimov, F. Aquino, S. Hirata, M. T. Hackler, V. Konjkov,
            D. Mejia-Rodriguez, T. Risthaus, M. Malagoli, A. Marenich,
   A. Otero-de-la-Roza, J. Mullin, P. Nichols, R. Peverati, J. Pittner, Y. Zhao,
        P.-D. Fan, A. Fonari, M. J. Williamson, R. J. Harrison, J. R. Rehr,
      M. Dupuis, D. Silverstein, D. M. A. Smith, J. Nieplocha, V. Tipparaju,
    M. Krishnan, B. E. Van Kuiken, A. Vazquez-Mayagoitia, L. Jensen, M. Swart,
      Q. Wu, T. Van Voorhis, A. A. Auer, M. Nooijen, L. D. Crosby, E. Brown,
      G. Cisneros, G. I. Fann, H. Fruchtl, J. Garza, K. Hirao, R. A. Kendall,
      J. A. Nichols, K. Tsemekhman, K. Wolinski, J. Anchell, D. E. Bernholdt,
      P. Borowski, T. Clark, D. Clerc, H. Dachsel, M. J. O. Deegan, K. Dyall,
    D. Elwood, E. Glendening, M. Gutowski, A. C. Hess, J. Jaffe, B. G. Johnson,
     J. Ju, R. Kobayashi, R. Kutteh, Z. Lin, R. Littlefield, X. Long, B. Meng,
      T. Nakajima, S. Niu, L. Pollack, M. Rosing, K. Glaesemann, G. Sandrone,
      M. Stave, H. Taylor, G. Thomas, J. H. van Lenthe, A. T. Wong, Z. Zhang.

 Total times  cpu:       11.7s     wall:       11.9s
