 argument  1 = dft_x.nw
                                         
                                         
 
 
              Northwest Computational Chemistry Package (NWChem) 4.1
              ------------------------------------------------------
 
 
                    Environmental Molecular Sciences Laboratory
                       Pacific Northwest National Laboratory
                                Richland, WA 99352
 
                                         
                                         
 
 
                     COPYRIGHT (C) 1994, 1995, 1996, 1997, 1998,
                               1999, 2000, 2001, 2002
                        Pacific Northwest National Laboratory,
                             Battelle Memorial Institute.
 
                            >>> All Rights Reserved <<<
 
 
                                    DISCLAIMER
                                    ----------

            This material was prepared as an account of work sponsored
            by an agency of the United States Government.  Neither the
            United States Government nor the United States Department
            of Energy, nor Battelle, nor any of their employees, MAKES
            ANY WARRANTY, EXPRESS OR IMPLIED, OR ASSUMES ANY LEGAL
            LIABILITY OR RESPONSIBILITY FOR THE ACCURACY, COMPLETENESS,
            OR USEFULNESS OF ANY INFORMATION, APPARATUS, PRODUCT,
            SOFTWARE, OR PROCESS DISCLOSED, OR REPRESENTS THAT ITS USE
            WOULD NOT INFRINGE PRIVATELY OWNED RIGHTS.


                                    LIMITED USE
                                    -----------

            This software (including any documentation) is being made
            available to you for your internal use only, solely for use
            in performance of work directly for the U.S. Federal
            Government or work under contracts with the U.S. Department
            of Energy or other U.S. Federal Government agencies.  This
            software is a version which has not yet been evaluated and
            cleared for commercialization.  Adherence to this notice
            may be necessary for the author, Battelle Memorial
            Institute, to successfully assert copyright in and
            commercialize this software. This software is not intended
            for duplication or distribution to third parties without
            the permission of the Manager of Software Products at
            Pacific Northwest National Laboratory, Richland,
            Washington, 99352.


                                  ACKNOWLEDGMENT
                                  --------------

            This software and its documentation were produced with
            Government support under Contract Number DE-AC06-76RLO-1830
            awarded by the United States Department of Energy.  The
            Government retains a paid-up non-exclusive, irrevocable
            worldwide license to reproduce, prepare derivative works,
            perform publicly and display publicly by or for the
            Government, including the right to distribute to other
            Government contractors.


           Job information
           ---------------

    hostname      = twix
    program       = /home/edo/nwchem/bin/LINUX/nwchem
    date          = Mon Jan 20 17:40:52 2003

    compiled      = Mon Jan 20 17:37:01 PST 2003
    source        = /home/edo/nwchem
    nwchem branch = Development
    input         = dft_x.nw
    prefix        = bett.
    data base     = ./bett.db
    status        = startup
    nproc         =    2
    time left     =     -1s



           Memory information
           ------------------

    heap      =    6553594 doubles =     50.0 Mbytes
    stack     =    6553587 doubles =     50.0 Mbytes
    global    =   13107200 doubles =    100.0 Mbytes (distinct from heap & stack)
    total     =   26214381 doubles =    200.0 Mbytes
    verify    = yes
    hardfail  = no 


           Directory information
           ---------------------
 
  0 permanent = .
  0 scratch   = .
 
 
 
 
                                NWChem Input Module
                                -------------------
 
 

 Scaling coordinates for geometry "geometry" by  1.889725989
 (inverse scale =  0.529177249)

 CS  symmetry detected
 
 
                             Geometry "geometry" -> ""
                             -------------------------
 
 Output coordinates in angstroms (scale by  1.889725989 to convert to a.u.)
 
  No.       Tag          Charge          X              Y              Z
 ---- ---------------- ---------- -------------- -------------- --------------
    1 C                    6.0000     0.01105038     0.66596653     0.00000000
    2 O                    8.0000     0.08817602    -0.75488177     0.00000000
    3 H                    1.0000     1.03882462     1.02760129     0.00000000
    4 H                    1.0000    -0.82041411    -1.09453450     0.00000000
    5 X                    0.0000    -0.78171625     1.27549181     0.00000000
    6 H                    1.0000    -0.49506047     1.05509411    -0.89177183
    7 H                    1.0000    -0.49506047     1.05509411     0.89177183
 
      Atomic Mass 
      ----------- 
 
      C                 12.000000
      O                 15.994910
      H                  1.007825
 

 Effective nuclear repulsion energy (a.u.)      40.2078492238

            Nuclear Dipole moment (a.u.) 
            ----------------------------
        X                 Y               Z
 ---------------- ---------------- ----------------
     0.0000000000     0.0000000000     0.0000000000
 
      Symmetry information
      --------------------
 
 Group name             Cs        
 Group number              2
 Group order               2
 No. of unique centers     6
 
      Symmetry unique atoms
 
     1    2    3    4    5    6
 


                                Z-matrix (user)
                                -------- 

 Units are Angstrom for bonds and degrees for angles

  Constrained variables are marked with a plus sign (+).

 
      Type          Name      I     J     K     L     M      Value
      ----------- --------  ----- ----- ----- ----- ----- ----------
    1 Stretch      AB          2     1                       1.42294
    2 Stretch      AH3         3     1                       1.08954
    3 Bend         H3AB        3     1     2               106.27799
    4 Stretch      BH9         4     2                       0.97000
    5 Bend         H9BA        4     2     1               107.38990
    6 Torsion                  4     2     1     3         180.00000
    7 Stretch                  5     1                       1.00000
    8 Bend         BAH12       5     1     2               130.66223
    9 Torsion                  5     1     2     3         180.00000
   10+Stretch      AH1         6     1                       1.09673
   11+Bend         H1AH2       6     1     5                54.40149
   12 Torsion                  6     1     5     2          90.00000
   13+Stretch      AH1         7     1                       1.09673
   14+Bend         H1AH2       7     1     5                54.40149
   15 Torsion                  7     1     5     2         -90.00000
 
 ==============================================================================
                                internuclear distances
 ------------------------------------------------------------------------------
       center one      |      center two      | atomic units |  angstroms
 ------------------------------------------------------------------------------
    2 O                |   1 C                |     2.68897  |     1.42294
    3 H                |   1 C                |     2.05893  |     1.08954
    4 H                |   2 O                |     1.83303  |     0.97000
    5 X                |   1 C                |     1.88973  |     1.00000
    5 X                |   2 O                |     4.17417  |     2.20888
    5 X                |   3 H                |     3.47207  |     1.83734
    5 X                |   4 H                |     4.47930  |     2.37034
    6 H                |   1 C                |     2.07253  |     1.09673
    6 H                |   5 X                |     1.81847  |     0.96229
    7 H                |   1 C                |     2.07253  |     1.09673
    7 H                |   5 X                |     1.81847  |     0.96229
 ------------------------------------------------------------------------------
                         number of included internuclear distances:         11
 ==============================================================================



 ==============================================================================
                                 internuclear angles
 ------------------------------------------------------------------------------
        center 1       |       center 2       |       center 3       |  degrees
 ------------------------------------------------------------------------------
    2 O                |   1 C                |   3 H                |   106.28
    2 O                |   1 C                |   5 X                |   130.66
    2 O                |   1 C                |   6 H                |   112.29
    2 O                |   1 C                |   7 H                |   112.29
    3 H                |   1 C                |   5 X                |   123.06
    3 H                |   1 C                |   6 H                |   108.51
    3 H                |   1 C                |   7 H                |   108.51
    1 C                |   5 X                |   6 H                |    67.93
    1 C                |   5 X                |   7 H                |    67.93
    6 H                |   1 C                |   7 H                |   108.80
    1 C                |   2 O                |   4 H                |   107.39
    2 O                |   1 C                |   5 X                |   130.66
    4 H                |   2 O                |   5 X                |    87.30
    3 H                |   1 C                |   5 X                |   123.06
    4 H                |   2 O                |   5 X                |    87.30
    5 X                |   1 C                |   2 O                |   130.66
    5 X                |   1 C                |   3 H                |   123.06
    1 C                |   5 X                |   4 H                |    53.38
    1 C                |   5 X                |   6 H                |    67.93
    1 C                |   5 X                |   7 H                |    67.93
    2 O                |   5 X                |   3 H                |    59.05
    5 X                |   2 O                |   4 H                |    87.30
    2 O                |   5 X                |   6 H                |    70.86
    2 O                |   5 X                |   7 H                |    70.86
    3 H                |   5 X                |   4 H                |    83.18
    3 H                |   5 X                |   6 H                |    70.97
    3 H                |   5 X                |   7 H                |    70.97
    4 H                |   5 X                |   6 H                |    77.05
    4 H                |   5 X                |   7 H                |    77.05
    6 H                |   5 X                |   7 H                |   135.86
    6 H                |   5 X                |   1 C                |    67.93
    7 H                |   5 X                |   1 C                |    67.93
 ------------------------------------------------------------------------------
                            number of included internuclear angles:         32
 ==============================================================================



  library name resolved from: .nwchemrc
  library file name is: </home/edo/nwchem/src/basis/library>
  
                      Basis "ao basis" -> "" (cartesian)
                      -----
  C (Carbon)
  ----------
            Exponent  Coefficients 
       -------------- ---------------------------------------------------------
  1 S  3.04752490E+03  0.001835
  1 S  4.57369510E+02  0.014037
  1 S  1.03948690E+02  0.068843
  1 S  2.92101550E+01  0.232184
  1 S  9.28666300E+00  0.467941
  1 S  3.16392700E+00  0.362312
 
  2 S  7.86827240E+00 -0.119332
  2 S  1.88128850E+00 -0.160854
  2 S  5.44249300E-01  1.143456
 
  3 P  7.86827240E+00  0.068999
  3 P  1.88128850E+00  0.316424
  3 P  5.44249300E-01  0.744308
 
  4 S  1.68714400E-01  1.000000
 
  5 P  1.68714400E-01  1.000000
 
  6 D  8.00000000E-01  1.000000
 
  H (Hydrogen)
  ------------
            Exponent  Coefficients 
       -------------- ---------------------------------------------------------
  1 S  1.87311370E+01  0.033495
  1 S  2.82539370E+00  0.234727
  1 S  6.40121700E-01  0.813757
 
  2 S  1.61277800E-01  1.000000
 
  O (Oxygen)
  ----------
            Exponent  Coefficients 
       -------------- ---------------------------------------------------------
  1 S  5.48467170E+03  0.001831
  1 S  8.25234950E+02  0.013950
  1 S  1.88046960E+02  0.068445
  1 S  5.29645000E+01  0.232714
  1 S  1.68975700E+01  0.470193
  1 S  5.79963530E+00  0.358521
 
  2 S  1.55396160E+01 -0.110778
  2 S  3.59993360E+00 -0.148026
  2 S  1.01376180E+00  1.130767
 
  3 P  1.55396160E+01  0.070874
  3 P  3.59993360E+00  0.339753
  3 P  1.01376180E+00  0.727159
 
  4 S  2.70005800E-01  1.000000
 
  5 P  2.70005800E-01  1.000000
 
  6 D  8.00000000E-01  1.000000
 


 Summary of "ao basis" -> "" (cartesian)
 ------------------------------------------------------------------------------
       Tag                 Description            Shells   Functions and Types
 ---------------- ------------------------------  ------  ---------------------
 C                           6-31G*                  6       15   3s2p1d
 H                           6-31G*                  2        2   2s
 O                           6-31G*                  6       15   3s2p1d


                                                                                                                         Test with OLYP
                                                                                                                         --------------
 
 
 
                           NWChem Geometry Optimization
                           ----------------------------
 
 
 
 
                                  Test with OLYP
 
 
 maximum gradient threshold         (gmax) =   0.000450
 rms gradient threshold             (grms) =   0.000300
 maximum cartesian step threshold   (xmax) =   0.001800
 rms cartesian step threshold       (xrms) =   0.001200
 fixed trust radius                (trust) =   0.300000
 maximum step size to saddle      (sadstp) =   0.100000
 energy precision                  (eprec) =   5.0D-06
 maximum number of steps          (nptopt) =   20
 initial hessian option           (inhess) =    0
 line search option               (linopt) =    1
 hessian update option            (modupd) =    1
 saddle point option              (modsad) =    0
 initial eigen-mode to follow     (moddir) =    0
 initial variable to follow       (vardir) =    0
 follow first negative mode     (firstneg) =    T
 apply conjugacy                    (opcg) =    F
 source of zmatrix                         =   user    


          -------------------
          Energy Minimization
          -------------------

 
 Names of Z-matrix variables 
    1 AB           2 AH3          3 H3AB         4 BH9          5 H9BA    
    6              7              8 BAH12        9             10 AH1     
   11 H1AH2       12             13 AH1         14 H1AH2       15         
 
 Variables with the same non-blank name are constrained to be equal
 
     variables named      AH1 =    10   13 
     variables named    H1AH2 =    11   14 
 
 Using diagonal initial Hessian 
 Scaling for Hessian diagonals: bonds = 1.00  angles = 0.25  torsions = 0.10

          --------
          Step   0
          --------
 
 
                         Geometry "geometry" -> "geometry"
                         ---------------------------------
 
 Output coordinates in angstroms (scale by  1.889725989 to convert to a.u.)
 
  No.       Tag          Charge          X              Y              Z
 ---- ---------------- ---------- -------------- -------------- --------------
    1 C                    6.0000     0.01105038     0.66596653     0.00000000
    2 O                    8.0000     0.08817602    -0.75488177     0.00000000
    3 H                    1.0000     1.03882462     1.02760129     0.00000000
    4 H                    1.0000    -0.82041411    -1.09453450     0.00000000
    5 X                    0.0000    -0.78171625     1.27549181     0.00000000
    6 H                    1.0000    -0.49506047     1.05509411    -0.89177183
    7 H                    1.0000    -0.49506047     1.05509411     0.89177183
 
      Atomic Mass 
      ----------- 
 
      C                 12.000000
      O                 15.994910
      H                  1.007825
 

 Effective nuclear repulsion energy (a.u.)      40.2078492238

            Nuclear Dipole moment (a.u.) 
            ----------------------------
        X                 Y               Z
 ---------------- ---------------- ----------------
     0.0000000000     0.0000000000     0.0000000000
 
      Symmetry information
      --------------------
 
 Group name             Cs        
 Group number              2
 Group order               2
 No. of unique centers     6
 
      Symmetry unique atoms
 
     1    2    3    4    5    6
 
                                 NWChem DFT Module
                                 -----------------
 
 
                                  Test with OLYP
 
 
  acc std    1.00000000000000D-011
  acc std    1.00000000000000D-011
  acc std    1.00000000000000D-011
  acc std    1.00000000000000D-011
  Caching 1-el integrals 
 
            General Information
            -------------------
          SCF calculation type: DFT
          Wavefunction type:  closed shell.
          No. of atoms     :     7
          No. of electrons :    18
           Alpha electrons :     9
            Beta electrons :     9
          Charge           :     0
          Spin multiplicity:     1
          Use of symmetry is: on ; symmetry adaption is: on 
          Maximum number of iterations:  30
          AO basis - number of functions:    38
                     number of shells:    20
          Convergence on energy requested: 1.00D-06
          Convergence on density requested: 1.00D-05
          Convergence on gradient requested: 5.00D-04
 
              XC Information
              --------------
                        Slater Exchange Functional   1.05 local    
                      OPTX     Exchange Functional   1.43 non-local
              Lee-Yang-Parr Correlation Functional   1.00          
  WARNING: Sum of local exchange is    1.05151000000000     
  Sum of components do not equal unity. 
  WARNING: Sum of nonlocal exchange is    1.43169000000000     
  Sum of components do not equal unity or 0. 
 
             Grid Information
             ----------------
          Grid used for XC integration:  medium    
          Radial quadrature: Mura-Knowles        
          Angular quadrature: Lebedev. 
          Tag              B.-S. Rad. Rad. Pts. Rad. Cut. Ang. Pts.
          ---              ---------- --------- --------- ---------
          C                   0.70       49           7.0       434
          O                   0.60       49           7.0       434
          H                   0.35       45           8.0       434
          X                   0.00        0           0.0         0
          Grid pruning is: on 
          Number of quadrature shells:   233
          Spatial weights used:  Erf1
 
          Convergence Information
          -----------------------
          Convergence aids based upon iterative change in 
          total energy or number of iterations. 
          Levelshifting, if invoked, occurs when the 
          HOMO/LUMO gap drops below (HL_TOL): 1.00D-02
          DIIS, if invoked, will attempt to extrapolate 
          using up to (NFOCK): 10 stored Fock matrices.

                    Damping( 0%)  Levelshifting(0.5)       DIIS
                  --------------- ------------------- ---------------
          dE  on:    start            ASAP                start   
          dE off:    2 iters         30 iters            30 iters 

 
      Screening Tolerance Information
      -------------------------------
          Density screening/tol_rho: 1.00D-10
          AO Gaussian exp screening on grid/accAOfunc:  14
          CD Gaussian exp screening on grid/accCDfunc:  20
          XC Gaussian exp screening on grid/accXCfunc:  20
          Schwarz screening/accCoul: 1.00D-08
          Spatial weight screening/radius(au): 1.71D+01

 
      Superposition of Atomic Density Guess
      -------------------------------------
 
 Sum of atomic energies:        -114.40753654
  t2e    1.00000000000000D-007
  t2e    1.00000000000000D-007
  acc std    1.00000000000000D-011
  acc std    1.00000000000000D-011
 
      Non-variational initial energy
      ------------------------------

 Total energy =    -115.267622
 1-e energy   =    -234.726616
 2-e energy   =      79.251145
 HOMO         =      -0.366960
 LUMO         =       0.122576
 
 
      Symmetry analysis of molecular orbitals - initial
      -------------------------------------------------
 
  Numbering of irreducible representations: 
 
     1 a'          2 a"      
 
  Orbital symmetries:
 
     1 a'          2 a'          3 a'          4 a'          5 a'      
     6 a"          7 a'          8 a'          9 a"         10 a'      
    11 a'         12 a'         13 a"         14 a'         15 a'      
    16 a"         17 a'         18 a'         19 a"      
 
   Time prior to 1st pass:      0.3
  t2e    1.00000000000000D-006
  t2e    1.00000000000000D-006

 Integral file          = ./bett.aoints.0
 Record size in doubles =  65536        No. of integs per rec  =  43688
 Max. records in memory =      4        Max. records in file   =  50035
 No. of bits per label  =      8        No. of bits per value  =     64


  acc std    1.00000000000000D-011
 #quartets = 1.615D+04 #integrals = 1.565D+05 #direct =  0.0% #cached =100.0%

  acc std    1.00000000000000D-011

File balance: exchanges=     0  moved=     0  time=   0.0


 Grid_pts file          = ./bett.gridpts.0
 Record size in doubles =  12289        No. of grid_pts per rec  =   3070
 Max. records in memory =     20        Max. records in file   = 266839


           Memory utilization after 1st SCF pass: 
           Heap Space remaining (MW):        6.04             6043738
          Stack Space remaining (MW):        6.55             6553256

   convergence    iter        energy       DeltaE   RMS-Dens  Diis-err    time
 ---------------- ----- ----------------- --------- --------- ---------  ------
 d= 0,ls=0.0,diis     1   -115.6242378965 -1.56D+02  2.72D-02  4.03D-01     1.2
  t2e    1.00000000000000D-008
  t2e    1.00000000000000D-008
 d= 0,ls=0.0,diis     2   -115.5913867801  3.29D-02  1.66D-02  7.82D-01     1.7
  t2e    1.00000000000000D-008
  t2e    1.00000000000000D-008
 d= 0,ls=0.0,diis     3   -115.6653726534 -7.40D-02  2.62D-03  3.38D-02     2.2
  t2e    1.00000000000000D-008
  t2e    1.00000000000000D-008
 d= 0,ls=0.0,diis     4   -115.6683165262 -2.94D-03  6.43D-04  8.91D-04     2.7
  t2e    1.00000000000000D-008
  t2e    1.00000000000000D-008
 d= 0,ls=0.0,diis     5   -115.6684013747 -8.48D-05  2.35D-04  1.41D-04     3.3
  t2e    1.00000000000000D-008
  t2e    1.00000000000000D-008
 d= 0,ls=0.0,diis     6   -115.6684185121 -1.71D-05  3.55D-05  2.76D-06     3.8
  t2e    1.00000000000000D-008
  t2e    1.00000000000000D-008
 d= 0,ls=0.0,diis     7   -115.6684188681 -3.56D-07  4.62D-06  3.06D-08     4.3


         Total DFT energy =   -115.668418868119
      One electron energy =   -236.852150178299
           Coulomb energy =     96.448648833385
    Exchange-Corr. energy =    -15.472766747010
 Nuclear repulsion energy =     40.207849223805

 Numeric. integr. density =     17.999998330975

     Total iterative time =      4.0s


 
                       DFT Final Molecular Orbital Analysis
                       ------------------------------------
 
 Vector    2  Occ=2.000000D+00  E=-9.944840D+00  Symmetry=a'
              MO Center=  1.1D-02,  6.7D-01,  9.3D-19, r^2= 2.8D-02
   Bfn.  Coefficient  Atom+Function         Bfn.  Coefficient  Atom+Function  
  ----- ------------  ---------------      ----- ------------  ---------------
     1      0.993737  1 C  s          
 
 Vector    3  Occ=2.000000D+00  E=-9.223002D-01  Symmetry=a'
              MO Center= -7.7D-02, -5.7D-01, -8.2D-18, r^2= 5.9D-01
   Bfn.  Coefficient  Atom+Function         Bfn.  Coefficient  Atom+Function  
  ----- ------------  ---------------      ----- ------------  ---------------
    17      0.453560  2 O  s                 21      0.413667  2 O  s          
    16     -0.200772  2 O  s          
 
 Vector    4  Occ=2.000000D+00  E=-6.105676D-01  Symmetry=a'
              MO Center= -5.3D-03,  4.7D-01, -3.9D-17, r^2= 1.5D+00
   Bfn.  Coefficient  Atom+Function         Bfn.  Coefficient  Atom+Function  
  ----- ------------  ---------------      ----- ------------  ---------------
     2      0.357949  1 C  s                  6      0.329969  1 C  s          
     1     -0.179009  1 C  s                 19      0.177730  2 O  py         
    21     -0.165521  2 O  s          
 
 Vector    5  Occ=2.000000D+00  E=-4.441593D-01  Symmetry=a'
              MO Center= -1.5D-01, -9.1D-02,  0.0D+00, r^2= 1.5D+00
   Bfn.  Coefficient  Atom+Function         Bfn.  Coefficient  Atom+Function  
  ----- ------------  ---------------      ----- ------------  ---------------
    18      0.323771  2 O  px                19      0.276923  2 O  py         
     4     -0.248053  1 C  py                33     -0.209355  4 H  s          
     3      0.202266  1 C  px                22      0.165699  2 O  px         
 
 Vector    6  Occ=2.000000D+00  E=-3.766058D-01  Symmetry=a"
              MO Center= -1.7D-01,  5.9D-01,  5.0D-16, r^2= 1.4D+00
   Bfn.  Coefficient  Atom+Function         Bfn.  Coefficient  Atom+Function  
  ----- ------------  ---------------      ----- ------------  ---------------
     5     -0.432295  1 C  pz                20     -0.228208  2 O  pz         
    37     -0.211017  7 H  s                 35      0.211017  6 H  s          
     9     -0.188892  1 C  pz                38     -0.163739  7 H  s          
    36      0.163739  6 H  s          
 
 Vector    7  Occ=2.000000D+00  E=-3.640576D-01  Symmetry=a'
              MO Center=  3.0D-01,  2.9D-01, -7.6D-17, r^2= 1.5D+00
   Bfn.  Coefficient  Atom+Function         Bfn.  Coefficient  Atom+Function  
  ----- ------------  ---------------      ----- ------------  ---------------
     3      0.336600  1 C  px                19     -0.330482  2 O  py         
     4      0.248368  1 C  py                31      0.246935  3 H  s          
    23     -0.192056  2 O  py                32      0.178447  3 H  s          
     7      0.176498  1 C  px         
 
 Vector    8  Occ=2.000000D+00  E=-2.759887D-01  Symmetry=a'
              MO Center=  1.5D-01, -2.6D-01,  8.0D-17, r^2= 1.6D+00
   Bfn.  Coefficient  Atom+Function         Bfn.  Coefficient  Atom+Function  
  ----- ------------  ---------------      ----- ------------  ---------------
    18     -0.416215  2 O  px                21     -0.336589  2 O  s          
    22     -0.275453  2 O  px                 3      0.245110  1 C  px         
    19      0.232396  2 O  py                32      0.168317  3 H  s          
    31      0.167846  3 H  s                 23      0.166517  2 O  py         
    33      0.156442  4 H  s          
 
 Vector    9  Occ=2.000000D+00  E=-2.047042D-01  Symmetry=a"
              MO Center= -1.1D-02, -4.3D-01,  4.8D-16, r^2= 1.3D+00
   Bfn.  Coefficient  Atom+Function         Bfn.  Coefficient  Atom+Function  
  ----- ------------  ---------------      ----- ------------  ---------------
    20     -0.605555  2 O  pz                24     -0.468591  2 O  pz         
    36     -0.190307  6 H  s                 38      0.190307  7 H  s          
     5      0.154836  1 C  pz         
 
 Vector   10  Occ=0.000000D+00  E= 5.009509D-02  Symmetry=a'
              MO Center= -8.0D-01, -6.9D-01, -1.5D-15, r^2= 2.5D+00
   Bfn.  Coefficient  Atom+Function         Bfn.  Coefficient  Atom+Function  
  ----- ------------  ---------------      ----- ------------  ---------------
    34      1.256336  4 H  s                 21     -1.120147  2 O  s          
     6     -0.554374  1 C  s                  8     -0.505631  1 C  py         
    22      0.472343  2 O  px                36      0.410856  6 H  s          
    38      0.410856  7 H  s                 18      0.274374  2 O  px         
    32      0.239167  3 H  s                  4     -0.206011  1 C  py         
 
 Vector   11  Occ=0.000000D+00  E= 1.098674D-01  Symmetry=a'
              MO Center= -5.3D-02,  9.6D-01, -1.1D-14, r^2= 3.7D+00
   Bfn.  Coefficient  Atom+Function         Bfn.  Coefficient  Atom+Function  
  ----- ------------  ---------------      ----- ------------  ---------------
     6      2.435904  1 C  s                 36     -1.100471  6 H  s          
    38     -1.100471  7 H  s                 32     -1.099158  3 H  s          
    21     -0.655754  2 O  s                 34      0.443480  4 H  s          
    23     -0.220173  2 O  py                 2      0.216328  1 C  s          
     8      0.197344  1 C  py                22      0.184089  2 O  px         
 
 Vector   12  Occ=0.000000D+00  E= 1.437699D-01  Symmetry=a'
              MO Center=  4.0D-01,  8.4D-01, -8.0D-16, r^2= 2.8D+00
   Bfn.  Coefficient  Atom+Function         Bfn.  Coefficient  Atom+Function  
  ----- ------------  ---------------      ----- ------------  ---------------
    32      1.667340  3 H  s                  7     -1.171646  1 C  px         
    36     -0.667706  6 H  s                 38     -0.667706  7 H  s          
     8     -0.544009  1 C  py                 3     -0.401377  1 C  px         
    34     -0.354498  4 H  s                 23     -0.329755  2 O  py         
    21     -0.211156  2 O  s                 19     -0.198373  2 O  py         
 
 Vector   13  Occ=0.000000D+00  E= 1.542128D-01  Symmetry=a"
              MO Center= -4.6D-01,  1.0D+00,  1.3D-14, r^2= 2.8D+00
   Bfn.  Coefficient  Atom+Function         Bfn.  Coefficient  Atom+Function  
  ----- ------------  ---------------      ----- ------------  ---------------
    38      1.509617  7 H  s                 36     -1.509617  6 H  s          
     9     -1.311767  1 C  pz                 5     -0.469224  1 C  pz         
    24      0.237080  2 O  pz         
 
 Vector   14  Occ=0.000000D+00  E= 1.740842D-01  Symmetry=a'
              MO Center= -1.2D-02,  3.1D-01,  3.9D-16, r^2= 2.7D+00
   Bfn.  Coefficient  Atom+Function         Bfn.  Coefficient  Atom+Function  
  ----- ------------  ---------------      ----- ------------  ---------------
     8      1.168061  1 C  py                34      0.797707  4 H  s          
    23      0.756807  2 O  py                32      0.679593  3 H  s          
     7     -0.665308  1 C  px                 6     -0.615369  1 C  s          
    21      0.583298  2 O  s                 38     -0.528313  7 H  s          
    36     -0.528313  6 H  s                 19      0.372055  2 O  py         
 
 Vector   15  Occ=0.000000D+00  E= 5.063724D-01  Symmetry=a'
              MO Center=  7.2D-02,  6.6D-01,  7.2D-16, r^2= 1.9D+00
   Bfn.  Coefficient  Atom+Function         Bfn.  Coefficient  Atom+Function  
  ----- ------------  ---------------      ----- ------------  ---------------
     8      1.506336  1 C  py                 4     -0.915013  1 C  py         
    21      0.870957  2 O  s                  6     -0.535630  1 C  s          
     2      0.364835  1 C  s                  7     -0.311755  1 C  px         
    23      0.287626  2 O  py                19     -0.283876  2 O  py         
    34      0.274078  4 H  s                 17     -0.163250  2 O  s          
 
 Vector   16  Occ=0.000000D+00  E= 5.503618D-01  Symmetry=a'
              MO Center= -2.6D-01,  5.8D-01,  4.7D-15, r^2= 2.1D+00
   Bfn.  Coefficient  Atom+Function         Bfn.  Coefficient  Atom+Function  
  ----- ------------  ---------------      ----- ------------  ---------------
     7      1.630607  1 C  px                 3     -0.717629  1 C  px         
    31     -0.494256  3 H  s                 32     -0.397798  3 H  s          
     8      0.345423  1 C  py                 4     -0.235593  1 C  py         
    21      0.221092  2 O  s                 35      0.199812  6 H  s          
    37      0.199812  7 H  s                 22     -0.179567  2 O  px         
 
 Vector   17  Occ=0.000000D+00  E= 5.607052D-01  Symmetry=a"
              MO Center=  2.4D-01,  5.7D-01, -5.4D-15, r^2= 2.0D+00
   Bfn.  Coefficient  Atom+Function         Bfn.  Coefficient  Atom+Function  
  ----- ------------  ---------------      ----- ------------  ---------------
     9     -1.692799  1 C  pz                 5      0.716137  1 C  pz         
    37      0.410725  7 H  s                 35     -0.410725  6 H  s          
    38      0.371032  7 H  s                 36     -0.371032  6 H  s          
    20      0.236808  2 O  pz                12     -0.195537  1 C  dxz        
    24      0.153600  2 O  pz         
 
 Vector   18  Occ=0.000000D+00  E= 7.367704D-01  Symmetry=a'
              MO Center= -3.1D-01, -4.9D-01, -6.3D-16, r^2= 2.4D+00
   Bfn.  Coefficient  Atom+Function         Bfn.  Coefficient  Atom+Function  
  ----- ------------  ---------------      ----- ------------  ---------------
     7     -0.966001  1 C  px                33      0.927389  4 H  s          
    32      0.911400  3 H  s                 34     -0.752353  4 H  s          
    36     -0.495940  6 H  s                 38     -0.495940  7 H  s          
     3      0.452144  1 C  px                18      0.347115  2 O  px         
    23      0.335457  2 O  py                35      0.304403  6 H  s          
 
 Vector   19  Occ=0.000000D+00  E= 8.073668D-01  Symmetry=a"
              MO Center= -3.6D-01,  9.1D-01,  2.8D-15, r^2= 2.1D+00
   Bfn.  Coefficient  Atom+Function         Bfn.  Coefficient  Atom+Function  
  ----- ------------  ---------------      ----- ------------  ---------------
     9     -1.496385  1 C  pz                38      1.492520  7 H  s          
    36     -1.492520  6 H  s                  5      0.845526  1 C  pz         
    37     -0.666362  7 H  s                 35      0.666362  6 H  s          
    24      0.317459  2 O  pz                14     -0.241169  1 C  dyz        
    12      0.223991  1 C  dxz               20     -0.206762  2 O  pz         
 

 center of mass
 --------------
 x =   0.04515245 y =  -0.11939337 z =   0.00000000

 moments of inertia (a.u.)
 ------------------
          72.947473891966           0.000000000000           0.000000000000
           0.000000000000          14.178747257052           0.000000000000
           0.000000000000           0.000000000000          75.677676318936
 
     Multipole analysis of the density
     ---------------------------------
 
     L   x y z        total         alpha         beta         nuclear
     -   - - -        -----         -----         ----         -------
     0   0 0 0      0.000000     -9.000000     -9.000000     18.000000
 
     1   1 0 0     -0.559775     -0.279888     -0.279888      0.000000
     1   0 1 0      0.300152      0.150076      0.150076      0.000000
     1   0 0 1      0.000000      0.000000      0.000000      0.000000
 
     2   2 0 0     -8.715648     -8.474080     -8.474080      8.232512
     2   1 1 0      1.572941      0.014311      0.014311      1.544320
     2   1 0 1      0.000000      0.000000      0.000000      0.000000
     2   0 2 0     -9.468088    -25.625231    -25.625231     41.782373
     2   0 1 1      0.000000      0.000000      0.000000      0.000000
     2   0 0 2    -10.044322     -7.862075     -7.862075      5.679828
 

 Parallel integral file used       4 records with       0 large values

  acc std    1.00000000000000D-011
  acc std    1.00000000000000D-011
  acc std    1.00000000000000D-011
  acc std    1.00000000000000D-011
  acc std    1.00000000000000D-011
  acc std    1.00000000000000D-011
 
 
                            NWChem DFT Gradient Module
                            --------------------------
 
 
                                  Test with OLYP
 
 

  charge          =   0.00
  wavefunction    = closed shell

  Using symmetry
  acc std    1.00000000000000D-011
  acc std    1.00000000000000D-011
  acc std    1.00000000000000D-011
  acc std    1.00000000000000D-011
  acc std    1.00000000000000D-011
  acc std    1.00000000000000D-011
  tol2e    1.00000000000000D-008
  tol2e    1.00000000000000D-008
  acc std    1.00000000000000D-011
  acc std    1.00000000000000D-011
  acc std    1.00000000000000D-011
  acc std    1.00000000000000D-011


                         DFT ENERGY GRADIENTS

    atom               coordinates                        gradient
                 x          y          z           x          y          z
   1 C       0.020882   1.258494   0.000000    0.001600   0.009568   0.000000
   2 O       0.166629  -1.426520   0.000000   -0.003289   0.000546   0.000000
   3 H       1.963094   1.941885   0.000000   -0.004694  -0.002316   0.000000
   4 H      -1.550358  -2.068370   0.000000    0.001681  -0.000702   0.000000
   5 X      -1.477230   2.410330   0.000000    0.000000   0.000000   0.000000
   6 H      -0.935529   1.993839  -1.685204    0.002351  -0.003548   0.004330
   7 H      -0.935529   1.993839   1.685204    0.002351  -0.003548  -0.004330
 
                 ----------------------------------------
                 |  Time  |  1-e(secs)   |  2-e(secs)   |
                 ----------------------------------------
                 |  CPU   |       0.01   |       1.04   |
                 ----------------------------------------
                 |  WALL  |       0.01   |       1.10   |
                 ----------------------------------------

@ Step       Energy      Delta E   Gmax     Grms     Xrms     Xmax   Walltime
@ ---- ---------------- -------- -------- -------- -------- -------- --------
@    0    -115.66841887  0.0D+00  0.00586  0.00267  0.00000  0.00000      7.1
                                                       ok       ok  



                                Z-matrix (user)
                                -------- 

 Units are Angstrom for bonds and degrees for angles

  Constrained variables are marked with a plus sign (+).

 
      Type          Name      I     J     K     L     M      Value     Gradient
      ----------- --------  ----- ----- ----- ----- ----- ---------- ----------
    1 Stretch      AB          2     1                       1.42294    0.00007
    2 Stretch      AH3         3     1                       1.08954   -0.00520
    3 Bend         H3AB        3     1     2               106.27799   -0.00068
    4 Stretch      BH9         4     2                       0.97000   -0.00133
    5 Bend         H9BA        4     2     1               107.38990    0.00121
    6 Torsion                  4     2     1     3         180.00000    0.00000
    7 Stretch                  5     1                       1.00000    0.00000
    8 Bend         BAH12       5     1     2               130.66223   -0.00176
    9 Torsion                  5     1     2     3         180.00000    0.00000
   10+Stretch      AH1         6     1                       1.09673   -0.00586
   11+Bend         H1AH2       6     1     5                54.40149    0.00083
   12 Torsion                  6     1     5     2          90.00000   -0.00123
   13+Stretch      AH1         7     1                       1.09673   -0.00586
   14+Bend         H1AH2       7     1     5                54.40149    0.00083
   15 Torsion                  7     1     5     2         -90.00000    0.00123
 
                                 NWChem DFT Module
                                 -----------------
 
 
                                  Test with OLYP
 
 
  acc std    1.00000000000000D-011
  acc std    1.00000000000000D-011
  acc std    1.00000000000000D-011
  acc std    1.00000000000000D-011
  Caching 1-el integrals 
 
            General Information
            -------------------
          SCF calculation type: DFT
          Wavefunction type:  closed shell.
          No. of atoms     :     7
          No. of electrons :    18
           Alpha electrons :     9
            Beta electrons :     9
          Charge           :     0
          Spin multiplicity:     1
          Use of symmetry is: on ; symmetry adaption is: on 
          Maximum number of iterations:  30
          AO basis - number of functions:    38
                     number of shells:    20
          Convergence on energy requested: 1.00D-06
          Convergence on density requested: 1.00D-05
          Convergence on gradient requested: 5.00D-04
 
              XC Information
              --------------
                        Slater Exchange Functional   1.05 local    
                      OPTX     Exchange Functional   1.43 non-local
              Lee-Yang-Parr Correlation Functional   1.00          
  WARNING: Sum of local exchange is    1.05151000000000     
  Sum of components do not equal unity. 
  WARNING: Sum of nonlocal exchange is    1.43169000000000     
  Sum of components do not equal unity or 0. 
 
             Grid Information
             ----------------
          Grid used for XC integration:  medium    
          Radial quadrature: Mura-Knowles        
          Angular quadrature: Lebedev. 
          Tag              B.-S. Rad. Rad. Pts. Rad. Cut. Ang. Pts.
          ---              ---------- --------- --------- ---------
          C                   0.70       49           7.0       434
          O                   0.60       49           7.0       434
          H                   0.35       45           8.0       434
          X                   0.00        0           0.0         0
          Grid pruning is: on 
          Number of quadrature shells:   233
          Spatial weights used:  Erf1
 
          Convergence Information
          -----------------------
          Convergence aids based upon iterative change in 
          total energy or number of iterations. 
          Levelshifting, if invoked, occurs when the 
          HOMO/LUMO gap drops below (HL_TOL): 1.00D-02
          DIIS, if invoked, will attempt to extrapolate 
          using up to (NFOCK): 10 stored Fock matrices.

                    Damping( 0%)  Levelshifting(0.5)       DIIS
                  --------------- ------------------- ---------------
          dE  on:    start            ASAP                start   
          dE off:    2 iters         30 iters            30 iters 

 
      Screening Tolerance Information
      -------------------------------
          Density screening/tol_rho: 1.00D-10
          AO Gaussian exp screening on grid/accAOfunc:  14
          CD Gaussian exp screening on grid/accCDfunc:  20
          XC Gaussian exp screening on grid/accXCfunc:  20
          Schwarz screening/accCoul: 1.00D-08
          Spatial weight screening/radius(au): 1.71D+01


 Loading old vectors from job with title :

Test with OLYP

 
      Symmetry analysis of molecular orbitals - initial
      -------------------------------------------------
 
  Numbering of irreducible representations: 
 
     1 a'          2 a"      
 
  Orbital symmetries:
 
     1 a'          2 a'          3 a'          4 a'          5 a'      
     6 a"          7 a'          8 a'          9 a"         10 a'      
    11 a'         12 a'         13 a"         14 a'         15 a'      
    16 a'         17 a"         18 a'         19 a"      
 
   Time prior to 1st pass:      6.6
  t2e    1.00000000000000D-008
  t2e    1.00000000000000D-008

 Integral file          = ./bett.aoints.0
 Record size in doubles =  65536        No. of integs per rec  =  43688
 Max. records in memory =      4        Max. records in file   =  50035
 No. of bits per label  =      8        No. of bits per value  =     64


  acc std    1.00000000000000D-011
 #quartets = 1.615D+04 #integrals = 1.565D+05 #direct =  0.0% #cached =100.0%

  acc std    1.00000000000000D-011

File balance: exchanges=     0  moved=     0  time=   0.0


 Grid_pts file          = ./bett.gridpts.0
 Record size in doubles =  12289        No. of grid_pts per rec  =   3070
 Max. records in memory =     20        Max. records in file   = 266834


           Memory utilization after 1st SCF pass: 
           Heap Space remaining (MW):        6.04             6043738
          Stack Space remaining (MW):        6.55             6553256

   convergence    iter        energy       DeltaE   RMS-Dens  Diis-err    time
 ---------------- ----- ----------------- --------- --------- ---------  ------
 d= 0,ls=0.0,diis     1   -115.6685584777 -1.56D+02  5.77D-04  2.70D-04     7.5
  t2e    1.00000000000000D-008
  t2e    1.00000000000000D-008
 d= 0,ls=0.0,diis     2   -115.6685802104 -2.17D-05  3.17D-04  2.19D-04     8.0
  t2e    1.00000000000000D-008
  t2e    1.00000000000000D-008
 d= 0,ls=0.0,diis     3   -115.6686052159 -2.50D-05  8.49D-05  2.65D-05     8.5
  t2e    1.00000000000000D-008
  t2e    1.00000000000000D-008
 d= 0,ls=0.0,diis     4   -115.6686079565 -2.74D-06  3.14D-05  2.84D-06     9.0
  t2e    1.00000000000000D-008
  t2e    1.00000000000000D-008
 d= 0,ls=0.0,diis     5   -115.6686082246 -2.68D-07  4.94D-06  1.03D-07     9.6


         Total DFT energy =   -115.668608224602
      One electron energy =   -236.640493474134
           Coulomb energy =     96.332899536070
    Exchange-Corr. energy =    -15.462160777538
 Nuclear repulsion energy =     40.101146491000

 Numeric. integr. density =     17.999997956294

     Total iterative time =      3.0s


 
                       DFT Final Molecular Orbital Analysis
                       ------------------------------------
 
 Vector    2  Occ=2.000000D+00  E=-9.947644D+00  Symmetry=a'
              MO Center=  1.1D-02,  6.6D-01,  1.3D-18, r^2= 2.8D-02
   Bfn.  Coefficient  Atom+Function         Bfn.  Coefficient  Atom+Function  
  ----- ------------  ---------------      ----- ------------  ---------------
     1      0.993753  1 C  s          
 
 Vector    3  Occ=2.000000D+00  E=-9.231731D-01  Symmetry=a'
              MO Center= -7.6D-02, -5.7D-01,  2.4D-18, r^2= 5.9D-01
   Bfn.  Coefficient  Atom+Function         Bfn.  Coefficient  Atom+Function  
  ----- ------------  ---------------      ----- ------------  ---------------
    17      0.453863  2 O  s                 21      0.413632  2 O  s          
    16     -0.200808  2 O  s          
 
 Vector    4  Occ=2.000000D+00  E=-6.085614D-01  Symmetry=a'
              MO Center= -3.7D-03,  4.7D-01, -3.6D-17, r^2= 1.5D+00
   Bfn.  Coefficient  Atom+Function         Bfn.  Coefficient  Atom+Function  
  ----- ------------  ---------------      ----- ------------  ---------------
     2      0.357652  1 C  s                  6      0.333852  1 C  s          
     1     -0.178903  1 C  s                 19      0.178400  2 O  py         
    21     -0.166372  2 O  s          
 
 Vector    5  Occ=2.000000D+00  E=-4.438124D-01  Symmetry=a'
              MO Center= -1.5D-01, -1.0D-01,  9.4D-17, r^2= 1.5D+00
   Bfn.  Coefficient  Atom+Function         Bfn.  Coefficient  Atom+Function  
  ----- ------------  ---------------      ----- ------------  ---------------
    18      0.326552  2 O  px                19      0.275598  2 O  py         
     4     -0.247158  1 C  py                33     -0.210151  4 H  s          
     3      0.200066  1 C  px                22      0.167460  2 O  px         
 
 Vector    6  Occ=2.000000D+00  E=-3.751715D-01  Symmetry=a"
              MO Center= -1.7D-01,  5.8D-01,  1.4D-17, r^2= 1.4D+00
   Bfn.  Coefficient  Atom+Function         Bfn.  Coefficient  Atom+Function  
  ----- ------------  ---------------      ----- ------------  ---------------
     5     -0.430347  1 C  pz                20     -0.231658  2 O  pz         
    37     -0.209701  7 H  s                 35      0.209701  6 H  s          
     9     -0.190259  1 C  pz                36      0.163924  6 H  s          
    38     -0.163924  7 H  s          
 
 Vector    7  Occ=2.000000D+00  E=-3.633589D-01  Symmetry=a'
              MO Center=  3.0D-01,  2.7D-01,  1.1D-17, r^2= 1.5D+00
   Bfn.  Coefficient  Atom+Function         Bfn.  Coefficient  Atom+Function  
  ----- ------------  ---------------      ----- ------------  ---------------
    19      0.333975  2 O  py                 3     -0.331305  1 C  px         
     4     -0.250866  1 C  py                31     -0.243873  3 H  s          
    23      0.194777  2 O  py                32     -0.177026  3 H  s          
     7     -0.176362  1 C  px         
 
 Vector    8  Occ=2.000000D+00  E=-2.770302D-01  Symmetry=a'
              MO Center=  1.6D-01, -2.3D-01,  6.9D-17, r^2= 1.7D+00
   Bfn.  Coefficient  Atom+Function         Bfn.  Coefficient  Atom+Function  
  ----- ------------  ---------------      ----- ------------  ---------------
    18     -0.411256  2 O  px                21     -0.333274  2 O  s          
    22     -0.271795  2 O  px                 3      0.251337  1 C  px         
    19      0.228569  2 O  py                32      0.172523  3 H  s          
    31      0.171853  3 H  s                 23      0.163426  2 O  py         
    33      0.156962  4 H  s          
 
 Vector    9  Occ=2.000000D+00  E=-2.054881D-01  Symmetry=a"
              MO Center= -1.2D-02, -4.2D-01,  1.6D-16, r^2= 1.3D+00
   Bfn.  Coefficient  Atom+Function         Bfn.  Coefficient  Atom+Function  
  ----- ------------  ---------------      ----- ------------  ---------------
    20      0.604264  2 O  pz                24      0.467017  2 O  pz         
    36      0.192447  6 H  s                 38     -0.192447  7 H  s          
     5     -0.155272  1 C  pz         
 
 Vector   10  Occ=0.000000D+00  E= 4.938405D-02  Symmetry=a'
              MO Center= -8.1D-01, -6.9D-01, -2.8D-17, r^2= 2.5D+00
   Bfn.  Coefficient  Atom+Function         Bfn.  Coefficient  Atom+Function  
  ----- ------------  ---------------      ----- ------------  ---------------
    34      1.255760  4 H  s                 21     -1.113181  2 O  s          
     6     -0.553299  1 C  s                  8     -0.502221  1 C  py         
    22      0.473431  2 O  px                36      0.411081  6 H  s          
    38      0.411081  7 H  s                 18      0.275869  2 O  px         
    32      0.236916  3 H  s                  4     -0.203781  1 C  py         
 
 Vector   11  Occ=0.000000D+00  E= 1.076024D-01  Symmetry=a'
              MO Center= -6.6D-02,  9.6D-01, -1.3D-14, r^2= 3.7D+00
   Bfn.  Coefficient  Atom+Function         Bfn.  Coefficient  Atom+Function  
  ----- ------------  ---------------      ----- ------------  ---------------
     6      2.393881  1 C  s                 36     -1.089648  6 H  s          
    38     -1.089648  7 H  s                 32     -1.070814  3 H  s          
    21     -0.653102  2 O  s                 34      0.443340  4 H  s          
    23     -0.222648  2 O  py                 2      0.218754  1 C  s          
     8      0.196449  1 C  py                22      0.185725  2 O  px         
 
 Vector   12  Occ=0.000000D+00  E= 1.416052D-01  Symmetry=a'
              MO Center=  4.3D-01,  8.5D-01, -6.1D-15, r^2= 2.8D+00
   Bfn.  Coefficient  Atom+Function         Bfn.  Coefficient  Atom+Function  
  ----- ------------  ---------------      ----- ------------  ---------------
    32     -1.671785  3 H  s                  7      1.172001  1 C  px         
    36      0.655446  6 H  s                 38      0.655446  7 H  s          
     8      0.519288  1 C  py                 3      0.408773  1 C  px         
    34      0.332290  4 H  s                 23      0.305611  2 O  py         
    21      0.192827  2 O  s                 19      0.186959  2 O  py         
 
 Vector   13  Occ=0.000000D+00  E= 1.517577D-01  Symmetry=a"
              MO Center= -4.5D-01,  1.0D+00,  1.9D-14, r^2= 2.7D+00
   Bfn.  Coefficient  Atom+Function         Bfn.  Coefficient  Atom+Function  
  ----- ------------  ---------------      ----- ------------  ---------------
    38      1.482047  7 H  s                 36     -1.482047  6 H  s          
     9     -1.292704  1 C  pz                 5     -0.472770  1 C  pz         
    24      0.237998  2 O  pz         
 
 Vector   14  Occ=0.000000D+00  E= 1.733208D-01  Symmetry=a'
              MO Center= -2.3D-02,  2.9D-01,  1.1D-16, r^2= 2.6D+00
   Bfn.  Coefficient  Atom+Function         Bfn.  Coefficient  Atom+Function  
  ----- ------------  ---------------      ----- ------------  ---------------
     8     -1.183554  1 C  py                34     -0.799135  4 H  s          
    23     -0.764188  2 O  py                 7      0.623201  1 C  px         
     6      0.621232  1 C  s                 32     -0.614606  3 H  s          
    21     -0.596440  2 O  s                 38      0.504511  7 H  s          
    36      0.504511  6 H  s                 19     -0.377731  2 O  py         
 
 Vector   15  Occ=0.000000D+00  E= 5.059795D-01  Symmetry=a'
              MO Center=  7.2D-02,  6.5D-01, -9.0D-16, r^2= 1.9D+00
   Bfn.  Coefficient  Atom+Function         Bfn.  Coefficient  Atom+Function  
  ----- ------------  ---------------      ----- ------------  ---------------
     8     -1.512855  1 C  py                 4      0.913787  1 C  py         
    21     -0.875173  2 O  s                  6      0.553137  1 C  s          
     2     -0.369708  1 C  s                  7      0.300412  1 C  px         
    23     -0.290884  2 O  py                34     -0.286669  4 H  s          
    19      0.282654  2 O  py                17      0.162787  2 O  s          
 
 Vector   16  Occ=0.000000D+00  E= 5.531120D-01  Symmetry=a'
              MO Center= -2.6D-01,  5.8D-01, -1.0D-17, r^2= 2.1D+00
   Bfn.  Coefficient  Atom+Function         Bfn.  Coefficient  Atom+Function  
  ----- ------------  ---------------      ----- ------------  ---------------
     7      1.622420  1 C  px                 3     -0.723691  1 C  px         
    31     -0.494319  3 H  s                 32     -0.388788  3 H  s          
     8      0.351327  1 C  py                 4     -0.233604  1 C  py         
    21      0.227156  2 O  s                 35      0.199399  6 H  s          
    37      0.199399  7 H  s                 17     -0.182439  2 O  s          
 
 Vector   17  Occ=0.000000D+00  E= 5.631891D-01  Symmetry=a"
              MO Center=  2.4D-01,  5.6D-01,  6.9D-16, r^2= 2.0D+00
   Bfn.  Coefficient  Atom+Function         Bfn.  Coefficient  Atom+Function  
  ----- ------------  ---------------      ----- ------------  ---------------
     9      1.680732  1 C  pz                 5     -0.722681  1 C  pz         
    37     -0.409804  7 H  s                 35      0.409804  6 H  s          
    36      0.359696  6 H  s                 38     -0.359696  7 H  s          
    20     -0.240068  2 O  pz                12      0.195732  1 C  dxz        
 
 Vector   18  Occ=0.000000D+00  E= 7.339007D-01  Symmetry=a'
              MO Center= -3.1D-01, -4.6D-01, -2.1D-15, r^2= 2.5D+00
   Bfn.  Coefficient  Atom+Function         Bfn.  Coefficient  Atom+Function  
  ----- ------------  ---------------      ----- ------------  ---------------
     7     -0.978615  1 C  px                32      0.921325  3 H  s          
    33      0.917173  4 H  s                 34     -0.752289  4 H  s          
    36     -0.516573  6 H  s                 38     -0.516573  7 H  s          
     3      0.461023  1 C  px                18      0.339252  2 O  px         
    23      0.328126  2 O  py                35      0.310284  6 H  s          
 
 Vector   19  Occ=0.000000D+00  E= 8.013488D-01  Symmetry=a"
              MO Center= -3.7D-01,  9.2D-01,  3.4D-15, r^2= 2.2D+00
   Bfn.  Coefficient  Atom+Function         Bfn.  Coefficient  Atom+Function  
  ----- ------------  ---------------      ----- ------------  ---------------
    38      1.485345  7 H  s                 36     -1.485345  6 H  s          
     9     -1.483589  1 C  pz                 5      0.837073  1 C  pz         
    35      0.668495  6 H  s                 37     -0.668495  7 H  s          
    24      0.311038  2 O  pz                14     -0.240028  1 C  dyz        
    12      0.221606  1 C  dxz               20     -0.200809  2 O  pz         
 

 center of mass
 --------------
 x =   0.04718748 y =  -0.12699044 z =   0.00000000

 moments of inertia (a.u.)
 ------------------
          73.146162110028           0.088357167148           0.000000000000
           0.088357167148          14.351244398855           0.000000000000
           0.000000000000           0.000000000000          75.887811805822
 
     Multipole analysis of the density
     ---------------------------------
 
     L   x y z        total         alpha         beta         nuclear
     -   - - -        -----         -----         ----         -------
     0   0 0 0      0.000000     -9.000000     -9.000000     18.000000
 
     1   1 0 0     -0.560254     -0.294498     -0.294498      0.028742
     1   0 1 0      0.297668      0.203304      0.203304     -0.108941
     1   0 0 1      0.000000      0.000000      0.000000      0.000000
 
     2   2 0 0     -8.731747     -8.525059     -8.525059      8.318372
     2   1 1 0      1.576697      0.040420      0.040420      1.495857
     2   1 0 1      0.000000      0.000000      0.000000      0.000000
     2   0 2 0     -9.504739    -25.698424    -25.698424     41.892109
     2   0 1 1      0.000000      0.000000      0.000000      0.000000
     2   0 0 2    -10.068552     -7.914140     -7.914140      5.759727
 

 Parallel integral file used       4 records with       0 large values

 Line search: 
     step= 1.00 grad=-3.5D-04 hess= 1.6D-04 energy=   -115.668608 mode=accept  
 new step= 1.00                   predicted energy=   -115.668608

          --------
          Step   1
          --------
 
 
                         Geometry "geometry" -> "geometry"
                         ---------------------------------
 
 Output coordinates in angstroms (scale by  1.889725989 to convert to a.u.)
 
  No.       Tag          Charge          X              Y              Z
 ---- ---------------- ---------- -------------- -------------- --------------
    1 C                    6.0000     0.01127953     0.66075745     0.00000000
    2 O                    8.0000     0.09041948    -0.75987927     0.00000000
    3 H                    1.0000     1.04359477     1.03328116     0.00000000
    4 H                    1.0000    -0.82356793    -1.09063233     0.00000000
    5 X                    0.0000    -0.78007608     1.27211276     0.00000000
    6 H                    1.0000    -0.49792502     1.05709590    -0.89802233
    7 H                    1.0000    -0.49792502     1.05709590     0.89802233
 
      Atomic Mass 
      ----------- 
 
      C                 12.000000
      O                 15.994910
      H                  1.007825
 

 Effective nuclear repulsion energy (a.u.)      40.1011464910

            Nuclear Dipole moment (a.u.) 
            ----------------------------
        X                 Y               Z
 ---------------- ---------------- ----------------
     0.0287423621    -0.1089405942     0.0000000000
 
      Symmetry information
      --------------------
 
 Group name             Cs        
 Group number              2
 Group order               2
 No. of unique centers     6
 
      Symmetry unique atoms
 
     1    2    3    4    5    6
 
                                 NWChem DFT Module
                                 -----------------
 
 
                                  Test with OLYP
 
 

  The DFT is already converged 

         Total DFT energy =   -115.668608224602

  acc std    1.00000000000000D-011
  acc std    1.00000000000000D-011
  acc std    1.00000000000000D-011
  acc std    1.00000000000000D-011
  acc std    1.00000000000000D-011
  acc std    1.00000000000000D-011
 
 
                            NWChem DFT Gradient Module
                            --------------------------
 
 
                                  Test with OLYP
 
 

  charge          =   0.00
  wavefunction    = closed shell

  Using symmetry
  acc std    1.00000000000000D-011
  acc std    1.00000000000000D-011
  acc std    1.00000000000000D-011
  acc std    1.00000000000000D-011
  acc std    1.00000000000000D-011
  acc std    1.00000000000000D-011
  tol2e    1.00000000000000D-008
  tol2e    1.00000000000000D-008
  acc std    1.00000000000000D-011
  acc std    1.00000000000000D-011
  acc std    1.00000000000000D-011
  acc std    1.00000000000000D-011


                         DFT ENERGY GRADIENTS

    atom               coordinates                        gradient
                 x          y          z           x          y          z
   1 C       0.021315   1.248651   0.000000    0.000877   0.003087   0.000000
   2 O       0.170868  -1.435964   0.000000   -0.000597  -0.000807   0.000000
   3 H       1.972108   1.952618   0.000000   -0.000102   0.000074   0.000000
   4 H      -1.556318  -2.060996   0.000000   -0.000262  -0.000251   0.000000
   5 X      -1.474130   2.403945   0.000000    0.000000   0.000000   0.000000
   6 H      -0.940942   1.997622  -1.697016    0.000042  -0.001052  -0.000116
   7 H      -0.940942   1.997622   1.697016    0.000042  -0.001052   0.000116
 
                 ----------------------------------------
                 |  Time  |  1-e(secs)   |  2-e(secs)   |
                 ----------------------------------------
                 |  CPU   |       0.00   |       1.06   |
                 ----------------------------------------
                 |  WALL  |       0.01   |       1.16   |
                 ----------------------------------------

  Step       Energy      Delta E   Gmax     Grms     Xrms     Xmax   Walltime
  ---- ---------------- -------- -------- -------- -------- -------- --------
@    1    -115.66860822 -1.9D-04  0.00104  0.00054  0.00657  0.01179     13.2
                                                                    



                                Z-matrix (user)
                                -------- 

 Units are Angstrom for bonds and degrees for angles

  Constrained variables are marked with a plus sign (+).

 
      Type          Name      I     J     K     L     M      Value     Gradient
      ----------- --------  ----- ----- ----- ----- ----- ---------- ----------
    1 Stretch      AB          2     1                       1.42284    0.00101
    2 Stretch      AH3         3     1                       1.09747   -0.00007
    3 Bend         H3AB        3     1     2               106.65410    0.00012
    4 Stretch      BH9         4     2                       0.97199    0.00033
    5 Bend         H9BA        4     2     1               106.70564    0.00014
    6 Torsion                  4     2     1     3         180.00000    0.00000
    7 Stretch                  5     1                       1.00000    0.00000
    8 Bend         BAH12       5     1     2               130.87609   -0.00104
    9 Torsion                  5     1     2     3         180.00000    0.00000
   10+Stretch      AH1         6     1                       1.10581   -0.00030
   11+Bend         H1AH2       6     1     5                54.30130    0.00068
   12 Torsion                  6     1     5     2          90.14928   -0.00073
   13+Stretch      AH1         7     1                       1.10581   -0.00030
   14+Bend         H1AH2       7     1     5                54.30130    0.00068
   15 Torsion                  7     1     5     2         -90.14928    0.00073
 
                                 NWChem DFT Module
                                 -----------------
 
 
                                  Test with OLYP
 
 
  acc std    1.00000000000000D-011
  acc std    1.00000000000000D-011
  acc std    1.00000000000000D-011
  acc std    1.00000000000000D-011
  Caching 1-el integrals 
 
            General Information
            -------------------
          SCF calculation type: DFT
          Wavefunction type:  closed shell.
          No. of atoms     :     7
          No. of electrons :    18
           Alpha electrons :     9
            Beta electrons :     9
          Charge           :     0
          Spin multiplicity:     1
          Use of symmetry is: on ; symmetry adaption is: on 
          Maximum number of iterations:  30
          AO basis - number of functions:    38
                     number of shells:    20
          Convergence on energy requested: 1.00D-06
          Convergence on density requested: 1.00D-05
          Convergence on gradient requested: 5.00D-04
 
              XC Information
              --------------
                        Slater Exchange Functional   1.05 local    
                      OPTX     Exchange Functional   1.43 non-local
              Lee-Yang-Parr Correlation Functional   1.00          
  WARNING: Sum of local exchange is    1.05151000000000     
  Sum of components do not equal unity. 
  WARNING: Sum of nonlocal exchange is    1.43169000000000     
  Sum of components do not equal unity or 0. 
 
             Grid Information
             ----------------
          Grid used for XC integration:  medium    
          Radial quadrature: Mura-Knowles        
          Angular quadrature: Lebedev. 
          Tag              B.-S. Rad. Rad. Pts. Rad. Cut. Ang. Pts.
          ---              ---------- --------- --------- ---------
          C                   0.70       49           7.0       434
          O                   0.60       49           7.0       434
          H                   0.35       45           8.0       434
          X                   0.00        0           0.0         0
          Grid pruning is: on 
          Number of quadrature shells:   233
          Spatial weights used:  Erf1
 
          Convergence Information
          -----------------------
          Convergence aids based upon iterative change in 
          total energy or number of iterations. 
          Levelshifting, if invoked, occurs when the 
          HOMO/LUMO gap drops below (HL_TOL): 1.00D-02
          DIIS, if invoked, will attempt to extrapolate 
          using up to (NFOCK): 10 stored Fock matrices.

                    Damping( 0%)  Levelshifting(0.5)       DIIS
                  --------------- ------------------- ---------------
          dE  on:    start            ASAP                start   
          dE off:    2 iters         30 iters            30 iters 

 
      Screening Tolerance Information
      -------------------------------
          Density screening/tol_rho: 1.00D-10
          AO Gaussian exp screening on grid/accAOfunc:  14
          CD Gaussian exp screening on grid/accCDfunc:  20
          XC Gaussian exp screening on grid/accXCfunc:  20
          Schwarz screening/accCoul: 1.00D-08
          Spatial weight screening/radius(au): 1.71D+01


 Loading old vectors from job with title :

Test with OLYP

 
      Symmetry analysis of molecular orbitals - initial
      -------------------------------------------------
 
  Numbering of irreducible representations: 
 
     1 a'          2 a"      
 
  Orbital symmetries:
 
     1 a'          2 a'          3 a'          4 a'          5 a'      
     6 a"          7 a'          8 a'          9 a"         10 a'      
    11 a'         12 a'         13 a"         14 a'         15 a'      
    16 a'         17 a"         18 a'         19 a"      
 
   Time prior to 1st pass:     11.9
  t2e    1.00000000000000D-008
  t2e    1.00000000000000D-008

 Integral file          = ./bett.aoints.0
 Record size in doubles =  65536        No. of integs per rec  =  43688
 Max. records in memory =      4        Max. records in file   =  50035
 No. of bits per label  =      8        No. of bits per value  =     64


  acc std    1.00000000000000D-011
 #quartets = 1.615D+04 #integrals = 1.565D+05 #direct =  0.0% #cached =100.0%

  acc std    1.00000000000000D-011

File balance: exchanges=     0  moved=     0  time=   0.0


 Grid_pts file          = ./bett.gridpts.0
 Record size in doubles =  12289        No. of grid_pts per rec  =   3070
 Max. records in memory =     20        Max. records in file   = 266834


           Memory utilization after 1st SCF pass: 
           Heap Space remaining (MW):        6.04             6043738
          Stack Space remaining (MW):        6.55             6553256

   convergence    iter        energy       DeltaE   RMS-Dens  Diis-err    time
 ---------------- ----- ----------------- --------- --------- ---------  ------
 d= 0,ls=0.0,diis     1   -115.6686194761 -1.56D+02  1.31D-04  1.34D-05    12.8
  t2e    1.00000000000000D-008
  t2e    1.00000000000000D-008
 d= 0,ls=0.0,diis     2   -115.6686216006 -2.12D-06  5.04D-05  4.98D-06    13.3
  t2e    1.00000000000000D-008
  t2e    1.00000000000000D-008
 d= 0,ls=0.0,diis     3   -115.6686217613 -1.61D-07  2.91D-05  3.45D-06    13.8
  t2e    1.00000000000000D-008
  t2e    1.00000000000000D-008
 d= 0,ls=0.0,diis     4   -115.6686220920 -3.31D-07  6.29D-06  5.63D-08    14.3


         Total DFT energy =   -115.668622091962
      One electron energy =   -236.672787069386
           Coulomb energy =     96.347858722859
    Exchange-Corr. energy =    -15.462303182082
 Nuclear repulsion energy =     40.118609436646

 Numeric. integr. density =     17.999997804163

     Total iterative time =      2.4s


 
                       DFT Final Molecular Orbital Analysis
                       ------------------------------------
 
 Vector    2  Occ=2.000000D+00  E=-9.947738D+00  Symmetry=a'
              MO Center=  1.1D-02,  6.6D-01, -2.0D-18, r^2= 2.8D-02
   Bfn.  Coefficient  Atom+Function         Bfn.  Coefficient  Atom+Function  
  ----- ------------  ---------------      ----- ------------  ---------------
     1      0.993753  1 C  s          
 
 Vector    3  Occ=2.000000D+00  E=-9.240084D-01  Symmetry=a'
              MO Center= -7.5D-02, -5.7D-01,  2.2D-18, r^2= 5.9D-01
   Bfn.  Coefficient  Atom+Function         Bfn.  Coefficient  Atom+Function  
  ----- ------------  ---------------      ----- ------------  ---------------
    17     -0.453844  2 O  s                 21     -0.413207  2 O  s          
    16      0.200776  2 O  s          
 
 Vector    4  Occ=2.000000D+00  E=-6.084114D-01  Symmetry=a'
              MO Center= -3.8D-03,  4.7D-01,  1.3D-16, r^2= 1.5D+00
   Bfn.  Coefficient  Atom+Function         Bfn.  Coefficient  Atom+Function  
  ----- ------------  ---------------      ----- ------------  ---------------
     2     -0.357426  1 C  s                  6     -0.333950  1 C  s          
    19     -0.179085  2 O  py                 1      0.178809  1 C  s          
    21      0.166258  2 O  s          
 
 Vector    5  Occ=2.000000D+00  E=-4.443168D-01  Symmetry=a'
              MO Center= -1.5D-01, -9.9D-02,  4.3D-17, r^2= 1.5D+00
   Bfn.  Coefficient  Atom+Function         Bfn.  Coefficient  Atom+Function  
  ----- ------------  ---------------      ----- ------------  ---------------
    18     -0.326468  2 O  px                19     -0.275495  2 O  py         
     4      0.247339  1 C  py                33      0.210030  4 H  s          
     3     -0.200069  1 C  px                22     -0.167365  2 O  px         
 
 Vector    6  Occ=2.000000D+00  E=-3.749057D-01  Symmetry=a"
              MO Center= -1.7D-01,  5.8D-01, -3.9D-16, r^2= 1.4D+00
   Bfn.  Coefficient  Atom+Function         Bfn.  Coefficient  Atom+Function  
  ----- ------------  ---------------      ----- ------------  ---------------
     5     -0.429917  1 C  pz                20     -0.233297  2 O  pz         
    35      0.209182  6 H  s                 37     -0.209182  7 H  s          
     9     -0.190496  1 C  pz                38     -0.163669  7 H  s          
    36      0.163669  6 H  s          
 
 Vector    7  Occ=2.000000D+00  E=-3.633331D-01  Symmetry=a'
              MO Center=  3.0D-01,  2.6D-01,  5.3D-17, r^2= 1.5D+00
   Bfn.  Coefficient  Atom+Function         Bfn.  Coefficient  Atom+Function  
  ----- ------------  ---------------      ----- ------------  ---------------
    19     -0.335402  2 O  py                 3      0.329713  1 C  px         
     4      0.251788  1 C  py                31      0.242815  3 H  s          
    23     -0.195681  2 O  py                32      0.176217  3 H  s          
     7      0.176089  1 C  px         
 
 Vector    8  Occ=2.000000D+00  E=-2.773365D-01  Symmetry=a'
              MO Center=  1.6D-01, -2.2D-01,  2.1D-17, r^2= 1.7D+00
   Bfn.  Coefficient  Atom+Function         Bfn.  Coefficient  Atom+Function  
  ----- ------------  ---------------      ----- ------------  ---------------
    18      0.410599  2 O  px                21      0.332792  2 O  s          
    22      0.271253  2 O  px                 3     -0.253234  1 C  px         
    19     -0.226217  2 O  py                32     -0.173720  3 H  s          
    31     -0.173414  3 H  s                 23     -0.161882  2 O  py         
    33     -0.157300  4 H  s          
 
 Vector    9  Occ=2.000000D+00  E=-2.057501D-01  Symmetry=a"
              MO Center= -1.3D-02, -4.2D-01, -1.3D-16, r^2= 1.3D+00
   Bfn.  Coefficient  Atom+Function         Bfn.  Coefficient  Atom+Function  
  ----- ------------  ---------------      ----- ------------  ---------------
    20      0.603605  2 O  pz                24      0.466384  2 O  pz         
    36      0.193618  6 H  s                 38     -0.193618  7 H  s          
     5     -0.155896  1 C  pz         
 
 Vector   10  Occ=0.000000D+00  E= 4.948519D-02  Symmetry=a'
              MO Center= -8.1D-01, -6.9D-01, -1.4D-17, r^2= 2.5D+00
   Bfn.  Coefficient  Atom+Function         Bfn.  Coefficient  Atom+Function  
  ----- ------------  ---------------      ----- ------------  ---------------
    34     -1.257960  4 H  s                 21      1.113432  2 O  s          
     6      0.555364  1 C  s                  8      0.501708  1 C  py         
    22     -0.474291  2 O  px                36     -0.410752  6 H  s          
    38     -0.410752  7 H  s                 18     -0.276109  2 O  px         
    32     -0.239387  3 H  s                  4      0.202552  1 C  py         
 
 Vector   11  Occ=0.000000D+00  E= 1.075033D-01  Symmetry=a'
              MO Center= -7.4D-02,  9.6D-01,  3.0D-14, r^2= 3.7D+00
   Bfn.  Coefficient  Atom+Function         Bfn.  Coefficient  Atom+Function  
  ----- ------------  ---------------      ----- ------------  ---------------
     6      2.390338  1 C  s                 38     -1.091435  7 H  s          
    36     -1.091435  6 H  s                 32     -1.062662  3 H  s          
    21     -0.653343  2 O  s                 34      0.444430  4 H  s          
    23     -0.222516  2 O  py                 2      0.218585  1 C  s          
     8      0.198254  1 C  py                22      0.187373  2 O  px         
 
 Vector   12  Occ=0.000000D+00  E= 1.413703D-01  Symmetry=a'
              MO Center=  4.3D-01,  8.5D-01, -6.7D-16, r^2= 2.8D+00
   Bfn.  Coefficient  Atom+Function         Bfn.  Coefficient  Atom+Function  
  ----- ------------  ---------------      ----- ------------  ---------------
    32      1.675201  3 H  s                  7     -1.171578  1 C  px         
    36     -0.649900  6 H  s                 38     -0.649900  7 H  s          
     8     -0.516596  1 C  py                 3     -0.409420  1 C  px         
    34     -0.334571  4 H  s                 23     -0.302616  2 O  py         
    21     -0.187213  2 O  s                 19     -0.185652  2 O  py         
 
 Vector   13  Occ=0.000000D+00  E= 1.516547D-01  Symmetry=a"
              MO Center= -4.5D-01,  1.0D+00, -2.8D-14, r^2= 2.7D+00
   Bfn.  Coefficient  Atom+Function         Bfn.  Coefficient  Atom+Function  
  ----- ------------  ---------------      ----- ------------  ---------------
    36      1.478478  6 H  s                 38     -1.478478  7 H  s          
     9      1.289434  1 C  pz                 5      0.473487  1 C  pz         
    24     -0.239222  2 O  pz         
 
 Vector   14  Occ=0.000000D+00  E= 1.741061D-01  Symmetry=a'
              MO Center= -2.1D-02,  2.9D-01,  2.8D-16, r^2= 2.6D+00
   Bfn.  Coefficient  Atom+Function         Bfn.  Coefficient  Atom+Function  
  ----- ------------  ---------------      ----- ------------  ---------------
     8      1.192130  1 C  py                34      0.796898  4 H  s          
    23      0.767457  2 O  py                 6     -0.628968  1 C  s          
     7     -0.622194  1 C  px                32      0.612746  3 H  s          
    21      0.607205  2 O  s                 36     -0.504143  6 H  s          
    38     -0.504143  7 H  s                 19      0.377965  2 O  py         
 
 Vector   15  Occ=0.000000D+00  E= 5.062970D-01  Symmetry=a'
              MO Center=  7.3D-02,  6.4D-01,  1.6D-17, r^2= 1.9D+00
   Bfn.  Coefficient  Atom+Function         Bfn.  Coefficient  Atom+Function  
  ----- ------------  ---------------      ----- ------------  ---------------
     8      1.513150  1 C  py                 4     -0.913054  1 C  py         
    21      0.875365  2 O  s                  6     -0.555033  1 C  s          
     2      0.371428  1 C  s                  7     -0.303373  1 C  px         
    23      0.289634  2 O  py                34      0.289424  4 H  s          
    19     -0.283199  2 O  py                17     -0.162502  2 O  s          
 
 Vector   16  Occ=0.000000D+00  E= 5.535015D-01  Symmetry=a'
              MO Center= -2.6D-01,  5.7D-01,  1.1D-15, r^2= 2.1D+00
   Bfn.  Coefficient  Atom+Function         Bfn.  Coefficient  Atom+Function  
  ----- ------------  ---------------      ----- ------------  ---------------
     7      1.624144  1 C  px                 3     -0.724626  1 C  px         
    31     -0.493764  3 H  s                 32     -0.390556  3 H  s          
     8      0.351714  1 C  py                 4     -0.236174  1 C  py         
    21      0.225218  2 O  s                 35      0.198678  6 H  s          
    37      0.198678  7 H  s                 17     -0.183139  2 O  s          
 
 Vector   17  Occ=0.000000D+00  E= 5.633862D-01  Symmetry=a"
              MO Center=  2.3D-01,  5.6D-01, -4.6D-16, r^2= 2.0D+00
   Bfn.  Coefficient  Atom+Function         Bfn.  Coefficient  Atom+Function  
  ----- ------------  ---------------      ----- ------------  ---------------
     9     -1.677148  1 C  pz                 5      0.722849  1 C  pz         
    37      0.409947  7 H  s                 35     -0.409947  6 H  s          
    38      0.356639  7 H  s                 36     -0.356639  6 H  s          
    20      0.241125  2 O  pz                12     -0.195209  1 C  dxz        
 
 Vector   18  Occ=0.000000D+00  E= 7.337669D-01  Symmetry=a'
              MO Center= -3.1D-01, -4.5D-01, -3.3D-16, r^2= 2.5D+00
   Bfn.  Coefficient  Atom+Function         Bfn.  Coefficient  Atom+Function  
[...]
          -0.048236122039          14.188995963894           0.000000000000
           0.000000000000           0.000000000000          75.544689936806
 
     Multipole analysis of the density
     ---------------------------------
 
     L   x y z        total         alpha         beta         nuclear
     -   - - -        -----         -----         ----         -------
     0   0 0 0      0.000000     -9.000000     -9.000000     18.000000
 
     1   1 0 0     -0.583777     -0.273359     -0.273359     -0.037058
     1   0 1 0      0.321733      0.192575      0.192575     -0.063417
     1   0 0 1      0.000000      0.000000      0.000000      0.000000
 
     2   2 0 0     -8.758042     -8.492889     -8.492889      8.227736
     2   1 1 0      1.626980      0.028331      0.028331      1.570319
     2   1 0 1      0.000000      0.000000      0.000000      0.000000
     2   0 2 0     -9.517728    -25.656245    -25.656245     41.794762
     2   0 1 1      0.000000      0.000000      0.000000      0.000000
     2   0 0 2    -10.098242     -7.897975     -7.897975      5.697708
 

 Parallel integral file used       5 records with       0 large values

 Line search: 
     step= 1.00 grad=-2.9D-08 hess= 3.3D-08 energy=   -115.714405 mode=accept  
 new step= 1.00                   predicted energy=   -115.714405

          --------
          Step   3
          --------
 
 
                         Geometry "geometry" -> "geometry"
                         ---------------------------------
 
 Output coordinates in angstroms (scale by  1.889725989 to convert to a.u.)
 
  No.       Tag          Charge          X              Y              Z
 ---- ---------------- ---------- -------------- -------------- --------------
    1 C                    6.0000     0.01029843     0.66066361     0.00000000
    2 O                    8.0000     0.08634161    -0.75595192     0.00000000
    3 H                    1.0000     1.03928488     1.03048105     0.00000000
    4 H                    1.0000    -0.81962535    -1.09882641     0.00000000
    5 X                    0.0000    -0.77870670     1.27504526     0.00000000
    6 H                    1.0000    -0.49589658     1.05920999    -0.89317437
    7 H                    1.0000    -0.49589658     1.05920999     0.89317437
 
      Atomic Mass 
      ----------- 
 
      C                 12.000000
      O                 15.994910
      H                  1.007825
 

 Effective nuclear repulsion energy (a.u.)      40.2178937849

            Nuclear Dipole moment (a.u.) 
            ----------------------------
        X                 Y               Z
 ---------------- ---------------- ----------------
    -0.0370578744    -0.0634174677     0.0000000000
 
      Symmetry information
      --------------------
 
 Group name             Cs        
 Group number              2
 Group order               2
 No. of unique centers     6
 
      Symmetry unique atoms
 
     1    2    3    4    5    6
 
                                 NWChem DFT Module
                                 -----------------
 
 
                                  Test with B3LYP
 
 

  The DFT is already converged 

         Total DFT energy =   -115.714405140620

  acc std    1.00000000000000D-011
  acc std    1.00000000000000D-011
  acc std    1.00000000000000D-011
  acc std    1.00000000000000D-011
  acc std    1.00000000000000D-011
  acc std    1.00000000000000D-011
 
 
                            NWChem DFT Gradient Module
                            --------------------------
 
 
                                  Test with B3LYP
 
 

  charge          =   0.00
  wavefunction    = closed shell

  Using symmetry
  acc std    1.00000000000000D-011
  acc std    1.00000000000000D-011
  acc std    1.00000000000000D-011
  acc std    1.00000000000000D-011
  acc std    1.00000000000000D-011
  acc std    1.00000000000000D-011
  tol2e    1.00000000000000D-008
  tol2e    1.00000000000000D-008
  acc std    1.00000000000000D-011
  acc std    1.00000000000000D-011
  acc std    1.00000000000000D-011
  acc std    1.00000000000000D-011


                         DFT ENERGY GRADIENTS

    atom               coordinates                        gradient
                 x          y          z           x          y          z
   1 C       0.019461   1.248473   0.000000    0.000001   0.000000   0.000000
   2 O       0.163162  -1.428542   0.000000   -0.000001  -0.000016   0.000000
   3 H       1.963964   1.947327   0.000000    0.000001   0.000002   0.000000
   4 H      -1.548867  -2.076481   0.000000    0.000002   0.000005   0.000000
   5 X      -1.471542   2.409486   0.000000    0.000000   0.000000   0.000000
   6 H      -0.937109   2.001617  -1.687855   -0.000001   0.000005  -0.000001
   7 H      -0.937109   2.001617   1.687855   -0.000001   0.000005   0.000001
 
                 ----------------------------------------
                 |  Time  |  1-e(secs)   |  2-e(secs)   |
                 ----------------------------------------
                 |  CPU   |       0.01   |       1.07   |
                 ----------------------------------------
                 |  WALL  |       0.00   |       1.07   |
                 ----------------------------------------

  Step       Energy      Delta E   Gmax     Grms     Xrms     Xmax   Walltime
  ---- ---------------- -------- -------- -------- -------- -------- --------
@    3    -115.71440514  4.4D-09  0.00001  0.00000  0.00007  0.00012     57.8
                                     ok       ok       ok       ok  



                                Z-matrix (user)
                                -------- 

 Units are Angstrom for bonds and degrees for angles

  Constrained variables are marked with a plus sign (+).

 
      Type          Name      I     J     K     L     M      Value     Gradient
      ----------- --------  ----- ----- ----- ----- ----- ---------- ----------
    1 Stretch      AB          2     1                       1.41865    0.00001
    2 Stretch      AH3         3     1                       1.09342    0.00000
    3 Bend         H3AB        3     1     2               106.69576    0.00000
    4 Stretch      BH9         4     2                       0.96868    0.00000
    5 Bend         H9BA        4     2     1               107.65711    0.00000
    6 Torsion                  4     2     1     3         180.00000    0.00000
    7 Stretch                  5     1                       1.00000    0.00000
    8 Bend         BAH12       5     1     2               130.97980    0.00000
    9 Torsion                  5     1     2     3         180.00000    0.00000
   10+Stretch      AH1         6     1                       1.10129    0.00000
   11+Bend         H1AH2       6     1     5                54.19707    0.00000
   12 Torsion                  6     1     5     2          90.22184    0.00000
   13+Stretch      AH1         7     1                       1.10129    0.00000
   14+Bend         H1AH2       7     1     5                54.19707    0.00000
   15 Torsion                  7     1     5     2         -90.22184    0.00000
 

      ----------------------
      Optimization converged
      ----------------------


  Step       Energy      Delta E   Gmax     Grms     Xrms     Xmax   Walltime
  ---- ---------------- -------- -------- -------- -------- -------- --------
@    3    -115.71440514  4.4D-09  0.00001  0.00000  0.00007  0.00012     57.8
                                     ok       ok       ok       ok  



                                Z-matrix (user)
                                -------- 

 Units are Angstrom for bonds and degrees for angles

  Constrained variables are marked with a plus sign (+).

 
      Type          Name      I     J     K     L     M      Value     Gradient
      ----------- --------  ----- ----- ----- ----- ----- ---------- ----------
    1 Stretch      AB          2     1                       1.41865    0.00001
    2 Stretch      AH3         3     1                       1.09342    0.00000
    3 Bend         H3AB        3     1     2               106.69576    0.00000
    4 Stretch      BH9         4     2                       0.96868    0.00000
    5 Bend         H9BA        4     2     1               107.65711    0.00000
    6 Torsion                  4     2     1     3         180.00000    0.00000
    7 Stretch                  5     1                       1.00000    0.00000
    8 Bend         BAH12       5     1     2               130.97980    0.00000
    9 Torsion                  5     1     2     3         180.00000    0.00000
   10+Stretch      AH1         6     1                       1.10129    0.00000
   11+Bend         H1AH2       6     1     5                54.19707    0.00000
   12 Torsion                  6     1     5     2          90.22184    0.00000
   13+Stretch      AH1         7     1                       1.10129    0.00000
   14+Bend         H1AH2       7     1     5                54.19707    0.00000
   15 Torsion                  7     1     5     2         -90.22184    0.00000
 
 
 
                         Geometry "geometry" -> "geometry"
                         ---------------------------------
 
 Output coordinates in angstroms (scale by  1.889725989 to convert to a.u.)
 
  No.       Tag          Charge          X              Y              Z
 ---- ---------------- ---------- -------------- -------------- --------------
    1 C                    6.0000     0.01029843     0.66066361     0.00000000
    2 O                    8.0000     0.08634161    -0.75595192     0.00000000
    3 H                    1.0000     1.03928488     1.03048105     0.00000000
    4 H                    1.0000    -0.81962535    -1.09882641     0.00000000
    5 X                    0.0000    -0.77870670     1.27504526     0.00000000
    6 H                    1.0000    -0.49589658     1.05920999    -0.89317437
    7 H                    1.0000    -0.49589658     1.05920999     0.89317437
 
      Atomic Mass 
      ----------- 
 
      C                 12.000000
      O                 15.994910
      H                  1.007825
 

 Effective nuclear repulsion energy (a.u.)      40.2178937849

            Nuclear Dipole moment (a.u.) 
            ----------------------------
        X                 Y               Z
 ---------------- ---------------- ----------------
    -0.0370578744    -0.0634174677     0.0000000000
 
      Symmetry information
      --------------------
 
 Group name             Cs        
 Group number              2
 Group order               2
 No. of unique centers     6
 
      Symmetry unique atoms
 
     1    2    3    4    5    6
 
 
                Final and change from initial internal coordinates
                --------------------------------------------------
 


                                Z-matrix (user)
                                -------- 

 Units are Angstrom for bonds and degrees for angles

  Constrained variables are marked with a plus sign (+).

 
      Type          Name      I     J     K     L     M      Value       Change
      ----------- --------  ----- ----- ----- ----- ----- ---------- ----------
    1 Stretch      AB          2     1                       1.41865   -0.00121
    2 Stretch      AH3         3     1                       1.09342   -0.00440
    3 Bend         H3AB        3     1     2               106.69576    0.16157
    4 Stretch      BH9         4     2                       0.96868   -0.00302
    5 Bend         H9BA        4     2     1               107.65711    0.90077
    6 Torsion                  4     2     1     3         180.00000    0.00000
    7 Stretch                  5     1                       1.00000    0.00000
    8 Bend         BAH12       5     1     2               130.97980   -0.29169
    9 Torsion                  5     1     2     3         180.00000    0.00000
   10+Stretch      AH1         6     1                       1.10129   -0.00539
   11+Bend         H1AH2       6     1     5                54.19707    0.11582
   12 Torsion                  6     1     5     2          90.22184   -0.20262
   13+Stretch      AH1         7     1                       1.10129   -0.00539
   14+Bend         H1AH2       7     1     5                54.19707    0.11582
   15 Torsion                  7     1     5     2         -90.22184    0.20262
 
 ==============================================================================
                                internuclear distances
 ------------------------------------------------------------------------------
       center one      |      center two      | atomic units |  angstroms
 ------------------------------------------------------------------------------
    2 O                |   1 C                |     2.68087  |     1.41866
    3 H                |   1 C                |     2.06627  |     1.09342
    4 H                |   2 O                |     1.83054  |     0.96868
    5 X                |   1 C                |     1.88972  |     1.00000
    5 X                |   2 O                |     4.17166  |     2.20755
    5 X                |   3 H                |     3.46645  |     1.83437
    5 X                |   4 H                |     4.48663  |     2.37422
    6 H                |   1 C                |     2.08113  |     1.10129
    6 H                |   5 X                |     1.81682  |     0.96142
    7 H                |   1 C                |     2.08113  |     1.10129
    7 H                |   5 X                |     1.81682  |     0.96142
 ------------------------------------------------------------------------------
                         number of included internuclear distances:         11
 ==============================================================================



 ==============================================================================
                                 internuclear angles
 ------------------------------------------------------------------------------
        center 1       |       center 2       |       center 3       |  degrees
 ------------------------------------------------------------------------------
    2 O                |   1 C                |   3 H                |   106.70
    2 O                |   1 C                |   5 X                |   130.98
    2 O                |   1 C                |   6 H                |   112.71
    2 O                |   1 C                |   7 H                |   112.71
    3 H                |   1 C                |   5 X                |   122.32
    3 H                |   1 C                |   6 H                |   108.07
    3 H                |   1 C                |   7 H                |   108.07
    1 C                |   5 X                |   6 H                |    68.28
    1 C                |   5 X                |   7 H                |    68.28
    6 H                |   1 C                |   7 H                |   108.39
    1 C                |   2 O                |   4 H                |   107.66
    2 O                |   1 C                |   5 X                |   130.98
    4 H                |   2 O                |   5 X                |    87.66
    3 H                |   1 C                |   5 X                |   122.32
    4 H                |   2 O                |   5 X                |    87.66
    5 X                |   1 C                |   2 O                |   130.98
    5 X                |   1 C                |   3 H                |   122.32
    1 C                |   5 X                |   4 H                |    53.08
    1 C                |   5 X                |   6 H                |    68.28
    1 C                |   5 X                |   7 H                |    68.28
    2 O                |   5 X                |   3 H                |    59.27
    5 X                |   2 O                |   4 H                |    87.66
    2 O                |   5 X                |   6 H                |    71.23
    2 O                |   5 X                |   7 H                |    71.23
    3 H                |   5 X                |   4 H                |    83.33
    3 H                |   5 X                |   6 H                |    71.25
    3 H                |   5 X                |   7 H                |    71.25
    4 H                |   5 X                |   6 H                |    77.33
    4 H                |   5 X                |   7 H                |    77.33
    6 H                |   5 X                |   7 H                |   136.56
    6 H                |   5 X                |   1 C                |    68.28
    7 H                |   5 X                |   1 C                |    68.28
 ------------------------------------------------------------------------------
                            number of included internuclear angles:         32
 ==============================================================================




 Task  times  cpu:       18.9s     wall:       21.4s
 
 
                                NWChem Input Module
                                -------------------
 
 
 Summary of allocated global arrays
-----------------------------------
  No active global arrays



                         GA Statistics for process    0
                         ------------------------------

       create   destroy   get      put      acc     scatter   gather  read&inc
calls: 1349     1349     1.61e+05 1.50e+04 5.04e+04   10        0        0     
number of processes/call 1.00e+00 1.02e+00 1.01e+00 2.00e+00 0.00e+00
bytes total:             4.95e+07 1.08e+07 2.43e+07 7.20e+02 0.00e+00 0.00e+00
bytes remote:            2.45e+06 1.23e+06 1.39e+06 3.20e+02 0.00e+00 0.00e+00
Max memory consumed for GA by this process: 393376 bytes
 



                                  ACKNOWLEDGEMENT
                                  ---------------

            Please use the following acknowledgement where appropriate 
            for results obtained with NWChem:

            High Performance Computational Chemistry Group, "NWChem, A
            Computational Chemistry Package for Parallel Computers, 
            Version 4.1" (2002), Pacific Northwest National Laboratory,
            Richland, Washington 99352-0999, USA.


                                     CITATION
                                     --------

            Please use the following citation when publishing results
            obtained with NWChem:

            R. J. Harrison, J. A. Nichols, T. P. Straatsma, M. Dupuis,
            E. J. Bylaska, G. I. Fann, T. L. Windus, E. Apra, W. de Jong,
            S. Hirata, M. T. Hackler, J. Anchell, D. Bernholdt, P. Borowski,
            T. Clark, D. Clerc, H. Dachsel, M. Deegan, K. Dyall, D. Elwood,
            H. Fruchtl, E. Glendening, M. Gutowski, K. Hirao, A. Hess,
            J. Jaffe, B. Johnson, J. Ju, R. Kendall, R. Kobayashi, R. Kutteh,
            Z. Lin, R. Littlefield, X. Long, B. Meng, T. Nakajima,
            J. Nieplocha, S. Niu, M. Rosing, G. Sandrone, M. Stave, H. Taylor,
            G. Thomas, J. van Lenthe, K. Wolinski, A. Wong, and Z. Zhang,
            "NWChem, A Computational Chemistry Package for Parallel Computers, 
            Version 4.1" (2002),
                      Pacific Northwest National Laboratory,
                      Richland, Washington 99352-0999, USA.



 Total times  cpu:       50.8s     wall:       57.8s
MA_summarize_allocated_blocks: starting scan ...
MA_summarize_allocated_blocks: scan completed: 0 heap blocks, 0 stack blocks
MA usage statistics:

	allocation statistics:
					      heap	     stack
					      ----	     -----
	current number of blocks	         0	         0
	maximum number of blocks	        25	        48
	current total bytes		         0	         0
	maximum total bytes		   4078620	  43745244
	maximum total K-bytes		      4079	     43746
	maximum total M-bytes		         5	        44
