 argument  1 = ActnAcntrl_VEMExc_TDB3LYP.nw



============================== echo of input deck ==============================

echo 'VEM/SMD/TDDFT-B3LYP/6-311+G(d) vertical excitation energy - acetone in acetonitrile and also in gas at the ground-state geometry'

start ActnAcntrl_VEMExc_TDB3LYP

geometry nocenter
 O        0.00000     0.00000     1.40052
 C        0.00000     0.00000     0.18938
 C        0.00000     1.29054    -0.60972
 C        0.00000    -1.29054    -0.60972
 H        0.00000     2.14865     0.06128
 H        0.00000    -2.14865     0.06128
 H        0.87842     1.33868    -1.26162
 H        0.87842    -1.33868    -1.26162
 H       -0.87842     1.33868    -1.26162
 H       -0.87842    -1.33868    -1.26162
symmetry c1
end

basis
 * library 6-311+G*
end

dft
 XC b3lyp
end

cosmo
 do_cosmo_smd true
 do_cosmo_vem 1
 solvent acetntrl
end

tddft
 nroots 10
 target 1
 singlet
 notriplet
 algorithm 1
 civecs
 grad
   root 1
   solve_thresh 1d-05
 end
end

# Calculation in the liquid phase

task tddft gradient

# Calculation in the gas phase at the same geometry

geometry nocenter
 O        0.00000    -0.00000     1.40076
 C        0.00000     0.00000     0.18965
 C        0.00000     1.29059    -0.60944
 C        0.00000    -1.29059    -0.60944
 H        0.00000     2.14875     0.06138
 H        0.00000    -2.14875     0.06138
 H        0.87809     1.33798    -1.26194
 H        0.87809    -1.33798    -1.26194
 H       -0.87809     1.33798    -1.26194
 H       -0.87809    -1.33798    -1.26194
symmetry c1
end

cosmo
off
end

task tddft energy
================================================================================


                                         
                                         


              Northwest Computational Chemistry Package (NWChem) 6.5
              ------------------------------------------------------


                    Environmental Molecular Sciences Laboratory
                       Pacific Northwest National Laboratory
                                Richland, WA 99352

                              Copyright (c) 1994-2014
                       Pacific Northwest National Laboratory
                            Battelle Memorial Institute

             NWChem is an open-source computational chemistry package
                        distributed under the terms of the
                      Educational Community License (ECL) 2.0
             A copy of the license is included with this distribution
                              in the LICENSE.TXT file

                                  ACKNOWLEDGMENT
                                  --------------

            This software and its documentation were developed at the
            EMSL at Pacific Northwest National Laboratory, a multiprogram
            national laboratory, operated for the U.S. Department of Energy
            by Battelle under Contract Number DE-AC05-76RL01830. Support
            for this work was provided by the Department of Energy Office
            of Biological and Environmental Research, Office of Basic
            Energy Sciences, and the Office of Advanced Scientific Computing.


           Job information
           ---------------

    hostname        = orion
    program         = ../../../bin/LINUX64/nwchem
    date            = Wed Sep  3 15:23:54 2014

    compiled        = Sat_Aug_30_06:49:11_2014
    source          = /home/niri/nwchem/nwchem-6.5
    nwchem branch   = 6.5
    nwchem revision = 26025
    ga revision     = 10501
    input           = ActnAcntrl_VEMExc_TDB3LYP.nw
    prefix          = ActnAcntrl_VEMExc_TDB3LYP.
    data base       = ./ActnAcntrl_VEMExc_TDB3LYP.db
    status          = startup
    nproc           =        4
    time left       =     -1s



           Memory information
           ------------------

    heap     =   13107194 doubles =    100.0 Mbytes
    stack    =   13107199 doubles =    100.0 Mbytes
    global   =   26214400 doubles =    200.0 Mbytes (distinct from heap & stack)
    total    =   52428793 doubles =    400.0 Mbytes
    verify   = yes
    hardfail = no 


           Directory information
           ---------------------

  0 permanent = .
  0 scratch   = .




                                NWChem Input Module
                                -------------------



 Scaling coordinates for geometry "geometry" by  1.889725989
 (inverse scale =  0.529177249)

 Turning off AUTOSYM since
 SYMMETRY directive was detected!


          ------
          auto-z
          ------


                             Geometry "geometry" -> ""
                             -------------------------

 Output coordinates in angstroms (scale by  1.889725989 to convert to a.u.)

  No.       Tag          Charge          X              Y              Z
 ---- ---------------- ---------- -------------- -------------- --------------
    1 O                    8.0000     0.00000000     0.00000000     1.40052000
    2 C                    6.0000     0.00000000     0.00000000     0.18938000
    3 C                    6.0000     0.00000000     1.29054000    -0.60972000
    4 C                    6.0000     0.00000000    -1.29054000    -0.60972000
    5 H                    1.0000     0.00000000     2.14865000     0.06128000
    6 H                    1.0000     0.00000000    -2.14865000     0.06128000
    7 H                    1.0000     0.87842000     1.33868000    -1.26162000
    8 H                    1.0000     0.87842000    -1.33868000    -1.26162000
    9 H                    1.0000    -0.87842000     1.33868000    -1.26162000
   10 H                    1.0000    -0.87842000    -1.33868000    -1.26162000

      Atomic Mass 
      ----------- 

      O                 15.994910
      C                 12.000000
      H                  1.007825


 Effective nuclear repulsion energy (a.u.)     119.2344108564

            Nuclear Dipole moment (a.u.) 
            ----------------------------
        X                 Y               Z
 ---------------- ---------------- ----------------
     0.0000000000     0.0000000000     0.1887458317



                                Z-matrix (autoz)
                                -------- 

 Units are Angstrom for bonds and degrees for angles

      Type          Name      I     J     K     L     M      Value
      ----------- --------  ----- ----- ----- ----- ----- ----------
    1 Stretch                  1     2                       1.21114
    2 Stretch                  2     3                       1.51791
    3 Stretch                  2     4                       1.51791
    4 Stretch                  3     5                       1.08931
    5 Stretch                  3     7                       1.09495
    6 Stretch                  3     9                       1.09495
    7 Stretch                  4     6                       1.08931
    8 Stretch                  4     8                       1.09495
    9 Stretch                  4    10                       1.09495
   10 Bend                     1     2     3               121.76572
   11 Bend                     1     2     4               121.76572
   12 Bend                     2     3     5               110.21062
   13 Bend                     2     3     7               110.53692
   14 Bend                     2     3     9               110.53692
   15 Bend                     2     4     6               110.21062
   16 Bend                     2     4     8               110.53692
   17 Bend                     2     4    10               110.53692
   18 Bend                     3     2     4               116.46857
   19 Bend                     5     3     7               109.39666
   20 Bend                     5     3     9               109.39666
   21 Bend                     6     4     8               109.39666
   22 Bend                     6     4    10               109.39666
   23 Bend                     7     3     9               106.69054
   24 Bend                     8     4    10               106.69054
   25 Torsion                  1     2     3     5           0.00000
   26 Torsion                  1     2     3     7         121.05266
   27 Torsion                  1     2     3     9        -121.05266
   28 Torsion                  1     2     4     6           0.00000
   29 Torsion                  1     2     4     8        -121.05266
   30 Torsion                  1     2     4    10         121.05266
   31 Torsion                  3     2     4     6         180.00000
   32 Torsion                  3     2     4     8          58.94734
   33 Torsion                  3     2     4    10         -58.94734
   34 Torsion                  4     2     3     5         180.00000
   35 Torsion                  4     2     3     7         -58.94734
   36 Torsion                  4     2     3     9          58.94734


            XYZ format geometry
            -------------------
    10
 geometry
 O                     0.00000000     0.00000000     1.40052000
 C                     0.00000000     0.00000000     0.18938000
 C                     0.00000000     1.29054000    -0.60972000
 C                     0.00000000    -1.29054000    -0.60972000
 H                     0.00000000     2.14865000     0.06128000
 H                     0.00000000    -2.14865000     0.06128000
 H                     0.87842000     1.33868000    -1.26162000
 H                     0.87842000    -1.33868000    -1.26162000
 H                    -0.87842000     1.33868000    -1.26162000
 H                    -0.87842000    -1.33868000    -1.26162000

 ==============================================================================
                                internuclear distances
 ------------------------------------------------------------------------------
       center one      |      center two      | atomic units |  angstroms
 ------------------------------------------------------------------------------
    2 C                |   1 O                |     2.28872  |     1.21114
    3 C                |   2 C                |     2.86844  |     1.51791
    4 C                |   2 C                |     2.86844  |     1.51791
    5 H                |   3 C                |     2.05850  |     1.08931
    6 H                |   4 C                |     2.05850  |     1.08931
    7 H                |   3 C                |     2.06915  |     1.09495
    8 H                |   4 C                |     2.06915  |     1.09495
    9 H                |   3 C                |     2.06915  |     1.09495
   10 H                |   4 C                |     2.06915  |     1.09495
 ------------------------------------------------------------------------------
                         number of included internuclear distances:          9
 ==============================================================================



 ==============================================================================
                                 internuclear angles
 ------------------------------------------------------------------------------
        center 1       |       center 2       |       center 3       |  degrees
 ------------------------------------------------------------------------------
    1 O                |   2 C                |   3 C                |   121.77
    1 O                |   2 C                |   4 C                |   121.77
    3 C                |   2 C                |   4 C                |   116.47
    2 C                |   3 C                |   5 H                |   110.21
    2 C                |   3 C                |   7 H                |   110.54
    2 C                |   3 C                |   9 H                |   110.54
    5 H                |   3 C                |   7 H                |   109.40
    5 H                |   3 C                |   9 H                |   109.40
    7 H                |   3 C                |   9 H                |   106.69
    2 C                |   4 C                |   6 H                |   110.21
    2 C                |   4 C                |   8 H                |   110.54
    2 C                |   4 C                |  10 H                |   110.54
    6 H                |   4 C                |   8 H                |   109.40
    6 H                |   4 C                |  10 H                |   109.40
    8 H                |   4 C                |  10 H                |   106.69
 ------------------------------------------------------------------------------
                            number of included internuclear angles:         15
 ==============================================================================



  library name resolved from: environment
  library file name is: </home/niri/nwchem/nwchem-6.5/src/basis/libraries/>
  


 Summary of "ao basis" -> "" (cartesian)
 ------------------------------------------------------------------------------
       Tag                 Description            Shells   Functions and Types
 ---------------- ------------------------------  ------  ---------------------
 *                          6-311+G*                  on all atoms 


 tddft_input: filename not found; default name will be used

                                 NWChem DFT Module
                                 -----------------


                      Basis "ao basis" -> "ao basis" (cartesian)
                      -----
  O (Oxygen)
  ----------
            Exponent  Coefficients 
       -------------- ---------------------------------------------------------
  1 S  8.58850000E+03  0.001895
  1 S  1.29723000E+03  0.014386
  1 S  2.99296000E+02  0.070732
  1 S  8.73771000E+01  0.240001
  1 S  2.56789000E+01  0.594797
  1 S  3.74004000E+00  0.280802

  2 S  4.21175000E+01  0.113889
  2 S  9.62837000E+00  0.920811
  2 S  2.85332000E+00 -0.003274

  3 P  4.21175000E+01  0.036511
  3 P  9.62837000E+00  0.237153
  3 P  2.85332000E+00  0.819702

  4 S  9.05661000E-01  1.000000

  5 P  9.05661000E-01  1.000000

  6 S  2.55611000E-01  1.000000

  7 P  2.55611000E-01  1.000000

  8 S  8.45000000E-02  1.000000

  9 P  8.45000000E-02  1.000000

 10 D  1.29200000E+00  1.000000

  C (Carbon)
  ----------
            Exponent  Coefficients 
       -------------- ---------------------------------------------------------
  1 S  4.56324000E+03  0.001967
  1 S  6.82024000E+02  0.015231
  1 S  1.54973000E+02  0.076127
  1 S  4.44553000E+01  0.260801
  1 S  1.30290000E+01  0.616462
  1 S  1.82773000E+00  0.221006

  2 S  2.09642000E+01  0.114660
  2 S  4.80331000E+00  0.919999
  2 S  1.45933000E+00 -0.003031

  3 P  2.09642000E+01  0.040249
  3 P  4.80331000E+00  0.237594
  3 P  1.45933000E+00  0.815854

  4 S  4.83456000E-01  1.000000

  5 P  4.83456000E-01  1.000000

  6 S  1.45585000E-01  1.000000

  7 P  1.45585000E-01  1.000000

  8 S  4.38000000E-02  1.000000

  9 P  4.38000000E-02  1.000000

 10 D  6.26000000E-01  1.000000

  H (Hydrogen)
  ------------
            Exponent  Coefficients 
       -------------- ---------------------------------------------------------
  1 S  3.38650000E+01  0.025494
  1 S  5.09479000E+00  0.190373
  1 S  1.15879000E+00  0.852161

  2 S  3.25840000E-01  1.000000

  3 S  1.02741000E-01  1.000000



 Summary of "ao basis" -> "ao basis" (cartesian)
 ------------------------------------------------------------------------------
       Tag                 Description            Shells   Functions and Types
 ---------------- ------------------------------  ------  ---------------------
 O                          6-311+G*                10       23   5s4p1d
 C                          6-311+G*                10       23   5s4p1d
 H                          6-311+G*                 3        3   3s




 Summary of "ao basis" -> "ao basis" (cartesian)
 ------------------------------------------------------------------------------
       Tag                 Description            Shells   Functions and Types
 ---------------- ------------------------------  ------  ---------------------
 O                          6-311+G*                10       23   5s4p1d
 C                          6-311+G*                10       23   5s4p1d
 H                          6-311+G*                 3        3   3s



 solvent parameters
 solvname_short: acetntrl
 solvname_long:  acetonitrile                       
 dielec:       35.6880
 dielecinf:     1.8069
 nonaqueous SMD model solvent descriptors
 dielec:       35.6880
 sola:          0.0700
 solb:          0.3200
 solc:          0.0000
 solg:         41.2500
 solh:          0.0000
 soln:          1.3442

          ---------------
          -cosmo- solvent
          ---------------
 dielectric constant -eps-     =  35.69
 charge screening approach     =   2
 screen = (eps-1)/(eps    )    =   0.97198
 -lineq- algorithm             =   0
 -bem- low  level              =   3
 -bem- high level              =   4
 -bem- from -octahedral-
 solvent radius (ang.)         =   0.000
 gaussian surface charge width =   0.98000
 degree of switching           =   1.00000
 switching function tolerance  =   0.00010
 atomic radii = 
 --------------
    1  8.000  2.168
    2  6.000  1.850
    3  6.000  1.850
    4  6.000  1.850
    5  1.000  1.200
    6  1.000  1.200
    7  1.000  1.200
    8  1.000  1.200
    9  1.000  1.200
   10  1.000  1.200

 solvent accessible surface
 --------------------------

 ---------- ATOMIC COORDINATES (A.U.) ------------ VDWR(ANG.) --
     1    0.00000000    0.00000000    2.64659904     2.168
     2    0.00000000    0.00000000    0.35787631     1.850
     3    0.00000000    2.43876698   -1.15220373     1.850
     4    0.00000000   -2.43876698   -1.15220373     1.850
     5    0.00000000    4.06035975    0.11580241     1.200
     6    0.00000000   -4.06035975    0.11580241     1.200
     7    1.65997310    2.52973839   -2.38411610     1.200
     8    1.65997310   -2.52973839   -2.38411610     1.200
     9   -1.65997310    2.52973839   -2.38411610     1.200
    10   -1.65997310   -2.52973839   -2.38411610     1.200
 number of segments per atom =        128
 number of   points per atom =        128
 atom (   nspa,  nppa )
 ----------------------
    1 (     88,     0 )       0
    2 (     20,     0 )       0
    3 (     56,     0 )       0
    4 (     56,     0 )       0
    5 (     48,     0 )       0
    6 (     48,     0 )       0
    7 (     53,     0 )       0
    8 (     53,     0 )       0
    9 (     53,     0 )       0
   10 (     53,     0 )       0
 number of -cosmo- surface points =      528
 molecular surface =    112.789 angstrom**2
 molecular volume  =     65.683 angstrom**3
 ...... end of -cosmo- initialization ......


 G(SMD-CDS) energy (kcal/mol)  =    -0.754
 SMD-CDS SASA (angstrom**2)    =   125.391

  Caching 1-el integrals 

            General Information
            -------------------
          SCF calculation type: DFT
          Wavefunction type:  closed shell.
          No. of atoms     :    10
          No. of electrons :    32
           Alpha electrons :    16
            Beta electrons :    16
          Charge           :     0
          Spin multiplicity:     1
          Use of symmetry is: off; symmetry adaption is: off
          Maximum number of iterations:  30
          AO basis - number of functions:   110
                     number of shells:    58
          Convergence on energy requested: 1.00D-06
          Convergence on density requested: 1.00D-05
          Convergence on gradient requested: 5.00D-04

              XC Information
              --------------
                         B3LYP Method XC Potential
                     Hartree-Fock (Exact) Exchange  0.200          
                        Slater Exchange Functional  0.800 local    
                    Becke 1988 Exchange Functional  0.720 non-local
              Lee-Yang-Parr Correlation Functional  0.810          
                  VWN I RPA Correlation Functional  0.190 local    

             Grid Information
             ----------------
          Grid used for XC integration:  medium    
          Radial quadrature: Mura-Knowles        
          Angular quadrature: Lebedev. 
          Tag              B.-S. Rad. Rad. Pts. Rad. Cut. Ang. Pts.
          ---              ---------- --------- --------- ---------
          O                   0.60       49          11.0       434
          C                   0.70       49          12.0       434
          H                   0.35       45          12.0       434
          Grid pruning is: on 
          Number of quadrature shells:   466
          Spatial weights used:  Erf1

          Convergence Information
          -----------------------
          Convergence aids based upon iterative change in 
          total energy or number of iterations. 
          Levelshifting, if invoked, occurs when the 
          HOMO/LUMO gap drops below (HL_TOL): 1.00D-02
          DIIS, if invoked, will attempt to extrapolate 
          using up to (NFOCK): 10 stored Fock matrices.

                    Damping( 0%)  Levelshifting(0.5)       DIIS
                  --------------- ------------------- ---------------
          dE  on:    start            ASAP                start   
          dE off:    2 iters         30 iters            30 iters 


      Screening Tolerance Information
      -------------------------------
          Density screening/tol_rho: 1.00D-10
          AO Gaussian exp screening on grid/accAOfunc:  14
          CD Gaussian exp screening on grid/accCDfunc:  20
          XC Gaussian exp screening on grid/accXCfunc:  20
          Schwarz screening/accCoul: 1.00D-08


      Superposition of Atomic Density Guess
      -------------------------------------

 Sum of atomic energies:        -190.78399453

      Non-variational initial energy
      ------------------------------

 Total energy =    -193.058340
 1-e energy   =    -493.133084
 2-e energy   =     180.840333
 HOMO         =      -0.339251
 LUMO         =      -0.017987

   Time after variat. SCF:      0.9
   Time prior to 1st pass:      0.9

 Integral file          = ./ActnAcntrl_VEMExc_TDB3LYP.aoints.0
 Record size in doubles =  65536        No. of integs per rec  =  43688
 Max. records in memory =    146        Max. records in file   =  16985
 No. of bits per label  =      8        No. of bits per value  =     64


 #quartets = 1.290D+06 #integrals = 1.153D+07 #direct =  0.0% #cached =100.0%


File balance: exchanges=     3  moved=    46  time=   0.0


 Grid_pts file          = ./ActnAcntrl_VEMExc_TDB3LYP.gridpts.0
 Record size in doubles =  12289        No. of grid_pts per rec  =   3070
 Max. records in memory =     20        Max. recs in file   =     90585


           Memory utilization after 1st SCF pass: 
           Heap Space remaining (MW):        3.29             3286746
          Stack Space remaining (MW):       13.11            13106348

   convergence    iter        energy       DeltaE   RMS-Dens  Diis-err    time
 ---------------- ----- ----------------- --------- --------- ---------  ------
     COSMO gas phase
 d= 0,ls=0.0,diis     1   -193.0926180336 -3.12D+02  3.66D-02  1.27D+00     4.5
 d= 0,ls=0.0,diis     2   -192.7825417046  3.10D-01  3.09D-02  4.47D+00     5.8
 d= 0,ls=0.0,diis     3   -193.2041932938 -4.22D-01  1.86D-03  9.84D-02     7.1
 d= 0,ls=0.0,diis     4   -193.2116449167 -7.45D-03  5.90D-04  7.91D-03     8.4
 d= 0,ls=0.0,diis     5   -193.2123853779 -7.40D-04  4.10D-04  5.76D-04     9.8
  Resetting Diis
 d= 0,ls=0.0,diis     6   -193.2124577169 -7.23D-05  5.07D-05  1.03D-05    11.2
 d= 0,ls=0.0,diis     7   -193.2124589391 -1.22D-06  1.43D-05  4.64D-07    12.6
 d= 0,ls=0.0,diis     8   -193.2124588068  1.32D-07  1.20D-05  2.04D-06    14.0
 d= 0,ls=0.0,diis     9   -193.2124589845 -1.78D-07  9.33D-07  1.04D-08    15.4

           Memory utilization after 1st SCF pass: 
           Heap Space remaining (MW):        3.28             3284602
          Stack Space remaining (MW):       13.11            13106348

   convergence    iter        energy       DeltaE   RMS-Dens  Diis-err    time
 ---------------- ----- ----------------- --------- --------- ---------  ------
     COSMO solvation phase
 d= 0,ls=0.0,diis     1   -193.2213726190 -8.91D-03  3.73D-03  4.16D-03    18.1
 d= 0,ls=0.0,diis     2   -193.2221180137 -7.45D-04  8.96D-04  8.12D-03    20.7
 d= 0,ls=0.0,diis     3   -193.2228597497 -7.42D-04  2.15D-04  5.04D-04    23.4
 d= 0,ls=0.0,diis     4   -193.2229012162 -4.15D-05  8.09D-05  6.63D-06    26.1
 d= 0,ls=0.0,diis     5   -193.2229022691 -1.05D-06  1.64D-05  1.18D-06    28.8
 d= 0,ls=0.0,diis     6   -193.2229023996 -1.31D-07  3.18D-06  1.43D-07    31.5


         Total DFT energy =     -193.222902399641
      One electron energy =     -496.830483836146
           Coulomb energy =      211.655460903374
    Exchange-Corr. energy =      -27.093278976153
 Nuclear repulsion energy =      119.234410856353

 Numeric. integr. density =       32.000017823288

     Total iterative time =     30.6s


                                COSMO-SMD solvation results
                                ---------------------------
 Reference for the SMD model:
 Marenich, A. V.; Cramer, C. J.; Truhlar, D. G. J. Phys. Chem. B 2009, 113, 6378

             internal energy in gas <Psi(g)|H|Psi(g)> =      -193.2124589845
         internal energy in solvent <Psi(s)|H|Psi(s)> =      -193.2104835034
                               delta internal energy  =         0.0019754811 (    1.24 kcal/mol)
   total free energy in solvent <Psi(s)|H+V/2|Psi(s)> =      -193.2217014163
 polarization energy contribution <Psi(s)|V/2|Psi(s)> =        -0.0112179129 (   -7.04 kcal/mol)
    total free energy in solvent including G(SMD-CDS) =      -193.2229023996
                       G(SMD-CDS) energy contribution =        -0.0012009833 (   -0.75 kcal/mol)
     1 M fixed-concentration free energy of solvation =        -0.0104434151 (   -6.55 kcal/mol)

                       DFT Final Molecular Orbital Analysis
                       ------------------------------------

 Vector    4  Occ=2.000000D+00  E=-1.017139D+01
              MO Center= -2.1D-13, -8.4D-05, -6.1D-01, r^2= 1.7D+00
   Bfn.  Coefficient  Atom+Function         Bfn.  Coefficient  Atom+Function  
  ----- ------------  ---------------      ----- ------------  ---------------
    47      0.398526   3 C  s                70      0.398552   4 C  s         
    48      0.324831   3 C  s                71      0.324852   4 C  s         

 Vector    5  Occ=2.000000D+00  E=-1.055855D+00
              MO Center= -1.7D-12,  2.9D-10,  1.0D+00, r^2= 5.3D-01
   Bfn.  Coefficient  Atom+Function         Bfn.  Coefficient  Atom+Function  
  ----- ------------  ---------------      ----- ------------  ---------------
     6      0.488604   1 O  s                10      0.345771   1 O  s         
    29      0.265188   2 C  s                 2     -0.170711   1 O  s         

 Vector    6  Occ=2.000000D+00  E=-7.660420D-01
              MO Center= -2.2D-10,  3.8D-09, -4.3D-01, r^2= 2.1D+00
   Bfn.  Coefficient  Atom+Function         Bfn.  Coefficient  Atom+Function  
  ----- ------------  ---------------      ----- ------------  ---------------
    52      0.281317   3 C  s                75      0.281317   4 C  s         
    29      0.220576   2 C  s                56      0.177602   3 C  s         
    79      0.177602   4 C  s                 6     -0.170852   1 O  s         

 Vector    7  Occ=2.000000D+00  E=-7.070793D-01
              MO Center= -8.2D-10, -4.7D-09, -5.2D-01, r^2= 2.8D+00
   Bfn.  Coefficient  Atom+Function         Bfn.  Coefficient  Atom+Function  
  ----- ------------  ---------------      ----- ------------  ---------------
    52      0.322062   3 C  s                75     -0.322062   4 C  s         
    56      0.237048   3 C  s                79     -0.237048   4 C  s         

 Vector    8  Occ=2.000000D+00  E=-5.350338D-01
              MO Center=  4.9D-10,  9.0D-09,  4.6D-02, r^2= 3.1D+00
   Bfn.  Coefficient  Atom+Function         Bfn.  Coefficient  Atom+Function  
  ----- ------------  ---------------      ----- ------------  ---------------
    29      0.356357   2 C  s                33      0.291225   2 C  s         
    10     -0.267115   1 O  s                 6     -0.214993   1 O  s         
     9     -0.154302   1 O  pz        

 Vector    9  Occ=2.000000D+00  E=-4.629883D-01
              MO Center=  6.3D-10, -3.5D-08, -1.2D-01, r^2= 2.7D+00
   Bfn.  Coefficient  Atom+Function         Bfn.  Coefficient  Atom+Function  
  ----- ------------  ---------------      ----- ------------  ---------------
    60      0.333396   3 C  s                83     -0.333396   4 C  s         
    31     -0.219761   2 C  py               39     -0.199420   2 C  py        
     8     -0.191805   1 O  py               55     -0.167239   3 C  pz        
    78      0.167239   4 C  pz               27     -0.155669   2 C  py        

 Vector   10  Occ=2.000000D+00  E=-4.577659D-01
              MO Center= -2.5D-08,  4.0D-09, -2.7D-01, r^2= 2.7D+00
   Bfn.  Coefficient  Atom+Function         Bfn.  Coefficient  Atom+Function  
  ----- ------------  ---------------      ----- ------------  ---------------
    30      0.192901   2 C  px               53      0.179346   3 C  px        
    76      0.179346   4 C  px                7      0.163228   1 O  px        

 Vector   11  Occ=2.000000D+00  E=-4.570958D-01
              MO Center=  2.5D-08,  2.5D-08,  4.8D-01, r^2= 2.9D+00
   Bfn.  Coefficient  Atom+Function         Bfn.  Coefficient  Atom+Function  
  ----- ------------  ---------------      ----- ------------  ---------------
    10      0.270352   1 O  s                 9      0.242633   1 O  pz        
    32     -0.196987   2 C  pz                6      0.173693   1 O  s         
     5      0.170662   1 O  pz        

 Vector   12  Occ=2.000000D+00  E=-3.991111D-01
              MO Center=  5.0D-10,  9.7D-08, -1.3D-01, r^2= 3.5D+00
   Bfn.  Coefficient  Atom+Function         Bfn.  Coefficient  Atom+Function  
  ----- ------------  ---------------      ----- ------------  ---------------
     9      0.201242   1 O  pz               55      0.191971   3 C  pz        
    78      0.191971   4 C  pz               32     -0.157357   2 C  pz        

 Vector   13  Occ=2.000000D+00  E=-3.962938D-01
              MO Center= -1.7D-09,  8.6D-10, -9.0D-01, r^2= 3.0D+00
   Bfn.  Coefficient  Atom+Function         Bfn.  Coefficient  Atom+Function  
  ----- ------------  ---------------      ----- ------------  ---------------
    53      0.232551   3 C  px               76     -0.232551   4 C  px        
    57      0.171211   3 C  px               80     -0.171211   4 C  px        

 Vector   14  Occ=2.000000D+00  E=-3.773616D-01
              MO Center=  2.0D-09, -1.0D-07, -2.8D-01, r^2= 3.7D+00
   Bfn.  Coefficient  Atom+Function         Bfn.  Coefficient  Atom+Function  
  ----- ------------  ---------------      ----- ------------  ---------------
    54      0.189513   3 C  py               77      0.189513   4 C  py        
    94      0.160591   5 H  s                97     -0.160591   6 H  s         

 Vector   15  Occ=2.000000D+00  E=-3.600960D-01
              MO Center= -1.1D-09, -4.9D-09,  4.5D-01, r^2= 2.7D+00
   Bfn.  Coefficient  Atom+Function         Bfn.  Coefficient  Atom+Function  
  ----- ------------  ---------------      ----- ------------  ---------------
     7      0.320360   1 O  px               11      0.276846   1 O  px        
     3      0.218922   1 O  px               30      0.156966   2 C  px        

 Vector   16  Occ=2.000000D+00  E=-2.606909D-01
              MO Center= -1.3D-10, -3.4D-09,  7.8D-01, r^2= 2.0D+00
   Bfn.  Coefficient  Atom+Function         Bfn.  Coefficient  Atom+Function  
  ----- ------------  ---------------      ----- ------------  ---------------
     8      0.375366   1 O  py               12      0.360903   1 O  py        
    60     -0.290232   3 C  s                83      0.290232   4 C  s         
     4      0.260102   1 O  py               39      0.224684   2 C  py        
    56     -0.190712   3 C  s                79      0.190712   4 C  s         

 Vector   17  Occ=0.000000D+00  E=-2.422973D-02
              MO Center=  4.8D-09, -3.7D-09,  2.4D-01, r^2= 2.6D+00
   Bfn.  Coefficient  Atom+Function         Bfn.  Coefficient  Atom+Function  
  ----- ------------  ---------------      ----- ------------  ---------------
    34      0.595790   2 C  px               38      0.477945   2 C  px        
    30      0.360811   2 C  px               11     -0.325133   1 O  px        
    15     -0.323913   1 O  px                7     -0.260582   1 O  px        
    61     -0.249925   3 C  px               84     -0.249925   4 C  px        
    26      0.238093   2 C  px                3     -0.179605   1 O  px        

 Vector   18  Occ=0.000000D+00  E= 5.257902D-03
              MO Center= -1.2D-08, -8.2D-08, -3.6D-01, r^2= 1.2D+01
   Bfn.  Coefficient  Atom+Function         Bfn.  Coefficient  Atom+Function  
  ----- ------------  ---------------      ----- ------------  ---------------
    60      2.523285   3 C  s                83      2.523285   4 C  s         
    37     -2.116717   2 C  s                40      1.154283   2 C  pz        
    14     -0.960909   1 O  s                56     -0.316275   3 C  s         
    79     -0.316275   4 C  s                95     -0.297739   5 H  s         
    98     -0.297739   6 H  s                62     -0.259390   3 C  py        

 Vector   19  Occ=0.000000D+00  E= 3.387424D-02
              MO Center= -5.9D-09,  4.4D-08, -6.1D-01, r^2= 1.6D+01
   Bfn.  Coefficient  Atom+Function         Bfn.  Coefficient  Atom+Function  
  ----- ------------  ---------------      ----- ------------  ---------------
    60      5.448480   3 C  s                83     -5.448480   4 C  s         
    39     -3.734178   2 C  py               62     -2.025912   3 C  py        
    85     -2.025912   4 C  py               63      0.934677   3 C  pz        
    86     -0.934677   4 C  pz               16      0.333233   1 O  py        
    95      0.288006   5 H  s                98     -0.288006   6 H  s         

 Vector   20  Occ=0.000000D+00  E= 4.311355D-02
              MO Center=  2.4D-08, -1.8D-07, -6.2D-02, r^2= 1.4D+01
   Bfn.  Coefficient  Atom+Function         Bfn.  Coefficient  Atom+Function  
  ----- ------------  ---------------      ----- ------------  ---------------
    37      4.064668   2 C  s                60     -2.184989   3 C  s         
    83     -2.184987   4 C  s                40     -1.923944   2 C  pz        
    14      1.554023   1 O  s                62      0.909574   3 C  py        
    85     -0.909573   4 C  py               63     -0.806241   3 C  pz        
    86     -0.806241   4 C  pz               33     -0.365335   2 C  s         

 Vector   21  Occ=0.000000D+00  E= 5.103466D-02
              MO Center= -4.3D-08, -3.9D-07, -5.6D-01, r^2= 1.2D+01
   Bfn.  Coefficient  Atom+Function         Bfn.  Coefficient  Atom+Function  
  ----- ------------  ---------------      ----- ------------  ---------------
    61      1.013258   3 C  px               84      1.013258   4 C  px        
   101     -0.398107   7 H  s               104     -0.398107   8 H  s         
   107      0.398107   9 H  s               110      0.398107  10 H  s         
    38     -0.304236   2 C  px        

 Vector   22  Occ=0.000000D+00  E= 6.469735D-02
              MO Center= -2.5D-08, -3.5D-07, -1.1D+00, r^2= 1.3D+01
   Bfn.  Coefficient  Atom+Function         Bfn.  Coefficient  Atom+Function  
  ----- ------------  ---------------      ----- ------------  ---------------
    37      4.718660   2 C  s                60     -2.284291   3 C  s         
    83     -2.284292   4 C  s                40     -1.918731   2 C  pz        
    62      1.595889   3 C  py               85     -1.595889   4 C  py        
    33      0.328778   2 C  s                14      0.320950   1 O  s         
    63      0.288991   3 C  pz               86      0.288991   4 C  pz        

 Vector   23  Occ=0.000000D+00  E= 6.949084D-02
              MO Center=  1.5D-09,  4.4D-07, -5.3D-01, r^2= 1.4D+01
   Bfn.  Coefficient  Atom+Function         Bfn.  Coefficient  Atom+Function  
  ----- ------------  ---------------      ----- ------------  ---------------
    60      5.202206   3 C  s                83     -5.202206   4 C  s         
    39     -2.856503   2 C  py               62     -1.197604   3 C  py        
    85     -1.197603   4 C  py               63     -0.676823   3 C  pz        
    86      0.676822   4 C  pz              101     -0.441322   7 H  s         
   104      0.441322   8 H  s               107     -0.441322   9 H  s         

 Vector   24  Occ=0.000000D+00  E= 7.987062D-02
              MO Center= -9.1D-08,  1.8D-07, -3.3D-01, r^2= 1.5D+01
   Bfn.  Coefficient  Atom+Function         Bfn.  Coefficient  Atom+Function  
  ----- ------------  ---------------      ----- ------------  ---------------
    61      1.503388   3 C  px               84     -1.503388   4 C  px        
   101     -0.422467   7 H  s               104      0.422468   8 H  s         
   107      0.422468   9 H  s               110     -0.422468  10 H  s         

 Vector   25  Occ=0.000000D+00  E= 8.608980D-02
              MO Center=  5.4D-08,  4.1D-09,  7.2D-02, r^2= 1.2D+01
   Bfn.  Coefficient  Atom+Function         Bfn.  Coefficient  Atom+Function  
  ----- ------------  ---------------      ----- ------------  ---------------
    40      3.932829   2 C  pz               37     -2.162461   2 C  s         
    63     -1.334038   3 C  pz               86     -1.334038   4 C  pz        
    14     -1.169198   1 O  s                60      0.941399   3 C  s         
    83      0.941396   4 C  s                33      0.734263   2 C  s         
    95      0.643776   5 H  s                98      0.643776   6 H  s         

 Vector   26  Occ=0.000000D+00  E= 9.950658D-02
              MO Center= -8.6D-08,  1.4D-07,  1.7D-01, r^2= 1.3D+01
   Bfn.  Coefficient  Atom+Function         Bfn.  Coefficient  Atom+Function  
  ----- ------------  ---------------      ----- ------------  ---------------
    38      3.364616   2 C  px               61     -1.610944   3 C  px        
    84     -1.610944   4 C  px               34     -0.476830   2 C  px        
    57      0.280077   3 C  px               80      0.280077   4 C  px        
    15     -0.207574   1 O  px        

 Vector   27  Occ=0.000000D+00  E= 1.026955D-01
              MO Center=  5.3D-08, -4.9D-08, -2.3D-01, r^2= 1.1D+01
   Bfn.  Coefficient  Atom+Function         Bfn.  Coefficient  Atom+Function  
  ----- ------------  ---------------      ----- ------------  ---------------
    37     29.904192   2 C  s                60    -14.655759   3 C  s         
    83    -14.655759   4 C  s                40     -4.170554   2 C  pz        
    62      3.871701   3 C  py               85     -3.871701   4 C  py        
    63     -2.327006   3 C  pz               86     -2.327006   4 C  pz        
    14     -1.739675   1 O  s                33      0.675170   2 C  s         

 Vector   28  Occ=0.000000D+00  E= 1.192256D-01
              MO Center=  2.1D-09,  1.1D-07, -2.2D-01, r^2= 1.5D+01
   Bfn.  Coefficient  Atom+Function         Bfn.  Coefficient  Atom+Function  
  ----- ------------  ---------------      ----- ------------  ---------------
    39      9.409469   2 C  py               60     -7.610348   3 C  s         
    83      7.610350   4 C  s                63     -2.790046   3 C  pz        
    86      2.790046   4 C  pz               16     -0.785068   1 O  py        
    62     -0.649649   3 C  py               85     -0.649648   4 C  py        
    35     -0.256469   2 C  py               56     -0.224929   3 C  s         

 Vector   29  Occ=0.000000D+00  E= 1.310150D-01
              MO Center=  8.3D-08,  7.5D-08, -2.1D-01, r^2= 1.6D+01
   Bfn.  Coefficient  Atom+Function         Bfn.  Coefficient  Atom+Function  
  ----- ------------  ---------------      ----- ------------  ---------------
    60     33.879586   3 C  s                83    -33.879585   4 C  s         
    39    -19.681051   2 C  py               62     -7.003454   3 C  py        
    85     -7.003454   4 C  py               63      6.155947   3 C  pz        
    86     -6.155947   4 C  pz               95     -1.104275   5 H  s         
    98      1.104275   6 H  s                16      0.735709   1 O  py        

 Vector   30  Occ=0.000000D+00  E= 1.642064D-01
              MO Center= -3.6D-08, -2.8D-07, -1.1D+00, r^2= 5.9D+00
   Bfn.  Coefficient  Atom+Function         Bfn.  Coefficient  Atom+Function  
  ----- ------------  ---------------      ----- ------------  ---------------
   101      1.546981   7 H  s               104     -1.546981   8 H  s         
   107     -1.546981   9 H  s               110      1.546981  10 H  s         
    57     -1.035424   3 C  px               80      1.035425   4 C  px        
    61     -0.618465   3 C  px               84      0.618465   4 C  px        
   100      0.209813   7 H  s               103     -0.209813   8 H  s         

 Vector   31  Occ=0.000000D+00  E= 1.722767D-01
              MO Center= -3.0D-08,  3.4D-07, -9.7D-01, r^2= 9.0D+00
   Bfn.  Coefficient  Atom+Function         Bfn.  Coefficient  Atom+Function  
  ----- ------------  ---------------      ----- ------------  ---------------
    38      2.978046   2 C  px               61     -2.021342   3 C  px        
    84     -2.021341   4 C  px              101      1.730233   7 H  s         
   104      1.730233   8 H  s               107     -1.730233   9 H  s         
   110     -1.730233  10 H  s                57     -1.115859   3 C  px        
    80     -1.115859   4 C  px               15     -0.744335   1 O  px        

 Vector   32  Occ=0.000000D+00  E= 1.958110D-01
              MO Center=  2.0D-08, -1.3D-07,  7.7D-02, r^2= 1.1D+01
   Bfn.  Coefficient  Atom+Function         Bfn.  Coefficient  Atom+Function  
  ----- ------------  ---------------      ----- ------------  ---------------
    37     36.525931   2 C  s                60    -18.116637   3 C  s         
    83    -18.116634   4 C  s                40     -5.326129   2 C  pz        
    62      3.914505   3 C  py               85     -3.914504   4 C  py        
    63     -3.282147   3 C  pz               86     -3.282147   4 C  pz        
    95      2.157474   5 H  s                98      2.157474   6 H  s         

 Vector   33  Occ=0.000000D+00  E= 2.088718D-01
              MO Center= -1.4D-09,  1.2D-07,  2.6D-01, r^2= 1.1D+01
   Bfn.  Coefficient  Atom+Function         Bfn.  Coefficient  Atom+Function  
  ----- ------------  ---------------      ----- ------------  ---------------
    60      6.305101   3 C  s                83     -6.305104   4 C  s         
    39     -4.004858   2 C  py               95      2.571060   5 H  s         
    98     -2.571060   6 H  s                62     -2.262900   3 C  py        
    85     -2.262901   4 C  py               56     -0.900693   3 C  s         
    79      0.900693   4 C  s                58     -0.884638   3 C  py        

 Vector   34  Occ=0.000000D+00  E= 2.183204D-01
              MO Center=  1.0D-08, -2.1D-07, -3.1D-01, r^2= 1.2D+01
   Bfn.  Coefficient  Atom+Function         Bfn.  Coefficient  Atom+Function  
  ----- ------------  ---------------      ----- ------------  ---------------
    37     12.876289   2 C  s                60     -8.945082   3 C  s         
    83     -8.945084   4 C  s                40     -2.905672   2 C  pz        
    56     -2.189909   3 C  s                79     -2.189909   4 C  s         
    33      1.744155   2 C  s               101      1.680435   7 H  s         
   104      1.680435   8 H  s               107      1.680435   9 H  s         

 Vector   35  Occ=0.000000D+00  E= 2.324303D-01
              MO Center= -3.7D-09, -5.7D-08, -6.5D-01, r^2= 7.0D+00
   Bfn.  Coefficient  Atom+Function         Bfn.  Coefficient  Atom+Function  
  ----- ------------  ---------------      ----- ------------  ---------------
    37     19.728089   2 C  s                60    -10.475108   3 C  s         
    83    -10.475109   4 C  s                40     -3.253932   2 C  pz        
    62      3.076216   3 C  py               85     -3.076216   4 C  py        
    33     -3.019917   2 C  s                63     -1.520990   3 C  pz        
    86     -1.520990   4 C  pz               58     -1.459889   3 C  py        

 Vector   36  Occ=0.000000D+00  E= 2.461379D-01
              MO Center= -1.8D-08,  2.9D-08,  8.8D-01, r^2= 8.6D+00
   Bfn.  Coefficient  Atom+Function         Bfn.  Coefficient  Atom+Function  
  ----- ------------  ---------------      ----- ------------  ---------------
    37     14.630233   2 C  s                60     -5.533523   3 C  s         
    83     -5.533525   4 C  s                40     -5.221897   2 C  pz        
    14     -4.159660   1 O  s                17      3.591819   1 O  pz        
    33      2.279344   2 C  s                62      1.396958   3 C  py        
    85     -1.396959   4 C  py              101     -1.090904   7 H  s         

 Vector   37  Occ=0.000000D+00  E= 2.646023D-01
              MO Center=  3.8D-08,  8.5D-08, -1.1D+00, r^2= 1.1D+01
   Bfn.  Coefficient  Atom+Function         Bfn.  Coefficient  Atom+Function  
  ----- ------------  ---------------      ----- ------------  ---------------
    60     19.591140   3 C  s                83    -19.591138   4 C  s         
    39     -5.644113   2 C  py               62     -5.214833   3 C  py        
    85     -5.214832   4 C  py              101     -3.085551   7 H  s         
   104      3.085553   8 H  s               107     -3.085552   9 H  s         
   110      3.085551  10 H  s                56      1.926181   3 C  s         

 Vector   38  Occ=0.000000D+00  E= 2.653782D-01
              MO Center=  6.2D-08, -1.7D-09,  1.1D+00, r^2= 8.7D+00
   Bfn.  Coefficient  Atom+Function         Bfn.  Coefficient  Atom+Function  
  ----- ------------  ---------------      ----- ------------  ---------------
    38      3.155384   2 C  px               15     -2.571669   1 O  px        
    61     -0.725192   3 C  px               84     -0.725192   4 C  px        
   101     -0.631221   7 H  s               104     -0.631212   8 H  s         
   107      0.631212   9 H  s               110      0.631221  10 H  s         
    11      0.585734   1 O  px               34      0.250363   2 C  px        

 Vector   39  Occ=0.000000D+00  E= 2.940814D-01
              MO Center=  6.0D-11,  2.2D-07, -1.6D-01, r^2= 8.1D+00
   Bfn.  Coefficient  Atom+Function         Bfn.  Coefficient  Atom+Function  
  ----- ------------  ---------------      ----- ------------  ---------------
    60     -9.022124   3 C  s                83      9.022125   4 C  s         
    39      8.353346   2 C  py               35      2.803279   2 C  py        
    56     -2.298564   3 C  s                79      2.298563   4 C  s         
    16     -1.987013   1 O  py               63     -1.630075   3 C  pz        
    86      1.630075   4 C  pz               59     -1.423887   3 C  pz        

 Vector   40  Occ=0.000000D+00  E= 2.978106D-01
              MO Center= -1.2D-09, -1.7D-07,  1.3D+00, r^2= 9.2D+00
   Bfn.  Coefficient  Atom+Function         Bfn.  Coefficient  Atom+Function  
  ----- ------------  ---------------      ----- ------------  ---------------
    37     10.164675   2 C  s                14     -5.929337   1 O  s         
    60     -4.992274   3 C  s                83     -4.992273   4 C  s         
    40      3.084509   2 C  pz              101      1.384650   7 H  s         
   104      1.384649   8 H  s               107      1.384650   9 H  s         
   110      1.384649  10 H  s                63     -1.315936   3 C  pz        

 Vector   41  Occ=0.000000D+00  E= 3.563921D-01
              MO Center=  2.3D-09, -6.0D-09,  1.2D+00, r^2= 8.3D+00
   Bfn.  Coefficient  Atom+Function         Bfn.  Coefficient  Atom+Function  
  ----- ------------  ---------------      ----- ------------  ---------------
    60     29.255133   3 C  s                83    -29.255134   4 C  s         
    39    -20.206987   2 C  py               62     -4.976707   3 C  py        
    85     -4.976707   4 C  py               63      4.912715   3 C  pz        
    86     -4.912715   4 C  pz               16      3.798830   1 O  py        
    95     -1.060640   5 H  s                98      1.060640   6 H  s         

 Vector   42  Occ=0.000000D+00  E= 3.971962D-01
              MO Center= -1.1D-08,  1.7D-07, -9.5D-01, r^2= 7.9D+00
   Bfn.  Coefficient  Atom+Function         Bfn.  Coefficient  Atom+Function  
  ----- ------------  ---------------      ----- ------------  ---------------
    37      6.874845   2 C  s                60     -3.231087   3 C  s         
    83     -3.231085   4 C  s                36     -1.930241   2 C  pz        
    95      1.711746   5 H  s                98      1.711746   6 H  s         
    14     -1.614324   1 O  s                56     -1.591220   3 C  s         
    79     -1.591220   4 C  s                63     -1.360512   3 C  pz        

 Vector   43  Occ=0.000000D+00  E= 4.156595D-01
              MO Center= -8.6D-09, -1.3D-07, -5.6D-01, r^2= 8.5D+00
   Bfn.  Coefficient  Atom+Function         Bfn.  Coefficient  Atom+Function  
  ----- ------------  ---------------      ----- ------------  ---------------
   101      1.516873   7 H  s               104     -1.516873   8 H  s         
   107     -1.516873   9 H  s               110      1.516873  10 H  s         
    61     -1.292253   3 C  px               84      1.292253   4 C  px        
   100     -0.842247   7 H  s               103      0.842247   8 H  s         
   106      0.842247   9 H  s               109     -0.842247  10 H  s         

 Vector   44  Occ=0.000000D+00  E= 4.503721D-01
              MO Center= -1.7D-08,  2.2D-09,  2.0D-01, r^2= 5.4D+00
   Bfn.  Coefficient  Atom+Function         Bfn.  Coefficient  Atom+Function  
  ----- ------------  ---------------      ----- ------------  ---------------
    37     20.274603   2 C  s                60     -9.086138   3 C  s         
    83     -9.086138   4 C  s                14     -8.057557   1 O  s         
    36      5.445607   2 C  pz               33      3.613105   2 C  s         
    40     -2.453666   2 C  pz               17      2.280966   1 O  pz        
    10     -2.084225   1 O  s                95      2.000449   5 H  s         

 Vector   45  Occ=0.000000D+00  E= 4.622014D-01
              MO Center=  2.8D-08,  1.4D-07, -4.8D-01, r^2= 6.3D+00
   Bfn.  Coefficient  Atom+Function         Bfn.  Coefficient  Atom+Function  
  ----- ------------  ---------------      ----- ------------  ---------------
    57      1.204326   3 C  px               80      1.204326   4 C  px        
    61     -0.924120   3 C  px               84     -0.924120   4 C  px        
   100     -0.812871   7 H  s               103     -0.812871   8 H  s         
   106      0.812871   9 H  s               109      0.812871  10 H  s         
   101      0.765048   7 H  s               104      0.765047   8 H  s         

 Vector   46  Occ=0.000000D+00  E= 4.838370D-01
              MO Center=  1.3D-08, -2.7D-08, -7.6D-01, r^2= 7.2D+00
   Bfn.  Coefficient  Atom+Function         Bfn.  Coefficient  Atom+Function  
  ----- ------------  ---------------      ----- ------------  ---------------
    60      7.811808   3 C  s                83     -7.811808   4 C  s         
    39     -5.622971   2 C  py               63      2.593908   3 C  pz        
    86     -2.593908   4 C  pz               95     -1.439480   5 H  s         
    98      1.439480   6 H  s                59     -1.301884   3 C  pz        
    82      1.301884   4 C  pz               56     -1.106602   3 C  s         

 Vector   47  Occ=0.000000D+00  E= 5.151252D-01
              MO Center= -1.1D-09, -4.2D-07, -7.2D-01, r^2= 6.1D+00
   Bfn.  Coefficient  Atom+Function         Bfn.  Coefficient  Atom+Function  
  ----- ------------  ---------------      ----- ------------  ---------------
    37      4.596263   2 C  s                60     -2.570343   3 C  s         
    83     -2.570347   4 C  s                40     -1.932844   2 C  pz        
    58      0.801672   3 C  py               81     -0.801672   4 C  py        
    59     -0.784447   3 C  pz               82     -0.784446   4 C  pz        
   100     -0.553554   7 H  s               103     -0.553554   8 H  s         


 center of mass
 --------------
 x =   0.00000000 y =   0.00000000 z =   0.16533015

 moments of inertia (a.u.)
 ------------------
         368.560950685134           0.000000000000           0.000000000000
           0.000000000000         177.897547575561           0.000000000000
           0.000000000000           0.000000000000         212.879983698043

     Multipole analysis of the density
     ---------------------------------

     L   x y z        total         alpha         beta         nuclear
     -   - - -        -----         -----         ----         -------
     0   0 0 0      0.000000    -16.000000    -16.000000     32.000000

     1   1 0 0      0.000000      0.000000      0.000000      0.000000
     1   0 1 0      0.000000      0.000000      0.000000      0.000000
     1   0 0 1     -1.632201     -0.910474     -0.910474      0.188746

     2   2 0 0    -18.061625    -14.541834    -14.541834     11.022043
     2   1 1 0      0.000000      0.000000      0.000000      0.000000
     2   1 0 1      0.000000      0.000000      0.000000      0.000000
     2   0 2 0    -17.823665    -73.883013    -73.883013    129.942360
     2   0 1 1      0.000000      0.000000      0.000000      0.000000
     2   0 0 2    -22.206460    -58.852272    -58.852272     95.498085


 Parallel integral file used     266 records with       0 large values

                                NWChem TDDFT Module
                                -------------------


            General Information
            -------------------
           No. of orbitals :   220
            Alpha orbitals :   110
             Beta orbitals :   110
        Alpha frozen cores :     0
         Beta frozen cores :     0
     Alpha frozen virtuals :     0
      Beta frozen virtuals :     0
         Spin multiplicity :     1
    Number of AO functions :   110
        Use of symmetry is : off
      Symmetry adaption is : off
         Schwarz screening : 0.10D-07

              XC Information
              --------------
                  B3LYP Method XC Potential
              Hartree-Fock (Exact) Exchange   0.20          
                 Slater Exchange Functional   0.80 local    
             Becke 1988 Exchange Functional   0.72 non-local
       Lee-Yang-Parr Correlation Functional   0.81          
           VWN I RPA Correlation Functional   0.19 local    

             TDDFT Information
             -----------------
          Calculation type : TDDFT             
         Wavefunction type : Restricted singlets
          No. of electrons :    32
           Alpha electrons :    16
            Beta electrons :    16
              No. of roots :    10
          Max subspacesize :  6000
            Max iterations :   100
               Target root :     1
           Target symmetry : none
      Symmetry restriction : off
                 Algorithm : Incore multiple tensor contraction
        Davidson threshold : 0.10D-03

 solvent parameters
 solvname_short: acetntrl
 solvname_long:  acetonitrile                       
 dielec:       35.6880
 dielecinf:     1.8069
 nonaqueous SMD model solvent descriptors
 dielec:       35.6880
 sola:          0.0700
 solb:          0.3200
 solc:          0.0000
 solg:         41.2500
 solh:          0.0000
 soln:          1.3442

 solvent accessible surface
 --------------------------

 ---------- ATOMIC COORDINATES (A.U.) ------------ VDWR(ANG.) --
     1    0.00000000    0.00000000    2.64659904     2.168
     2    0.00000000    0.00000000    0.35787631     1.850
     3    0.00000000    2.43876698   -1.15220373     1.850
     4    0.00000000   -2.43876698   -1.15220373     1.850
     5    0.00000000    4.06035975    0.11580241     1.200
     6    0.00000000   -4.06035975    0.11580241     1.200
     7    1.65997310    2.52973839   -2.38411610     1.200
     8    1.65997310   -2.52973839   -2.38411610     1.200
     9   -1.65997310    2.52973839   -2.38411610     1.200
    10   -1.65997310   -2.52973839   -2.38411610     1.200
 number of segments per atom =        128
 number of   points per atom =        128
 atom (   nspa,  nppa )
 ----------------------
    1 (     88,     0 )       0
    2 (     20,     0 )       0
    3 (     56,     0 )       0
    4 (     56,     0 )       0
    5 (     48,     0 )       0
    6 (     48,     0 )       0
    7 (     53,     0 )       0
    8 (     53,     0 )       0
    9 (     53,     0 )       0
   10 (     53,     0 )       0
 number of -cosmo- surface points =      528
 molecular surface =    112.789 angstrom**2
 molecular volume  =     65.683 angstrom**3
 G(SMD-CDS) energy (kcal/mol)  =    -0.754
 SMD-CDS SASA (angstrom**2)    =   125.391


            Memory Information
            ------------------
          Available GA space size is         104843916 doubles
          Available MA space size is          26205940 doubles
          Length of a trial vector is         1504
          Estimated peak GA usage is          37142480 doubles
          Estimated peak MA usage is             71000 doubles

   10 smallest eigenvalue differences (eV) 
--------------------------------------------------------
  No. Spin  Occ  Vir  Irrep   E(Occ)    E(Vir)   E(Diff)
--------------------------------------------------------
    1    1   16   17 a        -0.261    -0.024     6.434
    2    1   16   18 a        -0.261     0.005     7.237
    3    1   16   19 a        -0.261     0.034     8.016
    4    1   16   20 a        -0.261     0.043     8.267
    5    1   16   21 a        -0.261     0.051     8.482
    6    1   16   22 a        -0.261     0.065     8.854
    7    1   16   23 a        -0.261     0.069     8.985
    8    1   15   17 a        -0.360    -0.024     9.139
    9    1   16   24 a        -0.261     0.080     9.267
   10    1   16   25 a        -0.261     0.086     9.436
--------------------------------------------------------

  Entering Davidson iterations
  Restricted singlet excited states

  Iter   NTrls   NConv    DeltaV     DeltaE      Time   
  ----  ------  ------  ---------  ---------  --------- 
    1     10       0     0.52E+00   0.10+100       55.6
    2     30       0     0.15E+00   0.53E-01      107.3
    3     50       0     0.86E-01   0.27E-01      106.8
    4     70       0     0.12E-01   0.99E-02      107.6
    5     90       1     0.28E-02   0.15E-03      108.7
    6    108       3     0.98E-03   0.43E-05       97.1
    7    122       8     0.41E-03   0.34E-06       76.1
    8    126       9     0.14E-03   0.60E-07       27.3
    9    128      10     0.95E-04   0.53E-08       15.7
  ----  ------  ------  ---------  ---------  --------- 
  Convergence criterion met

  Ground state a        -193.222902399641 a.u.

  ----------------------------------------------------------------------------
  Root   1 singlet a              0.168228459 a.u.                4.5777 eV 
  ----------------------------------------------------------------------------
     Transition Moments    X  0.00000   Y  0.00000   Z  0.00000
     Transition Moments   XX  0.00000  XY  0.76201  XZ  0.00000
     Transition Moments   YY  0.00000  YZ  0.00000  ZZ  0.00000
     Dipole Oscillator Strength                         0.00000

     Occ.   16  a   ---  Virt.   17  a    0.99590 X
     Occ.   16  a   ---  Virt.   21  a    0.06335 X
  ----------------------------------------------------------------------------
  Root   2 singlet a              0.232204605 a.u.                6.3186 eV 
  ----------------------------------------------------------------------------
     Transition Moments    X  0.00000   Y -0.56607   Z  0.00000
     Transition Moments   XX  0.00000  XY  0.00000  XZ  0.00000
     Transition Moments   YY  0.00000  YZ -0.23256  ZZ  0.00000
     Dipole Oscillator Strength                         0.04961

     Occ.   16  a   ---  Virt.   18  a    0.99010 X
     Occ.   16  a   ---  Virt.   20  a   -0.12721 X
  ----------------------------------------------------------------------------
  Root   3 singlet a              0.267554177 a.u.                7.2805 eV 
  ----------------------------------------------------------------------------
     Transition Moments    X  0.00000   Y  0.00000   Z  0.03525
     Transition Moments   XX  0.43547  XY  0.00000  XZ  0.00000
     Transition Moments   YY  2.40281  YZ  0.00000  ZZ  1.04604
     Dipole Oscillator Strength                         0.00022

     Occ.   15  a   ---  Virt.   17  a    0.14240 X
     Occ.   16  a   ---  Virt.   19  a    0.98311 X
     Occ.   16  a   ---  Virt.   23  a    0.09435 X
  ----------------------------------------------------------------------------
  Root   4 singlet a              0.270954052 a.u.                7.3730 eV 
  ----------------------------------------------------------------------------
     Transition Moments    X  0.00000   Y  0.05462   Z  0.00000
     Transition Moments   XX  0.00000  XY  0.00000  XZ  0.00000
     Transition Moments   YY  0.00000  YZ -2.36345  ZZ  0.00000
     Dipole Oscillator Strength                         0.00054

     Occ.   16  a   ---  Virt.   18  a   -0.12650 X
     Occ.   16  a   ---  Virt.   20  a   -0.98700 X
     Occ.   16  a   ---  Virt.   25  a    0.08077 X
  ----------------------------------------------------------------------------
  Root   5 singlet a              0.278777249 a.u.                7.5859 eV 
  ----------------------------------------------------------------------------
     Transition Moments    X  0.00000   Y  0.00000   Z  0.00000
     Transition Moments   XX  0.00000  XY  1.03417  XZ  0.00000
     Transition Moments   YY  0.00000  YZ  0.00000  ZZ  0.00000
     Dipole Oscillator Strength                         0.00000

     Occ.   16  a   ---  Virt.   17  a    0.06161 X
     Occ.   16  a   ---  Virt.   21  a   -0.99225 X
     Occ.   16  a   ---  Virt.   26  a   -0.09636 X
  ----------------------------------------------------------------------------
  Root   6 singlet a              0.295818733 a.u.                8.0496 eV 
  ----------------------------------------------------------------------------
     Transition Moments    X  0.00000   Y  0.51103   Z  0.00000
     Transition Moments   XX  0.00000  XY  0.00000  XZ  0.00000
     Transition Moments   YY  0.00000  YZ -0.31007  ZZ  0.00000
     Dipole Oscillator Strength                         0.05150

     Occ.   13  a   ---  Virt.   17  a   -0.05647 X
     Occ.   16  a   ---  Virt.   22  a   -0.98530 X
     Occ.   16  a   ---  Virt.   25  a   -0.11079 X
     Occ.   16  a   ---  Virt.   27  a    0.09780 X
  ----------------------------------------------------------------------------
  Root   7 singlet a              0.299037391 a.u.                8.1372 eV 
  ----------------------------------------------------------------------------
     Transition Moments    X  0.00000   Y  0.00000   Z -0.64825
     Transition Moments   XX -0.06067  XY  0.00000  XZ  0.00000
     Transition Moments   YY  0.61463  YZ  0.00000  ZZ  0.05937
     Dipole Oscillator Strength                         0.08378

     Occ.   16  a   ---  Virt.   19  a    0.09032 X
     Occ.   16  a   ---  Virt.   23  a   -0.99014 X
     Occ.   16  a   ---  Virt.   28  a    0.06472 X
  ----------------------------------------------------------------------------
  Root   8 singlet a              0.300761878 a.u.                8.1842 eV 
  ----------------------------------------------------------------------------
     Transition Moments    X  0.00000   Y  0.00000   Z  0.00000
     Transition Moments   XX  0.00000  XY -0.04732  XZ  0.00000
     Transition Moments   YY  0.00000  YZ  0.00000  ZZ  0.00000
     Dipole Oscillator Strength                         0.00000

     Occ.    9  a   ---  Virt.   17  a    0.10717 X
     Occ.   14  a   ---  Virt.   17  a    0.99225 X
  ----------------------------------------------------------------------------
  Root   9 singlet a              0.310814323 a.u.                8.4577 eV 
  ----------------------------------------------------------------------------
     Transition Moments    X  0.31449   Y  0.00000   Z  0.00000
     Transition Moments   XX  0.00000  XY  0.00000  XZ  0.00856
     Transition Moments   YY  0.00000  YZ  0.00000  ZZ  0.00000
     Dipole Oscillator Strength                         0.02049

     Occ.   16  a   ---  Virt.   24  a   -0.99944 X
  ----------------------------------------------------------------------------
  Root  10 singlet a              0.311739886 a.u.                8.4829 eV 
  ----------------------------------------------------------------------------
     Transition Moments    X  0.00000   Y -0.19104   Z  0.00000
     Transition Moments   XX  0.00000  XY  0.00000  XZ  0.00000
     Transition Moments   YY  0.00000  YZ -0.03963  ZZ  0.00000
     Dipole Oscillator Strength                         0.00758

     Occ.   13  a   ---  Virt.   17  a    0.05896 X
     Occ.   16  a   ---  Virt.   20  a    0.07555 X
     Occ.   16  a   ---  Virt.   22  a   -0.12657 X
     Occ.   16  a   ---  Virt.   25  a    0.97547 X
     Occ.   16  a   ---  Virt.   27  a   -0.13927 X

              Target root =      1
          Target symmetry = none
      Ground state energy =   -193.222902399641
        Excitation energy =      0.168228459165
     Excited state energy =   -193.054673940476

 fn_civecs: ./ActnAcntrl_VEMExc_TDB3LYP.civecs_singlet                                                                                                                                                                                                                     

  CI vectors are stored in ./ActnAcntrl_VEMExc_TDB3LYP.cive


                           NWChem TDDFT Gradient Module
                           ----------------------------


 ./ActnAcntrl_VEMExc_TDB3LYP.civecs_singlet                                                                                                                                                                                                                     

 solvent parameters
 solvname_short: acetntrl
 solvname_long:  acetonitrile                       
 dielec:       35.6880
 dielecinf:     1.8069
 nonaqueous SMD model solvent descriptors
 dielec:       35.6880
 sola:          0.0700
 solb:          0.3200
 solc:          0.0000
 solg:         41.2500
 solh:          0.0000
 soln:          1.3442

 solvent accessible surface
 --------------------------

 ---------- ATOMIC COORDINATES (A.U.) ------------ VDWR(ANG.) --
     1    0.00000000    0.00000000    2.64659904     2.168
     2    0.00000000    0.00000000    0.35787631     1.850
     3    0.00000000    2.43876698   -1.15220373     1.850
     4    0.00000000   -2.43876698   -1.15220373     1.850
     5    0.00000000    4.06035975    0.11580241     1.200
     6    0.00000000   -4.06035975    0.11580241     1.200
     7    1.65997310    2.52973839   -2.38411610     1.200
     8    1.65997310   -2.52973839   -2.38411610     1.200
     9   -1.65997310    2.52973839   -2.38411610     1.200
    10   -1.65997310   -2.52973839   -2.38411610     1.200
 number of segments per atom =        128
 number of   points per atom =        128
 atom (   nspa,  nppa )
 ----------------------
    1 (     88,     0 )       0
    2 (     20,     0 )       0
    3 (     56,     0 )       0
    4 (     56,     0 )       0
    5 (     48,     0 )       0
    6 (     48,     0 )       0
    7 (     53,     0 )       0
    8 (     53,     0 )       0
    9 (     53,     0 )       0
   10 (     53,     0 )       0
 number of -cosmo- surface points =      528
 molecular surface =    112.789 angstrom**2
 molecular volume  =     65.683 angstrom**3
 G(SMD-CDS) energy (kcal/mol)  =    -0.754
 SMD-CDS SASA (angstrom**2)    =   125.391

 Calculated gradients of:
 Number of Singlet roots   1
 Singlet roots    1

 Start at time  cpu:      734.5s  wall:      931.9s

TDDFT Energy Check(  1) =       0.16822845910636


Iterative solution of linear equations
  No. of variables     1504
  No. of equations        1
  Maximum subspace       40
        Iterations      250
       Convergence  1.0D-05
        Start time    996.3


   iter   nsub   residual    time
   ----  ------  --------  ---------
     1      1    5.65D-01    1009.0
     2      2    2.15D-02    1021.9
     3      3    4.52D-03    1034.2
     4      4    6.38D-04    1046.4
     5      5    1.10D-04    1058.5
     6      6    5.59D-05    1070.3
     7      7    1.18D-05    1082.1
     8      8    1.96D-06    1093.7
     Dipole Moment    X  0.00000   Y  0.00000   Z -1.37551

     No. of electrons (tr(P*S)):     0.3200000E+02


                          COSMO-VEM solvation results
                          ---------------------------
 Reference for the VEM model:
 Marenich, A. V.; Cramer, C. J.; Truhlar, D. G.; Guido, C. A.; Mennucci, B.;
 Scalmani, G.; Frisch, M. J. Chem. Sci. 2011, 2, 2143

 excitation spectrum data:  GS = initial state, ES = final state
 iteration #1
 (1)          GS equilibrium total free energy =      -193.2217014163
 (2)               GS polarization free energy =        -0.0112179129 (   -0.3053 eV)
 (3)                 GSRF ES total free energy =      -193.0534729572
 (4)          GSRF ES polarization free energy =        -0.0052477100 (   -0.1428 eV)
 (5)          GSRF excitation energy (3) - (1) =         0.1682284592 (    4.5777 eV)
 (6)                cGSRF ES total free energy =      -193.0542490193
 (7)         cGSRF ES polarization free energy =        -0.0060237721 (   -0.1639 eV)
 (8)        fast polarization component of (7) =        -0.0031870250 (   -0.0867 eV)
 (9)                 1/2 * delV * delQdyn term =        -0.0007760621 (   -0.0211 eV)
 (10)        cGSRF excitation energy (6) - (1) =         0.1674523971 (    4.5566 eV)

 TDDFT Gradient time  cpu:      229.7s  wall:      284.7s

                                 NWChem DFT Module
                                 -----------------




 Summary of "ao basis" -> "ao basis" (cartesian)
 ------------------------------------------------------------------------------
       Tag                 Description            Shells   Functions and Types
 ---------------- ------------------------------  ------  ---------------------
 O                          6-311+G*                10       23   5s4p1d
 C                          6-311+G*                10       23   5s4p1d
 H                          6-311+G*                 3        3   3s



 solvent parameters
 solvname_short: acetntrl
 solvname_long:  acetonitrile                       
 dielec:       35.6880
 dielecinf:     1.8069
 nonaqueous SMD model solvent descriptors
 dielec:       35.6880
 sola:          0.0700
 solb:          0.3200
 solc:          0.0000
 solg:         41.2500
 solh:          0.0000
 soln:          1.3442

          ---------------
          -cosmo- solvent
          ---------------
 dielectric constant -eps-     =  35.69
 charge screening approach     =   2
 screen = (eps-1)/(eps    )    =   0.97198
 -lineq- algorithm             =   0
 -bem- low  level              =   3
 -bem- high level              =   4
 -bem- from -octahedral-
 solvent radius (ang.)         =   0.000
 gaussian surface charge width =   0.98000
 degree of switching           =   1.00000
 switching function tolerance  =   0.00010
 atomic radii = 
 --------------
    1  8.000  2.168
    2  6.000  1.850
    3  6.000  1.850
    4  6.000  1.850
    5  1.000  1.200
    6  1.000  1.200
    7  1.000  1.200
    8  1.000  1.200
    9  1.000  1.200
   10  1.000  1.200

 solvent accessible surface
 --------------------------

 ---------- ATOMIC COORDINATES (A.U.) ------------ VDWR(ANG.) --
     1    0.00000000    0.00000000    2.64659904     2.168
     2    0.00000000    0.00000000    0.35787631     1.850
     3    0.00000000    2.43876698   -1.15220373     1.850
     4    0.00000000   -2.43876698   -1.15220373     1.850
     5    0.00000000    4.06035975    0.11580241     1.200
     6    0.00000000   -4.06035975    0.11580241     1.200
     7    1.65997310    2.52973839   -2.38411610     1.200
     8    1.65997310   -2.52973839   -2.38411610     1.200
     9   -1.65997310    2.52973839   -2.38411610     1.200
    10   -1.65997310   -2.52973839   -2.38411610     1.200
 number of segments per atom =        128
 number of   points per atom =        128
 atom (   nspa,  nppa )
 ----------------------
    1 (     88,     0 )       0
    2 (     20,     0 )       0
    3 (     56,     0 )       0
    4 (     56,     0 )       0
    5 (     48,     0 )       0
    6 (     48,     0 )       0
    7 (     53,     0 )       0
    8 (     53,     0 )       0
    9 (     53,     0 )       0
   10 (     53,     0 )       0
 number of -cosmo- surface points =      528
 molecular surface =    112.789 angstrom**2
 molecular volume  =     65.683 angstrom**3
 ...... end of -cosmo- initialization ......


 G(SMD-CDS) energy (kcal/mol)  =    -0.754
 SMD-CDS SASA (angstrom**2)    =   125.391

  Caching 1-el integrals 

            General Information
            -------------------
          SCF calculation type: DFT
          Wavefunction type:  closed shell.
          No. of atoms     :    10
          No. of electrons :    32
           Alpha electrons :    16
            Beta electrons :    16
          Charge           :     0
          Spin multiplicity:     1
          Use of symmetry is: off; symmetry adaption is: off
          Maximum number of iterations:  30
          AO basis - number of functions:   110
                     number of shells:    58
          Convergence on energy requested: 1.00D-06
          Convergence on density requested: 1.00D-05
          Convergence on gradient requested: 5.00D-04

              XC Information
              --------------
                         B3LYP Method XC Potential
                     Hartree-Fock (Exact) Exchange  0.200          
                        Slater Exchange Functional  0.800 local    
                    Becke 1988 Exchange Functional  0.720 non-local
              Lee-Yang-Parr Correlation Functional  0.810          
                  VWN I RPA Correlation Functional  0.190 local    

             Grid Information
             ----------------
          Grid used for XC integration:  medium    
          Radial quadrature: Mura-Knowles        
          Angular quadrature: Lebedev. 
          Tag              B.-S. Rad. Rad. Pts. Rad. Cut. Ang. Pts.
          ---              ---------- --------- --------- ---------
          O                   0.60       49          11.0       434
          C                   0.70       49          12.0       434
          H                   0.35       45          12.0       434
          Grid pruning is: on 
          Number of quadrature shells:   466
          Spatial weights used:  Erf1

          Convergence Information
          -----------------------
          Convergence aids based upon iterative change in 
          total energy or number of iterations. 
          Levelshifting, if invoked, occurs when the 
          HOMO/LUMO gap drops below (HL_TOL): 1.00D-02
          DIIS, if invoked, will attempt to extrapolate 
          using up to (NFOCK): 10 stored Fock matrices.

                    Damping( 0%)  Levelshifting(0.5)       DIIS
                  --------------- ------------------- ---------------
          dE  on:    start            ASAP                start   
          dE off:    2 iters         30 iters            30 iters 


      Screening Tolerance Information
      -------------------------------
          Density screening/tol_rho: 1.00D-10
          AO Gaussian exp screening on grid/accAOfunc:  14
          CD Gaussian exp screening on grid/accCDfunc:  20
          XC Gaussian exp screening on grid/accXCfunc:  20
          Schwarz screening/accCoul: 1.00D-08


 Loading old vectors from job with title :



   Time after variat. SCF:    964.3
   Time prior to 1st pass:    964.3

 Integral file          = ./ActnAcntrl_VEMExc_TDB3LYP.aoints.0
 Record size in doubles =  65536        No. of integs per rec  =  43688
 Max. records in memory =    146        Max. records in file   =  16981
 No. of bits per label  =      8        No. of bits per value  =     64


 #quartets = 1.290D+06 #integrals = 1.151D+07 #direct =  0.0% #cached =100.0%


File balance: exchanges=     3  moved=    47  time=   0.0


 Grid_pts file          = ./ActnAcntrl_VEMExc_TDB3LYP.gridpts.0
 Record size in doubles =  12289        No. of grid_pts per rec  =   3070
 Max. records in memory =     20        Max. recs in file   =     90564


           Memory utilization after 1st SCF pass: 
           Heap Space remaining (MW):        3.28             3284650
          Stack Space remaining (MW):       13.11            13106348

   convergence    iter        energy       DeltaE   RMS-Dens  Diis-err    time
 ---------------- ----- ----------------- --------- --------- ---------  ------
     COSMO solvation phase
 d= 0,ls=0.0          1   -193.2215305358 -3.12D+02  0.00D+00             969.2
 d= 0,ls=0.0          2   -193.2215305358  1.14D-13  0.00D+00             971.8


         Total DFT energy =     -193.221530535806
      One electron energy =     -496.882552445140
           Coulomb energy =      211.657554581399
    Exchange-Corr. energy =      -27.093452015428
 Nuclear repulsion energy =      119.234410856353

 Numeric. integr. density =       32.000017822587

     Total iterative time =      7.5s



                       DFT Final Molecular Orbital Analysis
                       ------------------------------------

 Vector    4  Occ=2.000000D+00  E=-1.017415D+01
              MO Center= -2.1D-13, -8.4D-05, -6.1D-01, r^2= 1.7D+00
   Bfn.  Coefficient  Atom+Function         Bfn.  Coefficient  Atom+Function  
  ----- ------------  ---------------      ----- ------------  ---------------
    47      0.398526   3 C  s                70      0.398552   4 C  s         
    48      0.324831   3 C  s                71      0.324852   4 C  s         

 Vector    5  Occ=2.000000D+00  E=-1.055689D+00
              MO Center= -1.7D-12,  2.9D-10,  1.0D+00, r^2= 5.3D-01
   Bfn.  Coefficient  Atom+Function         Bfn.  Coefficient  Atom+Function  
  ----- ------------  ---------------      ----- ------------  ---------------
     6      0.488604   1 O  s                10      0.345771   1 O  s         
    29      0.265188   2 C  s                 2     -0.170711   1 O  s         

 Vector    6  Occ=2.000000D+00  E=-7.690078D-01
              MO Center= -2.2D-10,  3.8D-09, -4.3D-01, r^2= 2.1D+00
   Bfn.  Coefficient  Atom+Function         Bfn.  Coefficient  Atom+Function  
  ----- ------------  ---------------      ----- ------------  ---------------
    52      0.281317   3 C  s                75      0.281317   4 C  s         
    29      0.220576   2 C  s                56      0.177602   3 C  s         
    79      0.177602   4 C  s                 6     -0.170852   1 O  s         

 Vector    7  Occ=2.000000D+00  E=-7.095512D-01
              MO Center= -8.2D-10, -4.7D-09, -5.2D-01, r^2= 2.8D+00
   Bfn.  Coefficient  Atom+Function         Bfn.  Coefficient  Atom+Function  
  ----- ------------  ---------------      ----- ------------  ---------------
[...]
  ----- ------------  ---------------      ----- ------------  ---------------
    60     28.145841   3 C  s                83    -28.145841   4 C  s         
    39    -20.017343   2 C  py               63      4.783584   3 C  pz        
    86     -4.783584   4 C  pz               62     -4.617071   3 C  py        
    85     -4.617071   4 C  py               16      3.950583   1 O  py        
    95     -0.993375   5 H  s                98      0.993375   6 H  s         

 Vector   42  Occ=0.000000D+00  E= 3.846490D-01
              MO Center= -3.1D-10,  2.3D-07, -9.3D-01, r^2= 7.8D+00
   Bfn.  Coefficient  Atom+Function         Bfn.  Coefficient  Atom+Function  
  ----- ------------  ---------------      ----- ------------  ---------------
    37      6.403611   2 C  s                60     -3.053056   3 C  s         
    83     -3.053053   4 C  s                36     -2.275787   2 C  pz        
    56     -1.775879   3 C  s                79     -1.775879   4 C  s         
    95      1.603093   5 H  s                98      1.603092   6 H  s         
    10      1.437440   1 O  s                14     -1.420031   1 O  s         

 Vector   43  Occ=0.000000D+00  E= 4.042410D-01
              MO Center= -1.3D-08,  2.9D-08, -5.6D-01, r^2= 8.6D+00
   Bfn.  Coefficient  Atom+Function         Bfn.  Coefficient  Atom+Function  
  ----- ------------  ---------------      ----- ------------  ---------------
   101      1.531634   7 H  s               104     -1.531634   8 H  s         
   107     -1.531634   9 H  s               110      1.531634  10 H  s         
    61     -1.311568   3 C  px               84      1.311568   4 C  px        
   100     -0.846343   7 H  s               103      0.846343   8 H  s         
   106      0.846343   9 H  s               109     -0.846343  10 H  s         

 Vector   44  Occ=0.000000D+00  E= 4.471221D-01
              MO Center= -3.6D-08, -2.4D-08,  2.2D-01, r^2= 5.7D+00
   Bfn.  Coefficient  Atom+Function         Bfn.  Coefficient  Atom+Function  
  ----- ------------  ---------------      ----- ------------  ---------------
    37     21.814445   2 C  s                60     -9.814020   3 C  s         
    83     -9.814022   4 C  s                14     -8.308185   1 O  s         
    36      5.341120   2 C  pz               33      3.604785   2 C  s         
    40     -2.652617   2 C  pz               17      2.339144   1 O  pz        
    95      2.146280   5 H  s                98      2.146280   6 H  s         

 Vector   45  Occ=0.000000D+00  E= 4.503955D-01
              MO Center=  3.4D-08, -2.7D-08, -4.6D-01, r^2= 6.3D+00
   Bfn.  Coefficient  Atom+Function         Bfn.  Coefficient  Atom+Function  
  ----- ------------  ---------------      ----- ------------  ---------------
    57      1.197043   3 C  px               80      1.197043   4 C  px        
    61     -0.939742   3 C  px               84     -0.939742   4 C  px        
   100     -0.821117   7 H  s               103     -0.821117   8 H  s         
   106      0.821117   9 H  s               109      0.821117  10 H  s         
    38      0.798183   2 C  px              101      0.773546   7 H  s         

 Vector   46  Occ=0.000000D+00  E= 4.736559D-01
              MO Center=  2.9D-09, -6.2D-08, -7.7D-01, r^2= 7.3D+00
   Bfn.  Coefficient  Atom+Function         Bfn.  Coefficient  Atom+Function  
  ----- ------------  ---------------      ----- ------------  ---------------
    60      8.120169   3 C  s                83     -8.120170   4 C  s         
    39     -5.895380   2 C  py               63      2.680034   3 C  pz        
    86     -2.680034   4 C  pz               95     -1.479194   5 H  s         
    98      1.479194   6 H  s                59     -1.344062   3 C  pz        
    82      1.344062   4 C  pz               56     -1.155347   3 C  s         

 Vector   47  Occ=0.000000D+00  E= 5.042645D-01
              MO Center=  8.3D-10, -2.6D-07, -6.6D-01, r^2= 6.1D+00
   Bfn.  Coefficient  Atom+Function         Bfn.  Coefficient  Atom+Function  
  ----- ------------  ---------------      ----- ------------  ---------------
    37      3.192900   2 C  s                60     -1.977844   3 C  s         
    83     -1.977845   4 C  s                40     -1.787355   2 C  pz        
    14      0.981692   1 O  s                58      0.893552   3 C  py        
    81     -0.893552   4 C  py               33     -0.698273   2 C  s         
    59     -0.674092   3 C  pz               82     -0.674092   4 C  pz        


 center of mass
 --------------
 x =   0.00000000 y =   0.00000000 z =   0.16574397

 moments of inertia (a.u.)
 ------------------
         368.565423121091           0.000000000000           0.000000000000
           0.000000000000         177.906494540808           0.000000000000
           0.000000000000           0.000000000000         212.858819898310

     Multipole analysis of the density
     ---------------------------------

     L   x y z        total         alpha         beta         nuclear
     -   - - -        -----         -----         ----         -------
     0   0 0 0      0.000000    -16.000000    -16.000000     32.000000

     1   1 0 0      0.000000      0.000000      0.000000      0.000000
     1   0 1 0      0.000000      0.000000      0.000000      0.000000
     1   0 0 1     -1.236383     -0.718064     -0.718064      0.199744

     2   2 0 0    -18.225509    -14.619636    -14.619636     11.013763
     2   1 1 0      0.000000      0.000000      0.000000      0.000000
     2   1 0 1      0.000000      0.000000      0.000000      0.000000
     2   0 2 0    -17.851271    -73.887733    -73.887733    129.924196
     2   0 1 1      0.000000      0.000000      0.000000      0.000000
     2   0 0 2    -21.992371    -58.754425    -58.754425     95.516478


 Parallel integral file used     266 records with       0 large values

                                NWChem TDDFT Module
                                -------------------


            General Information
            -------------------
           No. of orbitals :   220
            Alpha orbitals :   110
             Beta orbitals :   110
        Alpha frozen cores :     0
         Beta frozen cores :     0
     Alpha frozen virtuals :     0
      Beta frozen virtuals :     0
         Spin multiplicity :     1
    Number of AO functions :   110
        Use of symmetry is : off
      Symmetry adaption is : off
         Schwarz screening : 0.10D-07

              XC Information
              --------------
                  B3LYP Method XC Potential
              Hartree-Fock (Exact) Exchange   0.20          
                 Slater Exchange Functional   0.80 local    
             Becke 1988 Exchange Functional   0.72 non-local
       Lee-Yang-Parr Correlation Functional   0.81          
           VWN I RPA Correlation Functional   0.19 local    

             TDDFT Information
             -----------------
          Calculation type : TDDFT             
         Wavefunction type : Restricted singlets
          No. of electrons :    32
           Alpha electrons :    16
            Beta electrons :    16
              No. of roots :    10
          Max subspacesize :  6000
            Max iterations :   100
               Target root :     1
           Target symmetry : none
      Symmetry restriction : off
                 Algorithm : Incore multiple tensor contraction
        Davidson threshold : 0.10D-03

            Memory Information
            ------------------
          Available GA space size is         104845500 doubles
          Available MA space size is          26210228 doubles
          Length of a trial vector is         1504
          Estimated peak GA usage is          37142480 doubles
          Estimated peak MA usage is             71000 doubles

   10 smallest eigenvalue differences (eV) 
--------------------------------------------------------
  No. Spin  Occ  Vir  Irrep   E(Occ)    E(Vir)   E(Diff)
--------------------------------------------------------
    1    1   16   17 a        -0.260    -0.028     6.288
    2    1   16   18 a        -0.260    -0.004     6.957
    3    1   16   19 a        -0.260     0.026     7.784
    4    1   16   20 a        -0.260     0.042     8.209
    5    1   16   21 a        -0.260     0.045     8.293
    6    1   16   22 a        -0.260     0.053     8.515
    7    1   16   23 a        -0.260     0.067     8.879
    8    1   15   17 a        -0.362    -0.028     9.068
    9    1   16   24 a        -0.260     0.075     9.098
   10    1   16   25 a        -0.260     0.087     9.425
--------------------------------------------------------

  Entering Davidson iterations
  Restricted singlet excited states

  Iter   NTrls   NConv    DeltaV     DeltaE      Time   
  ----  ------  ------  ---------  ---------  --------- 
    1     10       0     0.55E+00   0.10+100       55.5
    2     30       0     0.17E+00   0.55E-01      105.8
    3     50       0     0.56E-01   0.22E-01      104.4
    4     70       0     0.42E-01   0.15E-01      105.7
    5     90       1     0.85E-02   0.14E-02      104.8
    6    108       3     0.23E-02   0.86E-04       97.1
    7    122       8     0.75E-03   0.28E-05       75.6
    8    126       9     0.28E-03   0.20E-06       25.1
    9    128       9     0.10E-03   0.25E-07       15.3
   10    130      10     0.87E-04   0.33E-08       15.2
  ----  ------  ------  ---------  ---------  --------- 
  Convergence criterion met

  Ground state a        -193.212458887769 a.u.

  ----------------------------------------------------------------------------
  Root   1 singlet a              0.162224161 a.u.                4.4143 eV 
  ----------------------------------------------------------------------------
     Transition Moments    X  0.00000   Y  0.00000   Z  0.00000
     Transition Moments   XX  0.00000  XY -0.75247  XZ  0.00000
     Transition Moments   YY  0.00000  YZ  0.00000  ZZ  0.00000
     Dipole Oscillator Strength                         0.00000

     Occ.   16  a   ---  Virt.   17  a   -0.99450 X
     Occ.   16  a   ---  Virt.   20  a   -0.08224 X
  ----------------------------------------------------------------------------
  Root   2 singlet a              0.223873243 a.u.                6.0919 eV 
  ----------------------------------------------------------------------------
     Transition Moments    X  0.00000   Y -0.49583   Z  0.00000
     Transition Moments   XX  0.00000  XY  0.00000  XZ  0.00000
     Transition Moments   YY  0.00000  YZ  0.46607  ZZ  0.00000
     Dipole Oscillator Strength                         0.03669

     Occ.   16  a   ---  Virt.   18  a    0.99350 X
     Occ.   16  a   ---  Virt.   21  a   -0.08997 X
     Occ.   16  a   ---  Virt.   22  a   -0.05882 X
  ----------------------------------------------------------------------------
  Root   3 singlet a              0.260069256 a.u.                7.0768 eV 
  ----------------------------------------------------------------------------
     Transition Moments    X  0.00000   Y  0.00000   Z  0.13790
     Transition Moments   XX -0.42961  XY  0.00000  XZ  0.00000
     Transition Moments   YY -2.46311  YZ  0.00000  ZZ -0.99424
     Dipole Oscillator Strength                         0.00330

     Occ.   15  a   ---  Virt.   17  a   -0.13509 X
     Occ.   16  a   ---  Virt.   19  a   -0.98718 X
     Occ.   16  a   ---  Virt.   23  a   -0.05899 X
  ----------------------------------------------------------------------------
  Root   4 singlet a              0.269432003 a.u.                7.3316 eV 
  ----------------------------------------------------------------------------
     Transition Moments    X  0.00000   Y  0.00000   Z  0.00000
     Transition Moments   XX  0.00000  XY -1.04808  XZ  0.00000
     Transition Moments   YY  0.00000  YZ  0.00000  ZZ  0.00000
     Dipole Oscillator Strength                         0.00000

     Occ.   16  a   ---  Virt.   17  a   -0.08173 X
     Occ.   16  a   ---  Virt.   20  a    0.99385 X
     Occ.   16  a   ---  Virt.   27  a    0.05432 X
  ----------------------------------------------------------------------------
  Root   5 singlet a              0.271703073 a.u.                7.3934 eV 
  ----------------------------------------------------------------------------
     Transition Moments    X  0.00000   Y  0.06701   Z  0.00000
     Transition Moments   XX  0.00000  XY  0.00000  XZ  0.00000
     Transition Moments   YY  0.00000  YZ  2.12678  ZZ  0.00000
     Dipole Oscillator Strength                         0.00081

     Occ.   16  a   ---  Virt.   18  a    0.09684 X
     Occ.   16  a   ---  Virt.   21  a    0.98127 X
     Occ.   16  a   ---  Virt.   22  a    0.13848 X
     Occ.   16  a   ---  Virt.   25  a    0.05180 X
     Occ.   16  a   ---  Virt.   26  a   -0.05948 X
  ----------------------------------------------------------------------------
  Root   6 singlet a              0.283654512 a.u.                7.7186 eV 
  ----------------------------------------------------------------------------
     Transition Moments    X  0.00000   Y -0.57463   Z  0.00000
     Transition Moments   XX  0.00000  XY  0.00000  XZ  0.00000
     Transition Moments   YY  0.00000  YZ  0.80644  ZZ  0.00000
     Dipole Oscillator Strength                         0.06244

     Occ.   16  a   ---  Virt.   21  a   -0.14246 X
     Occ.   16  a   ---  Virt.   22  a    0.98160 X
     Occ.   16  a   ---  Virt.   25  a   -0.08567 X
     Occ.   16  a   ---  Virt.   26  a   -0.05580 X
  ----------------------------------------------------------------------------
  Root   7 singlet a              0.295541007 a.u.                8.0421 eV 
  ----------------------------------------------------------------------------
     Transition Moments    X  0.00000   Y  0.00000   Z -0.58026
     Transition Moments   XX -0.10285  XY  0.00000  XZ  0.00000
     Transition Moments   YY -0.01155  YZ  0.00000  ZZ  0.37797
     Dipole Oscillator Strength                         0.06634

     Occ.   16  a   ---  Virt.   19  a    0.05541 X
     Occ.   16  a   ---  Virt.   23  a   -0.99295 X
     Occ.   16  a   ---  Virt.   29  a   -0.06213 X
  ----------------------------------------------------------------------------
  Root   8 singlet a              0.304675651 a.u.                8.2906 eV 
  ----------------------------------------------------------------------------
     Transition Moments    X  0.32458   Y  0.00000   Z  0.00000
     Transition Moments   XX  0.00000  XY  0.00000  XZ -0.11857
     Transition Moments   YY  0.00000  YZ  0.00000  ZZ  0.00000
     Dipole Oscillator Strength                         0.02140

     Occ.   16  a   ---  Virt.   24  a   -0.99945 X
  ----------------------------------------------------------------------------
  Root   9 singlet a              0.307846811 a.u.                8.3769 eV 
  ----------------------------------------------------------------------------
     Transition Moments    X  0.00000   Y  0.00000   Z  0.00000
     Transition Moments   XX  0.00000  XY -0.00989  XZ  0.00000
     Transition Moments   YY  0.00000  YZ  0.00000  ZZ  0.00000
     Dipole Oscillator Strength                         0.00000

     Occ.    9  a   ---  Virt.   17  a    0.11109 X
     Occ.   14  a   ---  Virt.   17  a    0.99111 X
  ----------------------------------------------------------------------------
  Root  10 singlet a              0.309294556 a.u.                8.4163 eV 
  ----------------------------------------------------------------------------
     Transition Moments    X  0.00000   Y -0.17655   Z  0.00000
     Transition Moments   XX  0.00000  XY  0.00000  XZ  0.00000
     Transition Moments   YY  0.00000  YZ -1.20036  ZZ  0.00000
     Dipole Oscillator Strength                         0.00643

     Occ.   16  a   ---  Virt.   21  a    0.05463 X
     Occ.   16  a   ---  Virt.   22  a   -0.08657 X
     Occ.   16  a   ---  Virt.   25  a   -0.98162 X
     Occ.   16  a   ---  Virt.   26  a   -0.14960 X

              Target root =      1
          Target symmetry = none
      Ground state energy =   -193.212458887769
        Excitation energy =      0.162224161258
     Excited state energy =   -193.050234726510

 fn_civecs: ./ActnAcntrl_VEMExc_TDB3LYP.civecs_singlet                                                                                                                                                                                                                     

  CI vectors are stored in ./ActnAcntrl_VEMExc_TDB3LYP.cive

 Task  times  cpu:      715.6s     wall:      915.5s


                                NWChem Input Module
                                -------------------


 Summary of allocated global arrays
-----------------------------------
  No active global arrays



                         GA Statistics for process    0
                         ------------------------------

       create   destroy   get      put      acc     scatter   gather  read&inc
calls: 8168     8177     1.99e+07 9.13e+05 1.38e+07 2819        0     7458     
number of processes/call 1.01e+00 1.17e+00 1.14e+00 1.70e+00 0.00e+00
bytes total:             2.53e+10 8.25e+08 1.88e+10 6.68e+07 0.00e+00 5.97e+04
bytes remote:            6.65e+09 1.02e+08 7.12e+09 -8.52e+06 0.00e+00 0.00e+00
Max memory consumed for GA by this process: 60661192 bytes

MA_summarize_allocated_blocks: starting scan ...
MA_summarize_allocated_blocks: scan completed: 0 heap blocks, 0 stack blocks
MA usage statistics:

	allocation statistics:
					      heap	     stack
					      ----	     -----
	current number of blocks	         0	         0
	maximum number of blocks	        27	       103
	current total bytes		         0	         0
	maximum total bytes		  78580056	  52875480
	maximum total K-bytes		     78581	     52876
	maximum total M-bytes		        79	        53


                                     CITATION
                                     --------
                Please cite the following reference when publishing
                           results obtained with NWChem:

                 M. Valiev, E.J. Bylaska, N. Govind, K. Kowalski,
              T.P. Straatsma, H.J.J. van Dam, D. Wang, J. Nieplocha,
                        E. Apra, T.L. Windus, W.A. de Jong
                 "NWChem: a comprehensive and scalable open-source
                  solution for large scale molecular simulations"
                      Comput. Phys. Commun. 181, 1477 (2010)
                           doi:10.1016/j.cpc.2010.04.018

                              AUTHORS & CONTRIBUTORS
                              ----------------------
          E. Apra, E. J. Bylaska, W. A. de Jong, N. Govind, K. Kowalski,
       T. P. Straatsma, M. Valiev, H. J. J. van Dam, D. Wang, T. L. Windus,
    J. Hammond, J. Autschbach, K. Bhaskaran-Nair, J. Brabec, K. Lopata, W. Ma,
       M. Klemm, O. Villa, F. Aquino, S. Hirata, M. T. Hackler, T. Risthaus,
       M. Malagoli, A. Marenich, A. Otero-de-la-Roza, J. Mullin, P. Nichols,
      R. Peverati, J. Pittner, Y. Zhao, P.-D. Fan, A. Fonari, R. J. Harrison,
      M. Dupuis, D. Silverstein, D. M. A. Smith, J. Nieplocha, V. Tipparaju,
    M. Krishnan, B. E. Van Kuiken, A. Vazquez-Mayagoitia, L. Jensen, M. Swart,
      Q. Wu, T. Van Voorhis, A. A. Auer, M. Nooijen, L. D. Crosby, E. Brown,
      G. Cisneros, G. I. Fann, H. Fruchtl, J. Garza, K. Hirao, R. A. Kendall,
      J. A. Nichols, K. Tsemekhman, K. Wolinski, J. Anchell, D. E. Bernholdt,
      P. Borowski, T. Clark, D. Clerc, H. Dachsel, M. J. O. Deegan, K. Dyall,
    D. Elwood, E. Glendening, M. Gutowski, A. C. Hess, J. Jaffe, B. G. Johnson,
     J. Ju, R. Kobayashi, R. Kutteh, Z. Lin, R. Littlefield, X. Long, B. Meng,
      T. Nakajima, S. Niu, L. Pollack, M. Rosing, K. Glaesemann, G. Sandrone,
      M. Stave, H. Taylor, G. Thomas, J. H. van Lenthe, A. T. Wong, Z. Zhang.

 Total times  cpu:     3514.1s     wall:     4468.7s
