 argument  1 = metagga_li4h4_0_pkzb_pkzb.nw
All connections between all procs tested: SUCCESS
 


============================== echo of input deck ==============================
echo
start metagga_dat
geometry noautosym
   li           -0.86951255    -0.86951258    -0.86951257
   h            -0.94323913    -0.94323915     0.94323910
   h            -0.94323915     0.94323911    -0.94323918
   h             0.94323909    -0.94323917    -0.94323918
   li            0.86951263     0.86951263    -0.86951264
   li            0.86951266    -0.86951265     0.86951266
   li           -0.86951267     0.86951268     0.86951268
   h             0.94323913     0.94323913     0.94323914
end

basis
  * library "6-311++G(2d,2p)"
end

dft
  direct
  xc xpkzb99 cpkzb99
  maxiter 1000
end

driver
  clear
  maxiter 100
end

task dft optimize
task dft frequencies numerical
================================================================================


                                         
                                         
 
 
              Northwest Computational Chemistry Package (NWChem) 6.5
              ------------------------------------------------------
 
 
                    Environmental Molecular Sciences Laboratory
                       Pacific Northwest National Laboratory
                                Richland, WA 99352
 
                              Copyright (c) 1994-2013
                       Pacific Northwest National Laboratory
                            Battelle Memorial Institute
 
             NWChem is an open-source computational chemistry package
                        distributed under the terms of the
                      Educational Community License (ECL) 2.0
             A copy of the license is included with this distribution
                              in the LICENSE.TXT file
 
                                  ACKNOWLEDGMENT
                                  --------------

            This software and its documentation were developed at the
            EMSL at Pacific Northwest National Laboratory, a multiprogram
            national laboratory, operated for the U.S. Department of Energy
            by Battelle under Contract Number DE-AC05-76RL01830. Support
            for this work was provided by the Department of Energy Office
            of Biological and Environmental Research, Office of Basic
            Energy Sciences, and the Office of Advanced Scientific Computing.


           Job information
           ---------------

    hostname        = arcen
    program         = /home/d3y133/nwchem-dev/nwchem-dev-2015-01-16/bin/LINUX64/nwchem
    date            = Tue Feb  3 00:10:53 2015

    compiled        = Mon_Feb_02_10:11:44_2015
    source          = /home/d3y133/nwchem-dev/nwchem-dev-2015-01-16
    nwchem branch   = Development
    nwchem revision = 26704
    ga revision     = 10514
    input           = metagga_li4h4_0_pkzb_pkzb.nw
    prefix          = metagga_dat.
    data base       = /home/d3y133/nwchem-dev/nwchem-trunk-nonwad/QA/scratchdir/metagga_dat.db
    status          = startup
    nproc           =        4
    time left       =     -1s



           Memory information
           ------------------

    heap     =   13107196 doubles =    100.0 Mbytes
    stack    =   13107201 doubles =    100.0 Mbytes
    global   =   26214400 doubles =    200.0 Mbytes (distinct from heap & stack)
    total    =   52428797 doubles =    400.0 Mbytes
    verify   = yes
    hardfail = no 


           Directory information
           ---------------------
 
  0 permanent = /home/d3y133/nwchem-dev/nwchem-trunk-nonwad/QA/scratchdir
  0 scratch   = /home/d3y133/nwchem-dev/nwchem-trunk-nonwad/QA/scratchdir
 
 
 
 
                                NWChem Input Module
                                -------------------
 
 

 Scaling coordinates for geometry "geometry" by  1.889725989
 (inverse scale =  0.529177249)


          ------
          auto-z
          ------
  autoz: excessive number of variables                    312
                    18

 AUTOZ failed to generate good internal coordinates.
 Cartesian coordinates will be used in optimizations.

 
 
                             Geometry "geometry" -> ""
                             -------------------------
 
 Output coordinates in angstroms (scale by  1.889725989 to convert to a.u.)
 
  No.       Tag          Charge          X              Y              Z
 ---- ---------------- ---------- -------------- -------------- --------------
    1 li                   3.0000    -0.86951256    -0.86951259    -0.86951259
    2 h                    1.0000    -0.94323914    -0.94323916     0.94323908
    3 h                    1.0000    -0.94323916     0.94323910    -0.94323920
    4 h                    1.0000     0.94323908    -0.94323918    -0.94323920
    5 li                   3.0000     0.86951262     0.86951262    -0.86951266
    6 li                   3.0000     0.86951265    -0.86951266     0.86951264
    7 li                   3.0000    -0.86951268     0.86951267     0.86951266
    8 h                    1.0000     0.94323912     0.94323912     0.94323912
 
      Atomic Mass 
      ----------- 
 
      li                 7.016000
      h                  1.007825
 

 Effective nuclear repulsion energy (a.u.)      25.3234783205

            Nuclear Dipole moment (a.u.) 
            ----------------------------
        X                 Y               Z
 ---------------- ---------------- ----------------
    -0.0000000000    -0.0000000000     0.0000000000
 
 
            XYZ format geometry
            -------------------
     8
 geometry
 li                   -0.86951256    -0.86951259    -0.86951259
 h                    -0.94323914    -0.94323916     0.94323908
 h                    -0.94323916     0.94323910    -0.94323920
 h                     0.94323908    -0.94323918    -0.94323920
 li                    0.86951262     0.86951262    -0.86951266
 li                    0.86951265    -0.86951266     0.86951264
 li                   -0.86951268     0.86951267     0.86951266
 h                     0.94323912     0.94323912     0.94323912
 
 ==============================================================================
                                internuclear distances
 ------------------------------------------------------------------------------
       center one      |      center two      | atomic units |  angstroms
 ------------------------------------------------------------------------------
    5 li               |   1 li               |     4.64750  |     2.45935
    6 li               |   1 li               |     4.64750  |     2.45935
    6 li               |   5 li               |     4.64750  |     2.45935
    7 li               |   1 li               |     4.64750  |     2.45935
    7 li               |   5 li               |     4.64750  |     2.45935
    7 li               |   6 li               |     4.64750  |     2.45935
 ------------------------------------------------------------------------------
                         number of included internuclear distances:          6
 ==============================================================================



 ==============================================================================
                                 internuclear angles
 ------------------------------------------------------------------------------
        center 1       |       center 2       |       center 3       |  degrees
 ------------------------------------------------------------------------------
    5 li               |   1 li               |   6 li               |    60.00
    5 li               |   1 li               |   7 li               |    60.00
    6 li               |   1 li               |   7 li               |    60.00
    5 li               |   1 li               |   6 li               |    60.00
    5 li               |   1 li               |   7 li               |    60.00
    6 li               |   5 li               |   7 li               |    60.00
    6 li               |   1 li               |   5 li               |    60.00
    6 li               |   1 li               |   7 li               |    60.00
    6 li               |   5 li               |   7 li               |    60.00
    7 li               |   1 li               |   5 li               |    60.00
    7 li               |   1 li               |   6 li               |    60.00
    7 li               |   5 li               |   6 li               |    60.00
 ------------------------------------------------------------------------------
                            number of included internuclear angles:         12
 ==============================================================================



  library name resolved from: environment
  library file name is: <
 /home/d3y133/nwchem-dev/nwchem-trunk-nonwad/QA/../src/basis/libraries/>
  


 Summary of "ao basis" -> "" (cartesian)
 ------------------------------------------------------------------------------
       Tag                 Description            Shells   Functions and Types
 ---------------- ------------------------------  ------  ---------------------
 *                      6-311++G(2d,2p)               on all atoms 


 
  Deleted DRIVER restart files 
 
 
 
                           NWChem Geometry Optimization
                           ----------------------------
 
 
 maximum gradient threshold         (gmax) =   0.000450
 rms gradient threshold             (grms) =   0.000300
 maximum cartesian step threshold   (xmax) =   0.001800
 rms cartesian step threshold       (xrms) =   0.001200
 fixed trust radius                (trust) =   0.300000
 maximum step size to saddle      (sadstp) =   0.100000
 energy precision                  (eprec) =   5.0D-06
 maximum number of steps          (nptopt) =  100
 initial hessian option           (inhess) =    0
 line search option               (linopt) =    1
 hessian update option            (modupd) =    1
 saddle point option              (modsad) =    0
 initial eigen-mode to follow     (moddir) =    0
 initial variable to follow       (vardir) =    0
 follow first negative mode     (firstneg) =    T
 apply conjugacy                    (opcg) =    F
 source of zmatrix                         =           


          -------------------
          Energy Minimization
          -------------------

 
 Using diagonal initial Hessian 

          --------
          Step   0
          --------
 
 
                         Geometry "geometry" -> "geometry"
                         ---------------------------------
 
 Output coordinates in angstroms (scale by  1.889725989 to convert to a.u.)
 
  No.       Tag          Charge          X              Y              Z
 ---- ---------------- ---------- -------------- -------------- --------------
    1 li                   3.0000    -0.86951256    -0.86951259    -0.86951259
    2 h                    1.0000    -0.94323914    -0.94323916     0.94323908
    3 h                    1.0000    -0.94323916     0.94323910    -0.94323920
    4 h                    1.0000     0.94323908    -0.94323918    -0.94323920
    5 li                   3.0000     0.86951262     0.86951262    -0.86951266
    6 li                   3.0000     0.86951265    -0.86951266     0.86951264
    7 li                   3.0000    -0.86951268     0.86951267     0.86951266
    8 h                    1.0000     0.94323912     0.94323912     0.94323912
 
      Atomic Mass 
      ----------- 
 
      li                 7.016000
      h                  1.007825
 

 Effective nuclear repulsion energy (a.u.)      25.3234783205

            Nuclear Dipole moment (a.u.) 
            ----------------------------
        X                 Y               Z
 ---------------- ---------------- ----------------
    -0.0000000000    -0.0000000000     0.0000000000
 
 
                                 NWChem DFT Module
                                 -----------------
 
 
                      Basis "ao basis" -> "ao basis" (cartesian)
                      -----
  li (Lithium)
  ------------
            Exponent  Coefficients 
       -------------- ---------------------------------------------------------
  1 S  9.00460000E+02  0.002287
  1 S  1.34433000E+02  0.017635
  1 S  3.04365000E+01  0.087343
  1 S  8.62639000E+00  0.280977
  1 S  2.48332000E+00  0.658741
  1 S  3.03179000E-01  0.118712
 
  2 S  4.86890000E+00  0.093329
  2 S  8.56924000E-01  0.943045
  2 S  2.43227000E-01 -0.002798
 
  3 P  4.86890000E+00  0.032766
  3 P  8.56924000E-01  0.159792
  3 P  2.43227000E-01  0.885667
 
  4 S  6.35070000E-02  1.000000
 
  5 P  6.35070000E-02  1.000000
 
  6 S  2.43683000E-02  1.000000
 
  7 P  2.43683000E-02  1.000000
 
  8 S  7.40000000E-03  1.000000
 
  9 P  7.40000000E-03  1.000000
 
 10 D  4.00000000E-01  1.000000
 
 11 D  1.00000000E-01  1.000000
 
  h (Hydrogen)
  ------------
            Exponent  Coefficients 
       -------------- ---------------------------------------------------------
  1 S  3.38650000E+01  0.025494
  1 S  5.09479000E+00  0.190373
  1 S  1.15879000E+00  0.852161
 
  2 S  3.25840000E-01  1.000000
 
  3 S  1.02741000E-01  1.000000
 
  4 S  3.60000000E-02  1.000000
 
  5 P  1.50000000E+00  1.000000
 
  6 P  3.75000000E-01  1.000000
 


 Summary of "ao basis" -> "ao basis" (cartesian)
 ------------------------------------------------------------------------------
       Tag                 Description            Shells   Functions and Types
 ---------------- ------------------------------  ------  ---------------------
 li                     6-311++G(2d,2p)             11       29   5s4p2d
 h                      6-311++G(2d,2p)              6       10   4s2p




 Summary of "ao basis" -> "ao basis" (cartesian)
 ------------------------------------------------------------------------------
       Tag                 Description            Shells   Functions and Types
 ---------------- ------------------------------  ------  ---------------------
 li                     6-311++G(2d,2p)             11       29   5s4p2d
 h                      6-311++G(2d,2p)              6       10   4s2p


  Caching 1-el integrals 
 
            General Information
            -------------------
          SCF calculation type: DFT
          Wavefunction type:  closed shell.
          No. of atoms     :     8
          No. of electrons :    16
           Alpha electrons :     8
            Beta electrons :     8
          Charge           :     0
          Spin multiplicity:     1
          Use of symmetry is: off; symmetry adaption is: off
          Maximum number of iterations: ***
          This is a Direct SCF calculation.
          AO basis - number of functions:   156
                     number of shells:    68
          Convergence on energy requested: 1.00D-06
          Convergence on density requested: 1.00D-05
          Convergence on gradient requested: 5.00D-04
 
              XC Information
              --------------
                  PKZB metaGGA Exchange Functional  1.000          
             PKZB99 metaGGA Correlation Functional  1.000          
 
             Grid Information
             ----------------
          Grid used for XC integration:  medium    
          Radial quadrature: Mura-Knowles        
          Angular quadrature: Lebedev. 
          Tag              B.-S. Rad. Rad. Pts. Rad. Cut. Ang. Pts.
          ---              ---------- --------- --------- ---------
          li                  1.45       49          22.0       434
          h                   0.35       45          17.0       434
          Grid pruning is: on 
          Number of quadrature shells:   376
          Spatial weights used:  Erf1
 
          Convergence Information
          -----------------------
          Convergence aids based upon iterative change in 
          total energy or number of iterations. 
          Levelshifting, if invoked, occurs when the 
          HOMO/LUMO gap drops below (HL_TOL): 1.00D-02
          DIIS, if invoked, will attempt to extrapolate 
          using up to (NFOCK): 10 stored Fock matrices.

                    Damping( 0%)  Levelshifting(0.5)       DIIS
                  --------------- ------------------- ---------------
          dE  on:    start            ASAP                start   
          dE off:    2 iters        *** iters           *** iters 

 
      Screening Tolerance Information
      -------------------------------
          Density screening/tol_rho: 1.00D-10
          AO Gaussian exp screening on grid/accAOfunc:  14
          CD Gaussian exp screening on grid/accCDfunc:  20
          XC Gaussian exp screening on grid/accXCfunc:  20
          Schwarz screening/accCoul: 1.00D-08

 
      Superposition of Atomic Density Guess
      -------------------------------------
 
 Sum of atomic energies:         -31.72729480
 
      Non-variational initial energy
      ------------------------------

 Total energy =     -31.934051
 1-e energy   =     -90.491177
 2-e energy   =      33.233648
 HOMO         =      -0.380570
 LUMO         =      -0.044914
 
   Time after variat. SCF:      0.4
   Time prior to 1st pass:      0.4

 Grid_pts file          = /home/d3y133/nwchem-dev/nwchem-trunk-nonwad/QA/scratchdir/metagga_dat.gridpts.0
 Record size in doubles =  12289        No. of grid_pts per rec  =   3070
 Max. records in memory =     16        Max. recs in file   = 253312716

 Grid integrated density:      16.000129732132
 Requested integration accuracy:   0.10E-05

           Memory utilization after 1st SCF pass: 
           Heap Space remaining (MW):       12.88            12882468
          Stack Space remaining (MW):       13.11            13106180

   convergence    iter        energy       DeltaE   RMS-Dens  Diis-err    time
 ---------------- ----- ----------------- --------- --------- ---------  ------
 d= 0,ls=0.0,diis     1    -32.4485724039 -5.78D+01  5.48D-03  1.19D-01     3.6
 Grid integrated density:      16.000107820826
 Requested integration accuracy:   0.10E-05
 d= 0,ls=0.0,diis     2    -32.4698828497 -2.13D-02  3.23D-03  2.39D-02     6.7
 Grid integrated density:      16.000128849340
 Requested integration accuracy:   0.10E-05
 d= 0,ls=0.0,diis     3    -32.4759337726 -6.05D-03  1.48D-03  3.02D-03     9.9
 Grid integrated density:      16.000123127196
 Requested integration accuracy:   0.10E-05
 d= 0,ls=0.0,diis     4    -32.4767866203 -8.53D-04  6.83D-04  2.62D-06    13.1
 Grid integrated density:      16.000123418787
 Requested integration accuracy:   0.10E-05
 d= 0,ls=0.0,diis     5    -32.4767872059 -5.86D-07  1.35D-04  1.43D-07    16.3
 Grid integrated density:      16.000123377811
 Requested integration accuracy:   0.10E-05
 d= 0,ls=0.0,diis     6    -32.4767872387 -3.28D-08  6.09D-06  2.27D-09    19.5


         Total DFT energy =      -32.476787238722
      One electron energy =      -92.902323078136
           Coulomb energy =       44.132327892524
    Exchange-Corr. energy =       -9.030270373596
 Nuclear repulsion energy =       25.323478320486

 Numeric. integr. density =       16.000123377811

     Total iterative time =     19.0s


 
                       DFT Final Molecular Orbital Analysis
                       ------------------------------------
 
 Vector    1  Occ=2.000000D+00  E=-1.809150D+00
              MO Center= -3.6D-07,  4.1D-07,  1.2D-06, r^2= 2.4D+00
   Bfn.  Coefficient  Atom+Function         Bfn.  Coefficient  Atom+Function  
  ----- ------------  ---------------      ----- ------------  ---------------
     1      0.308685  1 Li s                 60      0.308685  5 Li s          
    89      0.308686  6 Li s                118      0.308686  7 Li s          
     2      0.211126  1 Li s                 61      0.211126  5 Li s          
    90      0.211126  6 Li s                119      0.211126  7 Li s          
 
 Vector    2  Occ=2.000000D+00  E=-1.807230D+00
              MO Center= -3.5D-01,  4.0D-01,  7.7D-01, r^2= 1.5D+00
   Bfn.  Coefficient  Atom+Function         Bfn.  Coefficient  Atom+Function  
  ----- ------------  ---------------      ----- ------------  ---------------
   118      0.513844  7 Li s                119      0.348723  7 Li s          
    89     -0.313029  6 Li s                 90     -0.212439  6 Li s          
 
 Vector    3  Occ=2.000000D+00  E=-1.807230D+00
              MO Center=  7.3D-01,  2.5D-02, -1.3D-02, r^2= 1.9D+00
   Bfn.  Coefficient  Atom+Function         Bfn.  Coefficient  Atom+Function  
  ----- ------------  ---------------      ----- ------------  ---------------
    60      0.424537  5 Li s                 89     -0.414452  6 Li s          
    61      0.288114  5 Li s                 90     -0.281270  6 Li s          
 
 Vector    4  Occ=2.000000D+00  E=-1.807230D+00
              MO Center= -3.7D-01, -4.3D-01, -7.6D-01, r^2= 1.5D+00
   Bfn.  Coefficient  Atom+Function         Bfn.  Coefficient  Atom+Function  
  ----- ------------  ---------------      ----- ------------  ---------------
     1      0.517334  1 Li s                  2      0.351091  1 Li s          
    60     -0.302365  5 Li s                 61     -0.205202  5 Li s          
 
 Vector    5  Occ=2.000000D+00  E=-2.584930D-01
              MO Center= -6.1D-08, -6.3D-08, -1.9D-08, r^2= 3.1D+00
   Bfn.  Coefficient  Atom+Function         Bfn.  Coefficient  Atom+Function  
  ----- ------------  ---------------      ----- ------------  ---------------
    31      0.146303  2 H  s                 41      0.146303  3 H  s          
    51      0.146303  4 H  s                148      0.146303  8 H  s          
     6      0.141067  1 Li s                 65      0.141067  5 Li s          
    94      0.141066  6 Li s                123      0.141066  7 Li s          
 
 Vector    6  Occ=2.000000D+00  E=-1.921394D-01
              MO Center=  1.6D-01, -8.1D-01, -1.2D-01, r^2= 3.2D+00
   Bfn.  Coefficient  Atom+Function         Bfn.  Coefficient  Atom+Function  
  ----- ------------  ---------------      ----- ------------  ---------------
    51      0.262694  4 H  s                 52      0.227597  4 H  s          
    31     -0.220976  2 H  s                 32     -0.191454  2 H  s          
   131      0.160593  7 Li s          
 
 Vector    7  Occ=2.000000D+00  E=-1.921394D-01
              MO Center= -5.7D-01,  2.4D-01, -5.1D-01, r^2= 3.3D+00
   Bfn.  Coefficient  Atom+Function         Bfn.  Coefficient  Atom+Function  
  ----- ------------  ---------------      ----- ------------  ---------------
    41      0.277593  3 H  s                 42      0.240506  3 H  s          
   102      0.169789  6 Li s                 31     -0.154831  2 H  s          
    40      0.150488  3 H  s          
 
 Vector    8  Occ=2.000000D+00  E=-1.921394D-01
              MO Center=  4.1D-01,  5.7D-01,  6.3D-01, r^2= 3.0D+00
   Bfn.  Coefficient  Atom+Function         Bfn.  Coefficient  Atom+Function  
  ----- ------------  ---------------      ----- ------------  ---------------
   148      0.295731  8 H  s                149      0.256228  8 H  s          
    14      0.181436  1 Li s                147      0.160321  8 H  s          
 
 Vector    9  Occ=0.000000D+00  E=-2.922545D-02
              MO Center=  1.2D-06,  1.7D-06,  3.3D-06, r^2= 1.7D+01
   Bfn.  Coefficient  Atom+Function         Bfn.  Coefficient  Atom+Function  
  ----- ------------  ---------------      ----- ------------  ---------------
    10      0.179240  1 Li s                 69      0.179448  5 Li s          
    98      0.179547  6 Li s                127      0.179666  7 Li s          
 
 Vector   10  Occ=0.000000D+00  E=-1.139671D-02
              MO Center= -8.0D-01, -9.2D-01, -1.2D+00, r^2= 1.9D+01
   Bfn.  Coefficient  Atom+Function         Bfn.  Coefficient  Atom+Function  
  ----- ------------  ---------------      ----- ------------  ---------------
    10      1.317087  1 Li s                 69     -0.640610  5 Li s          
    14     -0.554348  1 Li s                 98     -0.406431  6 Li s          
   150      0.307721  8 H  s                  6      0.304710  1 Li s          
    73      0.269861  5 Li s                127     -0.269897  7 Li s          
    15     -0.206189  1 Li px                16     -0.203777  1 Li py         
 
 Vector   11  Occ=0.000000D+00  E=-1.139669D-02
              MO Center=  1.3D+00,  3.3D-01, -1.9D-01, r^2= 2.0D+01
   Bfn.  Coefficient  Atom+Function         Bfn.  Coefficient  Atom+Function  
  ----- ------------  ---------------      ----- ------------  ---------------
    69      1.141654  5 Li s                 98     -0.950753  6 Li s          
    73     -0.480867  5 Li s                102      0.401017  6 Li s          
   127     -0.375701  7 Li s                 33      0.266788  2 H  s          
    65      0.264137  5 Li s                 43     -0.222253  3 H  s          
    94     -0.219991  6 Li s                 76     -0.186351  5 Li pz         
 
 Vector   12  Occ=0.000000D+00  E=-1.139667D-02
              MO Center= -5.2D-01,  5.9D-01,  1.4D+00, r^2= 1.9D+01
   Bfn.  Coefficient  Atom+Function         Bfn.  Coefficient  Atom+Function  
  ----- ------------  ---------------      ----- ------------  ---------------
   127      1.254027  7 Li s                 98     -0.847194  6 Li s          
   131     -0.530542  7 Li s                102      0.358756  6 Li s          
    53      0.293180  4 H  s                123      0.290197  7 Li s          
    69     -0.270778  5 Li s                 43     -0.198018  3 H  s          
   132     -0.198813  7 Li px                94     -0.196051  6 Li s          
 
 Vector   13  Occ=0.000000D+00  E= 7.940383D-03
              MO Center=  6.9D-05,  8.3D-05,  4.8D-04, r^2= 3.0D+01
   Bfn.  Coefficient  Atom+Function         Bfn.  Coefficient  Atom+Function  
  ----- ------------  ---------------      ----- ------------  ---------------
   105     -0.523786  6 Li pz               134     -0.523662  7 Li pz         
    17      0.519434  1 Li pz                76      0.517717  5 Li pz         
    75      0.267895  5 Li py                16     -0.265326  1 Li py         
   104     -0.263572  6 Li py               133      0.264670  7 Li py         
    74      0.258231  5 Li px                15     -0.255794  1 Li px         
 
 Vector   14  Occ=0.000000D+00  E= 7.940392D-03
              MO Center=  5.6D-05,  2.2D-04, -4.3D-06, r^2= 3.0D+01
   Bfn.  Coefficient  Atom+Function         Bfn.  Coefficient  Atom+Function  
  ----- ------------  ---------------      ----- ------------  ---------------
    15      0.454722  1 Li px                74     -0.453979  5 Li px         
   103     -0.454878  6 Li px               132      0.452797  7 Li px         
    75      0.449595  5 Li py               133      0.450389  7 Li py         
    16     -0.447045  1 Li py               104     -0.447177  6 Li py         
    11      0.192038  1 Li px                70     -0.191996  5 Li px         
 
 Vector   15  Occ=0.000000D+00  E= 1.111352D-02
              MO Center= -1.0D-03, -7.1D-03, -1.0D-02, r^2= 8.6D+01
   Bfn.  Coefficient  Atom+Function         Bfn.  Coefficient  Atom+Function  
  ----- ------------  ---------------      ----- ------------  ---------------
    17      0.876833  1 Li pz                15      0.871918  1 Li px         
    16      0.874961  1 Li py                76      0.869695  5 Li pz         
    74     -0.863864  5 Li px                75     -0.860760  5 Li py         
   103     -0.860664  6 Li px               104      0.864915  6 Li py         
   105     -0.855830  6 Li pz               132      0.856474  7 Li px         
 
 Vector   16  Occ=0.000000D+00  E= 1.186126D-02
              MO Center=  7.0D-01,  7.8D-01,  1.8D+00, r^2= 7.5D+01
   Bfn.  Coefficient  Atom+Function         Bfn.  Coefficient  Atom+Function  
  ----- ------------  ---------------      ----- ------------  ---------------
    14     76.214666  1 Li s                 73    -50.165645  5 Li s          
   102    -16.426133  6 Li s                131     -9.621462  7 Li s          
    15      7.825914  1 Li px                16      7.548502  1 Li py         
    17      6.154711  1 Li pz                74      6.097521  5 Li px         
    75      5.813608  5 Li py               103      3.855193  6 Li px         
 
 Vector   17  Occ=0.000000D+00  E= 1.186376D-02
              MO Center= -1.5D+00,  1.1D-01, -4.5D-02, r^2= 7.7D+01
   Bfn.  Coefficient  Atom+Function         Bfn.  Coefficient  Atom+Function  
  ----- ------------  ---------------      ----- ------------  ---------------
   102    -63.451575  6 Li s                 73     60.591428  5 Li s          
    14     23.577565  1 Li s                131    -20.716322  7 Li s          
   105      7.708367  6 Li pz                76      7.525496  5 Li pz         
   104     -5.879820  6 Li py                75     -5.679993  5 Li py         
    17      5.051424  1 Li pz               134      4.870501  7 Li pz         
 
 Vector   18  Occ=0.000000D+00  E= 1.186661D-02
              MO Center=  8.0D-01, -8.7D-01, -1.7D+00, r^2= 7.5D+01
   Bfn.  Coefficient  Atom+Function         Bfn.  Coefficient  Atom+Function  
  ----- ------------  ---------------      ----- ------------  ---------------
   131     77.350418  7 Li s                102    -47.050892  6 Li s          
    73    -18.051754  5 Li s                 14    -12.248980  1 Li s          
   132      7.852049  7 Li px               133     -7.604397  7 Li py         
   134     -6.397962  7 Li pz               103      5.829975  6 Li px         
   104     -5.591886  6 Li py                74      3.897628  5 Li px         
 
 Vector   19  Occ=0.000000D+00  E= 1.858732D-02
              MO Center= -9.0D-01,  1.2D+00,  2.6D+00, r^2= 7.3D+01
   Bfn.  Coefficient  Atom+Function         Bfn.  Coefficient  Atom+Function  
  ----- ------------  ---------------      ----- ------------  ---------------
   131     61.811887  7 Li s                102    -41.300957  6 Li s          
    73    -17.301587  5 Li s                132      7.378287  7 Li px         
   133     -6.999946  7 Li py               134     -6.367254  7 Li pz         
   103      5.434041  6 Li px               104     -5.069250  6 Li py         
   105      3.358221  6 Li pz                14     -3.209551  1 Li s          
 
 Vector   20  Occ=0.000000D+00  E= 1.858798D-02
              MO Center=  2.7D+00,  7.0D-01, -5.0D-01, r^2= 7.4D+01
   Bfn.  Coefficient  Atom+Function         Bfn.  Coefficient  Atom+Function  
  ----- ------------  ---------------      ----- ------------  ---------------
    73     58.455714  5 Li s                102    -46.814985  6 Li s          
   131    -14.756632  7 Li s                 76      7.138564  5 Li pz         
    75     -6.657205  5 Li py               105      6.027199  6 Li pz         
    74     -5.823285  5 Li px               104     -5.569396  6 Li py         
   103      4.115560  6 Li px                14      3.116079  1 Li s          
 
 Vector   21  Occ=0.000000D+00  E= 1.859078D-02
              MO Center= -1.8D+00, -1.9D+00, -2.1D+00, r^2= 7.1D+01
   Bfn.  Coefficient  Atom+Function         Bfn.  Coefficient  Atom+Function  
  ----- ------------  ---------------      ----- ------------  ---------------
    14     65.983718  1 Li s                 73    -25.698222  5 Li s          
   102    -21.893412  6 Li s                131    -18.391729  7 Li s          
    15      7.471810  1 Li px                16      7.385992  1 Li py         
    17      7.289314  1 Li pz                74      3.669706  5 Li px         
    75      3.576425  5 Li py               103      3.312192  6 Li px         
 
 Vector   22  Occ=0.000000D+00  E= 2.855256D-02
              MO Center= -9.0D-02,  9.2D-02, -4.1D-01, r^2= 8.9D+01
   Bfn.  Coefficient  Atom+Function         Bfn.  Coefficient  Atom+Function  
  ----- ------------  ---------------      ----- ------------  ---------------
    17      9.290475  1 Li pz                76     -9.322859  5 Li pz         
   132      5.795067  7 Li px                15     -5.753631  1 Li px         
   133      5.487561  7 Li py                75     -5.459930  5 Li py         
   103      3.807840  6 Li px                74     -3.765384  5 Li px         
   104      3.529489  6 Li py                16     -3.502734  1 Li py         
 
 Vector   23  Occ=0.000000D+00  E= 2.855268D-02
              MO Center= -2.5D-01, -3.4D-01,  2.4D-01, r^2= 8.9D+01
   Bfn.  Coefficient  Atom+Function         Bfn.  Coefficient  Atom+Function  
  ----- ------------  ---------------      ----- ------------  ---------------
    16      8.430917  1 Li py               104     -8.460408  6 Li py         
   132      7.319353  7 Li px                15     -7.276546  1 Li px         
   105     -6.971825  6 Li pz               134      6.983297  7 Li pz         
    74      1.451677  5 Li px               103     -1.408497  6 Li px         
    76      1.142235  5 Li pz                17     -1.130948  1 Li pz         
 
 Vector   24  Occ=0.000000D+00  E= 2.855270D-02
              MO Center=  3.4D-01,  2.6D-01,  1.9D-01, r^2= 8.9D+01
   Bfn.  Coefficient  Atom+Function         Bfn.  Coefficient  Atom+Function  
  ----- ------------  ---------------      ----- ------------  ---------------
    74      8.476506  5 Li px               103     -8.481533  6 Li px         
    75     -7.617446  5 Li py               133      7.629322  7 Li py         
   105      6.267796  6 Li pz               134     -6.271116  7 Li pz         
    16      2.206347  1 Li py               104     -2.194614  6 Li py         
    15     -1.350283  1 Li px               132      1.345584  7 Li px         
 
 Vector   25  Occ=0.000000D+00  E= 2.878396D-02
              MO Center=  1.3D-03,  1.3D-03, -5.9D-04, r^2= 6.0D+01
   Bfn.  Coefficient  Atom+Function         Bfn.  Coefficient  Atom+Function  
  ----- ------------  ---------------      ----- ------------  ---------------
    76      1.113901  5 Li pz               105     -1.112781  6 Li pz         
   134     -1.112957  7 Li pz                17      1.106721  1 Li pz         
    75      0.561277  5 Li py               104     -0.559074  6 Li py         
    16     -0.555990  1 Li py                74      0.556839  5 Li px         
   132     -0.554880  7 Li px               133      0.555741  7 Li py         
 
 Vector   26  Occ=0.000000D+00  E= 2.878399D-02
              MO Center=  1.6D-04, -1.6D-05,  1.9D-04, r^2= 6.0D+01
   Bfn.  Coefficient  Atom+Function         Bfn.  Coefficient  Atom+Function  
  ----- ------------  ---------------      ----- ------------  ---------------
    15      0.963369  1 Li px                16     -0.959809  1 Li py         
    74     -0.964311  5 Li px                75      0.962263  5 Li py         
   103     -0.963892  6 Li px               104     -0.961472  6 Li py         
   132      0.964229  7 Li px               133      0.961992  7 Li py         
    11     -0.349518  1 Li px                12      0.348789  1 Li py         
 
 Vector   27  Occ=0.000000D+00  E= 3.828880D-02
              MO Center=  8.9D-02,  9.0D-02,  5.2D-01, r^2= 6.8D+01
   Bfn.  Coefficient  Atom+Function         Bfn.  Coefficient  Atom+Function  
  ----- ------------  ---------------      ----- ------------  ---------------
    14    133.990452  1 Li s                 73   -112.567391  5 Li s          
   102    -14.089458  6 Li s                 15     13.649690  1 Li px         
    16     13.377212  1 Li py                74     12.237042  5 Li px         
    75     11.983803  5 Li py                17      9.571144  1 Li pz         
   131     -7.331714  7 Li s                 76     -6.520482  5 Li pz         
 
 Vector   28  Occ=0.000000D+00  E= 3.829223D-02
              MO Center= -3.5D-01,  1.7D-01, -7.3D-02, r^2= 6.8D+01
   Bfn.  Coefficient  Atom+Function         Bfn.  Coefficient  Atom+Function  
  ----- ------------  ---------------      ----- ------------  ---------------
   102    127.215764  6 Li s                 73    -96.073970  5 Li s          
    14    -65.444687  1 Li s                131     34.300749  7 Li s          
   105    -14.540428  6 Li pz                76    -12.482704  5 Li pz         
   104     10.680264  6 Li py                17    -10.507217  1 Li pz         
   103     -9.520237  6 Li px                75      8.669497  5 Li py         
 
 Vector   29  Occ=0.000000D+00  E= 3.829769D-02
              MO Center=  2.6D-01, -2.7D-01, -4.7D-01, r^2= 6.8D+01
   Bfn.  Coefficient  Atom+Function         Bfn.  Coefficient  Atom+Function  
  ----- ------------  ---------------      ----- ------------  ---------------
   131    148.042677  7 Li s                102    -82.284171  6 Li s          
    73    -35.441003  5 Li s                 14    -30.319490  1 Li s          
   132     14.190008  7 Li px               133    -14.013892  7 Li py         
   134    -12.224672  7 Li pz               103      9.905623  6 Li px         
   104     -9.702175  6 Li py                74      6.851132  5 Li px         
 
 Vector   30  Occ=0.000000D+00  E= 4.197466D-02
              MO Center=  6.7D-04,  3.6D-03,  6.0D-03, r^2= 5.9D+01
   Bfn.  Coefficient  Atom+Function         Bfn.  Coefficient  Atom+Function  
  ----- ------------  ---------------      ----- ------------  ---------------
    98      1.390305  6 Li s                127      1.393021  7 Li s          
   133      1.390058  7 Li py               134      1.393098  7 Li pz         
    10      1.382597  1 Li s                 69      1.388074  5 Li s          
   105      1.387063  6 Li pz               132     -1.384623  7 Li px         
    74      1.375374  5 Li px                75      1.379127  5 Li py         
 
 Vector   31  Occ=0.000000D+00  E= 5.984914D-02
              MO Center=  3.1D-02,  2.9D-02, -1.5D-01, r^2= 5.4D+01
   Bfn.  Coefficient  Atom+Function         Bfn.  Coefficient  Atom+Function  
  ----- ------------  ---------------      ----- ------------  ---------------
    73    110.138731  5 Li s                 14    -89.983369  1 Li s          
   102    -14.161721  6 Li s                 75    -11.849002  5 Li py         
    74    -11.598038  5 Li px                16    -10.259820  1 Li py         
    15    -10.013215  1 Li px                69      9.504431  5 Li s          
    76      9.280347  5 Li pz                10     -7.762463  1 Li s          
 
 Vector   32  Occ=0.000000D+00  E= 5.985209D-02
              MO Center=  5.3D-02, -1.1D-01,  2.4D-02, r^2= 5.4D+01
   Bfn.  Coefficient  Atom+Function         Bfn.  Coefficient  Atom+Function  
  ----- ------------  ---------------      ----- ------------  ---------------
   102    106.231345  6 Li s                 14    -78.904699  1 Li s          
    73    -49.612426  5 Li s                131     22.285411  7 Li s          
   105    -12.283840  6 Li pz                17    -10.131379  1 Li pz         
   103    -10.089805  6 Li px                98      9.164926  6 Li s          
   104      9.192932  6 Li py                15     -7.938635  1 Li px         
 
 Vector   33  Occ=0.000000D+00  E= 5.985794D-02
              MO Center= -8.5D-02,  8.1D-02,  1.3D-01, r^2= 5.4D+01
   Bfn.  Coefficient  Atom+Function         Bfn.  Coefficient  Atom+Function  
  ----- ------------  ---------------      ----- ------------  ---------------
   131    121.765515  7 Li s                102    -62.199441  6 Li s          
    14    -32.023867  1 Li s                 73    -27.542368  5 Li s          
   133    -12.458864  7 Li py               132     12.317210  7 Li px         
   134    -11.405341  7 Li pz               127     10.503523  7 Li s          
   104     -7.765852  6 Li py               103      7.630812  6 Li px         
 
 Vector   34  Occ=0.000000D+00  E= 7.043918D-02
              MO Center= -1.6D-03, -2.6D-03, -3.4D-03, r^2= 3.6D+01
   Bfn.  Coefficient  Atom+Function         Bfn.  Coefficient  Atom+Function  
  ----- ------------  ---------------      ----- ------------  ---------------
    33      5.478533  2 H  s                 43      5.479407  3 H  s          
    53      5.480493  4 H  s                150      5.474112  8 H  s          
    10     -3.694084  1 Li s                 69     -3.678522  5 Li s          
    98     -3.674136  6 Li s                127     -3.668735  7 Li s          
    11     -2.270260  1 Li px                12     -2.270331  1 Li py         
 
 Vector   35  Occ=0.000000D+00  E= 7.473700D-02
              MO Center=  8.7D-02, -9.3D-02, -4.1D-01, r^2= 3.5D+01
   Bfn.  Coefficient  Atom+Function         Bfn.  Coefficient  Atom+Function  
  ----- ------------  ---------------      ----- ------------  ---------------
    17      4.812967  1 Li pz                76     -4.810763  5 Li pz         
    13     -3.482774  1 Li pz                72      3.483422  5 Li pz         
    16     -3.019003  1 Li py               104      3.017051  6 Li py         
    74     -2.851152  5 Li px               103      2.849235  6 Li px         
    12      2.183915  1 Li py               100     -2.184407  6 Li py         
 
 Vector   36  Occ=0.000000D+00  E= 7.473705D-02
              MO Center= -3.0D-01, -1.4D-01,  6.1D-02, r^2= 3.6D+01
   Bfn.  Coefficient  Atom+Function         Bfn.  Coefficient  Atom+Function  
  ----- ------------  ---------------      ----- ------------  ---------------
    15      4.471962  1 Li px               132     -4.468878  7 Li px         
    16     -3.721330  1 Li py               104      3.720479  6 Li py         
    11     -3.234946  1 Li px               128      3.235745  7 Li px         
    12      2.693269  1 Li py               100     -2.693544  6 Li py         
    75      2.477712  5 Li py               133     -2.478571  7 Li py         
 
 Vector   37  Occ=0.000000D+00  E= 7.473711D-02
              MO Center=  2.1D-01,  2.3D-01,  3.5D-01, r^2= 3.5D+01
   Bfn.  Coefficient  Atom+Function         Bfn.  Coefficient  Atom+Function  
  ----- ------------  ---------------      ----- ------------  ---------------
   105      4.444715  6 Li pz               134     -4.444088  7 Li pz         
    75     -3.709353  5 Li py               133      3.707800  7 Li py         
    74      3.555838  5 Li px               103     -3.554607  6 Li px         
   101     -3.215574  6 Li pz               130      3.215742  7 Li pz         
    71      2.683743  5 Li py               129     -2.684126  7 Li py         
 
 Vector   38  Occ=0.000000D+00  E= 7.719428D-02
              MO Center= -3.4D-01,  4.6D-01,  1.0D+00, r^2= 2.9D+01
   Bfn.  Coefficient  Atom+Function         Bfn.  Coefficient  Atom+Function  
  ----- ------------  ---------------      ----- ------------  ---------------
   131     42.007617  7 Li s                127     29.673861  7 Li s          
   102    -28.593796  6 Li s                 98    -20.200438  6 Li s          
    73    -12.011755  5 Li s                 69     -8.486451  5 Li s          
   128      6.582343  7 Li px               129     -6.249113  7 Li py         
   130     -5.728427  7 Li pz                99      4.887659  6 Li px         
 
 Vector   39  Occ=0.000000D+00  E= 7.719552D-02
              MO Center=  1.1D+00,  3.0D-01, -2.2D-01, r^2= 3.0D+01
   Bfn.  Coefficient  Atom+Function         Bfn.  Coefficient  Atom+Function  
  ----- ------------  ---------------      ----- ------------  ---------------
    73     40.309017  5 Li s                102    -31.653228  6 Li s          
    69     28.478094  5 Li s                 98    -22.363006  6 Li s          
   131     -9.976091  7 Li s                127     -7.048229  7 Li s          
    72      6.400044  5 Li pz                71     -6.045640  5 Li py         
    70     -5.364683  5 Li px               101      5.307279  6 Li pz         
 
 Vector   40  Occ=0.000000D+00  E= 7.720520D-02
              MO Center= -7.2D-01, -7.6D-01, -8.0D-01, r^2= 2.9D+01
   Bfn.  Coefficient  Atom+Function         Bfn.  Coefficient  Atom+Function  
  ----- ------------  ---------------      ----- ------------  ---------------
    14     45.316052  1 Li s                 10     31.933386  1 Li s          
    73    -16.676461  5 Li s                102    -15.095328  6 Li s          
   131    -13.545437  7 Li s                 69    -11.758412  5 Li s          
    98    -10.636357  6 Li s                127     -9.544262  7 Li s          
    11      6.705437  1 Li px                12      6.656695  1 Li py         
 
 Vector   41  Occ=0.000000D+00  E= 1.013606D-01
              MO Center= -4.1D-07, -1.2D-06,  3.9D-06, r^2= 2.7D+01
   Bfn.  Coefficient  Atom+Function         Bfn.  Coefficient  Atom+Function  
  ----- ------------  ---------------      ----- ------------  ---------------
    13      1.008914  1 Li pz                72      1.008921  5 Li pz         
   101     -1.008906  6 Li pz               130     -1.008905  7 Li pz         
    17     -0.623472  1 Li pz                76     -0.623498  5 Li pz         
   105      0.623435  6 Li pz               134      0.623436  7 Li pz         
     9     -0.559791  1 Li pz                68     -0.559789  5 Li pz         
 
 Vector   42  Occ=0.000000D+00  E= 1.013606D-01
              MO Center=  1.0D-06,  1.8D-06, -4.3D-06, r^2= 2.7D+01
   Bfn.  Coefficient  Atom+Function         Bfn.  Coefficient  Atom+Function  
  ----- ------------  ---------------      ----- ------------  ---------------
    11      0.881749  1 Li px                70     -0.881756  5 Li px         
    99     -0.881743  6 Li px               128      0.881755  7 Li px         
    12     -0.865745  1 Li py                71      0.865740  5 Li py         
   100     -0.865737  6 Li py               129      0.865727  7 Li py         
    15     -0.544885  1 Li px                74      0.544886  5 Li px         
 
 Vector   43  Occ=0.000000D+00  E= 1.215833D-01
              MO Center= -2.8D-01, -3.2D-01, -5.0D-01, r^2= 3.0D+01
   Bfn.  Coefficient  Atom+Function         Bfn.  Coefficient  Atom+Function  
  ----- ------------  ---------------      ----- ------------  ---------------
    14    100.873986  1 Li s                 73    -55.152397  5 Li s          
   102    -28.124360  6 Li s                131    -17.597818  7 Li s          
    15      9.787205  1 Li px                16      9.411369  1 Li py         
    17      8.448112  1 Li pz                74      6.695685  5 Li px         
   150     -6.409924  8 H  s                 75      6.321193  5 Li py         
 
 Vector   44  Occ=0.000000D+00  E= 1.215915D-01
              MO Center=  5.2D-01,  3.4D-02, -2.0D-02, r^2= 3.0D+01
   Bfn.  Coefficient  Atom+Function         Bfn.  Coefficient  Atom+Function  
  ----- ------------  ---------------      ----- ------------  ---------------
    73     83.829559  5 Li s                102    -79.765205  6 Li s          
   131    -23.557530  7 Li s                 14     19.493080  1 Li s          
    76      9.346827  5 Li pz               105      9.073999  6 Li pz         
    75     -7.815843  5 Li py               104     -7.539334  6 Li py         
    74     -5.813721  5 Li px                33     -5.319186  2 H  s          
 
 Vector   45  Occ=0.000000D+00  E= 1.215984D-01
              MO Center= -2.4D-01,  2.8D-01,  5.2D-01, r^2= 3.0D+01
   Bfn.  Coefficient  Atom+Function         Bfn.  Coefficient  Atom+Function  
  ----- ------------  ---------------      ----- ------------  ---------------
   131     99.424896  7 Li s                102    -59.934159  6 Li s          
    73    -25.938214  5 Li s                 14    -13.552467  1 Li s          
   132      9.780113  7 Li px               133     -9.340608  7 Li py         
   134     -8.130875  7 Li pz               103      7.110535  6 Li px         
   104     -6.668988  6 Li py                53     -6.297797  4 H  s          
 
 Vector   46  Occ=0.000000D+00  E= 1.337911D-01
              MO Center= -8.8D-04, -8.3D-04, -7.8D-04, r^2= 3.2D+01
   Bfn.  Coefficient  Atom+Function         Bfn.  Coefficient  Atom+Function  
  ----- ------------  ---------------      ----- ------------  ---------------
    10      6.501601  1 Li s                 69      6.504652  5 Li s          
    98      6.504085  6 Li s                127      6.503444  7 Li s          
    33     -5.852262  2 H  s                 43     -5.852156  3 H  s          
    53     -5.852036  4 H  s                150     -5.848689  8 H  s          
    11      1.214915  1 Li px                12      1.214956  1 Li py         
 
 Vector   47  Occ=0.000000D+00  E= 1.358124D-01
              MO Center= -2.1D-04, -1.8D-04, -1.6D-04, r^2= 2.1D+01
   Bfn.  Coefficient  Atom+Function         Bfn.  Coefficient  Atom+Function  
  ----- ------------  ---------------      ----- ------------  ---------------
    33     13.529157  2 H  s                 43     13.529186  3 H  s          
    53     13.529209  4 H  s                150     13.524255  8 H  s          
    10     -9.162778  1 Li s                 69     -9.160946  5 Li s          
    98     -9.157991  6 Li s                127     -9.154316  7 Li s          
    11     -3.008397  1 Li px                12     -3.008526  1 Li py         
 
 Vector   48  Occ=0.000000D+00  E= 1.422839D-01
              MO Center=  2.0D-01,  2.3D-01,  3.0D-01, r^2= 2.6D+01
   Bfn.  Coefficient  Atom+Function         Bfn.  Coefficient  Atom+Function  
  ----- ------------  ---------------      ----- ------------  ---------------
    10     36.484120  1 Li s                 69    -17.189598  5 Li s          
    98    -11.310181  6 Li s                127     -7.993576  7 Li s          
   150     -6.246281  8 H  s                 11      5.875786  1 Li px         
    12      5.546672  1 Li py                13      4.963673  1 Li pz         
    70      4.263326  5 Li px                71      3.934588  5 Li py         
 
 Vector   49  Occ=0.000000D+00  E= 1.423007D-01
              MO Center= -3.4D-01, -5.9D-02,  3.8D-02, r^2= 2.7D+01
   Bfn.  Coefficient  Atom+Function         Bfn.  Coefficient  Atom+Function  
  ----- ------------  ---------------      ----- ------------  ---------------
    69     31.300515  5 Li s                 98    -27.368099  6 Li s          
   127     -8.367997  7 Li s                 72      6.159844  5 Li pz         
   101      5.832169  6 Li pz                33     -5.359472  2 H  s          
    71     -4.891341  5 Li py                43      4.688927  3 H  s          
   100     -4.562576  6 Li py                10      4.431245  1 Li s          
 
 Vector   50  Occ=0.000000D+00  E= 1.423097D-01
              MO Center=  1.4D-01, -1.7D-01, -3.4D-01, r^2= 2.7D+01
   Bfn.  Coefficient  Atom+Function         Bfn.  Coefficient  Atom+Function  
  ----- ------------  ---------------      ----- ------------  ---------------
   127     35.074201  7 Li s                 98    -22.067779  6 Li s          
    69     -9.410196  5 Li s                128      6.054720  7 Li px         
    53     -6.009773  4 H  s                129     -5.478265  7 Li py         
    99      4.966635  6 Li px               100     -4.389566  6 Li py         
   130     -4.223375  7 Li pz                70      3.908317  5 Li px         
 
 Vector   51  Occ=0.000000D+00  E= 1.737442D-01
              MO Center= -3.6D-03,  3.5D-03, -3.1D-01, r^2= 1.9D+01
   Bfn.  Coefficient  Atom+Function         Bfn.  Coefficient  Atom+Function  
  ----- ------------  ---------------      ----- ------------  ---------------
    13      3.384063  1 Li pz                72     -3.384991  5 Li pz         
    17     -2.841945  1 Li pz                76      2.840587  5 Li pz         
     9     -2.607929  1 Li pz                68      2.607809  5 Li pz         
    11     -1.745283  1 Li px               128      1.746271  7 Li px         
    70     -1.705024  5 Li px                99      1.706055  6 Li px         
 
 Vector   52  Occ=0.000000D+00  E= 1.737442D-01
              MO Center= -1.5D-01, -1.6D-01,  4.6D-02, r^2= 1.9D+01
   Bfn.  Coefficient  Atom+Function         Bfn.  Coefficient  Atom+Function  
  ----- ------------  ---------------      ----- ------------  ---------------
    12     -2.889248  1 Li py               100      2.889707  6 Li py         
    11      2.836501  1 Li px               128     -2.837676  7 Li px         
    16      2.426197  1 Li py               104     -2.425456  6 Li py         
    15     -2.383148  1 Li px               132      2.381459  7 Li px         
     8      2.226486  1 Li py                96     -2.226420  6 Li py         
 
 Vector   53  Occ=0.000000D+00  E= 1.737442D-01
              MO Center=  1.5D-01,  1.6D-01,  2.6D-01, r^2= 1.9D+01
   Bfn.  Coefficient  Atom+Function         Bfn.  Coefficient  Atom+Function  
  ----- ------------  ---------------      ----- ------------  ---------------
   101      3.117219  6 Li pz               130     -3.117469  7 Li pz         
   105     -2.618710  6 Li pz               134      2.618325  7 Li pz         
    71     -2.515797  5 Li py               129      2.516473  7 Li py         
    70      2.464858  5 Li px                99     -2.465416  6 Li px         
    97     -2.402392  6 Li pz               126      2.402358  7 Li pz         
 
 Vector   54  Occ=0.000000D+00  E= 1.869550D-01
              MO Center= -1.1D-01, -1.1D-01, -1.3D-01, r^2= 1.8D+01
   Bfn.  Coefficient  Atom+Function         Bfn.  Coefficient  Atom+Function  
  ----- ------------  ---------------      ----- ------------  ---------------
    14     36.899070  1 Li s                 73    -14.772735  5 Li s          
    10    -12.348502  1 Li s                102    -12.130834  6 Li s          
   131     -9.995516  7 Li s                 69      4.943123  5 Li s          
   150     -4.683012  8 H  s                 98      4.059554  6 Li s          
    15      3.873098  1 Li px                16      3.813434  1 Li py         
 
 Vector   55  Occ=0.000000D+00  E= 1.869579D-01
              MO Center=  1.6D-01,  4.1D-02, -2.9D-02, r^2= 1.8D+01
   Bfn.  Coefficient  Atom+Function         Bfn.  Coefficient  Atom+Function  
  ----- ------------  ---------------      ----- ------------  ---------------
    73     32.557235  5 Li s                102    -26.341463  6 Li s          
    69    -10.897610  5 Li s                 98      8.816928  6 Li s          
   131     -8.332684  7 Li s                 33     -4.131263  2 H  s          
    76      3.721727  5 Li pz                75     -3.430881  5 Li py         
    43      3.342565  3 H  s                105      3.195975  6 Li pz         
 
 Vector   56  Occ=0.000000D+00  E= 1.869586D-01
              MO Center= -5.6D-02,  7.3D-02,  1.6D-01, r^2= 1.8D+01
   Bfn.  Coefficient  Atom+Function         Bfn.  Coefficient  Atom+Function  
  ----- ------------  ---------------      ----- ------------  ---------------
   131     34.663213  7 Li s                102    -23.016647  6 Li s          
   127    -11.603306  7 Li s                 73     -9.618856  5 Li s          
    98      7.704528  6 Li s                 53     -4.398481  4 H  s          
   132      3.843142  7 Li px               133     -3.631842  7 Li py         
   134     -3.258581  7 Li pz                69      3.219753  5 Li s          
 
 Vector   57  Occ=0.000000D+00  E= 2.119005D-01
              MO Center= -2.6D-02, -2.9D-02, -8.2D-02, r^2= 1.8D+01
   Bfn.  Coefficient  Atom+Function         Bfn.  Coefficient  Atom+Function  
  ----- ------------  ---------------      ----- ------------  ---------------
    14     43.879928  1 Li s                 73    -31.204280  5 Li s          
    10     10.510857  1 Li s                  6     -8.630517  1 Li s          
   102     -8.278468  6 Li s                 69     -7.472993  5 Li s          
    65      6.138141  5 Li s                  7     -4.793405  1 Li px         
     8     -4.594401  1 Li py                15      4.400520  1 Li px         
 
 Vector   58  Occ=0.000000D+00  E= 2.119023D-01
              MO Center=  6.6D-02, -1.4D-02,  6.5D-03, r^2= 1.8D+01
   Bfn.  Coefficient  Atom+Function         Bfn.  Coefficient  Atom+Function  
  ----- ------------  ---------------      ----- ------------  ---------------
   102     38.596685  6 Li s                 73    -33.713941  5 Li s          
    14    -15.628729  1 Li s                131     10.746025  7 Li s          
    98      9.240939  6 Li s                 69     -8.071470  5 Li s          
    94     -7.592117  6 Li s                 65      6.632147  5 Li s          
    97      4.965525  6 Li pz                68      4.657440  5 Li pz         
 
 Vector   59  Occ=0.000000D+00  E= 2.119048D-01
              MO Center= -4.0D-02,  4.3D-02,  7.5D-02, r^2= 1.8D+01
   Bfn.  Coefficient  Atom+Function         Bfn.  Coefficient  Atom+Function  
  ----- ------------  ---------------      ----- ------------  ---------------
   131     45.881438  7 Li s                102    -26.104138  6 Li s          
    73    -11.362993  5 Li s                127     10.982012  7 Li s          
   123     -9.023838  7 Li s                 14     -8.414273  1 Li s          
    98     -6.248127  6 Li s                 94      5.134224  6 Li s          
   124     -4.816471  7 Li px               125      4.665190  7 Li py         
 
 Vector   60  Occ=0.000000D+00  E= 2.424136D-01
              MO Center= -5.3D-05, -6.4D-05, -7.3D-05, r^2= 1.2D+01
   Bfn.  Coefficient  Atom+Function         Bfn.  Coefficient  Atom+Function  
  ----- ------------  ---------------      ----- ------------  ---------------
    33     11.508875  2 H  s                 43     11.508897  3 H  s          
    53     11.508923  4 H  s                150     11.508561  8 H  s          
    10     -8.207707  1 Li s                 69     -8.210086  5 Li s          
    98     -8.210030  6 Li s                127     -8.209957  7 Li s          
    11     -1.915711  1 Li px                12     -1.915683  1 Li py         
 
 Vector   61  Occ=0.000000D+00  E= 3.110593D-01
              MO Center= -1.4D-05, -7.7D-06, -2.2D-06, r^2= 1.2D+01
   Bfn.  Coefficient  Atom+Function         Bfn.  Coefficient  Atom+Function  
  ----- ------------  ---------------      ----- ------------  ---------------
    33      3.148145  2 H  s                 43      3.148170  3 H  s          
    53      3.148200  4 H  s                150      3.148104  8 H  s          
    32     -2.803618  2 H  s                 42     -2.803582  3 H  s          
    52     -2.803538  4 H  s                149     -2.803621  8 H  s          
    10     -1.983260  1 Li s                 69     -1.984050  5 Li s          
 
 Vector   62  Occ=0.000000D+00  E= 3.238200D-01
              MO Center=  7.7D-07, -2.4D-07,  3.8D-06, r^2= 1.1D+01
   Bfn.  Coefficient  Atom+Function         Bfn.  Coefficient  Atom+Function  
  ----- ------------  ---------------      ----- ------------  ---------------
    25      0.817350  1 Li dxy               84      0.817361  5 Li dxy        
   113     -0.817362  6 Li dxy              142     -0.817366  7 Li dxy        
    28     -0.737650  1 Li dyz               87      0.737656  5 Li dyz        
   116      0.737676  6 Li dyz              145     -0.737678  7 Li dyz        
     9      0.538013  1 Li pz                68      0.538010  5 Li pz         
 
 Vector   63  Occ=0.000000D+00  E= 3.238200D-01
              MO Center=  3.2D-07,  3.1D-06,  4.7D-07, r^2= 1.1D+01
   Bfn.  Coefficient  Atom+Function         Bfn.  Coefficient  Atom+Function  
  ----- ------------  ---------------      ----- ------------  ---------------
    26      0.897776  1 Li dxz               85     -0.897790  5 Li dxz        
   114      0.897806  6 Li dxz              143     -0.897804  7 Li dxz        
     8      0.590939  1 Li py                67     -0.590877  5 Li py         
    96      0.590943  6 Li py               125     -0.590879  7 Li py         
    28     -0.517908  1 Li dyz               87      0.517926  5 Li dyz        
 
 Vector   64  Occ=0.000000D+00  E= 3.375588D-01
              MO Center= -4.2D-01, -4.7D-01, -6.5D-01, r^2= 1.6D+01
   Bfn.  Coefficient  Atom+Function         Bfn.  Coefficient  Atom+Function  
  ----- ------------  ---------------      ----- ------------  ---------------
    14     53.722502  1 Li s                 73    -26.547628  5 Li s          
   102    -16.183600  6 Li s                  6    -14.374013  1 Li s          
   131    -10.991248  7 Li s                 65      7.103109  5 Li s          
     7     -6.937961  1 Li px                 8     -6.798100  1 Li py         
     9     -6.518699  1 Li pz                15      5.058657  1 Li px         
 
 Vector   65  Occ=0.000000D+00  E= 3.375663D-01
              MO Center=  7.2D-01,  1.0D-01, -6.4D-02, r^2= 1.6D+01
   Bfn.  Coefficient  Atom+Function         Bfn.  Coefficient  Atom+Function  
  ----- ------------  ---------------      ----- ------------  ---------------
    73     45.653068  5 Li s                102    -40.970494  6 Li s          
   131    -12.371124  7 Li s                 65    -12.212798  5 Li s          
    94     10.959945  6 Li s                 14      7.688560  1 Li s          
    68     -6.354820  5 Li pz                97     -5.849981  6 Li pz         
    67      5.813084  5 Li py                96      5.309379  6 Li py         
 
 Vector   66  Occ=0.000000D+00  E= 3.375712D-01
              MO Center= -3.1D-01,  3.7D-01,  7.2D-01, r^2= 1.6D+01
   Bfn.  Coefficient  Atom+Function         Bfn.  Coefficient  Atom+Function  
  ----- ------------  ---------------      ----- ------------  ---------------
   131     52.040180  7 Li s                102    -32.263828  6 Li s          
    73    -13.855787  5 Li s                123    -13.919128  7 Li s          
    94      8.629483  6 Li s                124     -6.846629  7 Li px         
   125      6.632146  7 Li py               126      6.135404  7 Li pz         
    14     -5.920578  1 Li s                132      5.072599  7 Li px         
 
 Vector   67  Occ=0.000000D+00  E= 3.466787D-01
              MO Center=  2.0D-01, -2.6D-01, -4.7D-01, r^2= 9.1D+00
   Bfn.  Coefficient  Atom+Function         Bfn.  Coefficient  Atom+Function  
  ----- ------------  ---------------      ----- ------------  ---------------
    29      0.977291  1 Li dzz               88     -0.977271  5 Li dzz        
    27     -0.782879  1 Li dyy              115      0.782861  6 Li dyy        
    25      0.713532  1 Li dxy               84     -0.713558  5 Li dxy        
    83      0.657587  5 Li dxx              112     -0.657572  6 Li dxx        
    26     -0.571602  1 Li dxz              114      0.571624  6 Li dxz        
 
 Vector   68  Occ=0.000000D+00  E= 3.466787D-01
              MO Center= -4.9D-01, -6.2D-02,  4.0D-02, r^2= 9.2D+00
   Bfn.  Coefficient  Atom+Function         Bfn.  Coefficient  Atom+Function  
  ----- ------------  ---------------      ----- ------------  ---------------
    24      1.013292  1 Li dxx              141     -1.013261  7 Li dxx        
    28      0.739825  1 Li dyz              145     -0.739867  7 Li dyz        
    27     -0.664576  1 Li dyy              115      0.664577  6 Li dyy        
    86     -0.563726  5 Li dyy              144      0.563738  7 Li dyy        
    26     -0.485221  1 Li dxz              114      0.485228  6 Li dxz        
 
 Vector   69  Occ=0.000000D+00  E= 3.466787D-01
              MO Center=  2.9D-01,  3.2D-01,  4.3D-01, r^2= 9.0D+00
   Bfn.  Coefficient  Atom+Function         Bfn.  Coefficient  Atom+Function  
  ----- ------------  ---------------      ----- ------------  ---------------
   117      0.927509  6 Li dzz              146     -0.927504  7 Li dzz        
    86     -0.811212  5 Li dyy              144      0.811196  7 Li dyy        
    83      0.774236  5 Li dxx              112     -0.774222  6 Li dxx        
   113     -0.677252  6 Li dxy              142      0.677259  7 Li dxy        
    85      0.592293  5 Li dxz              143     -0.592311  7 Li dxz        
 
 Vector   70  Occ=0.000000D+00  E= 3.977547D-01
              MO Center=  2.1D-01,  2.3D-01,  3.2D-01, r^2= 1.5D+01
   Bfn.  Coefficient  Atom+Function         Bfn.  Coefficient  Atom+Function  
  ----- ------------  ---------------      ----- ------------  ---------------
    97      5.350621  6 Li pz               126     -5.351196  7 Li pz         
    67     -4.674902  5 Li py               125      4.676228  7 Li py         
    66      4.338379  5 Li px                95     -4.339280  6 Li px         
   101     -2.709591  6 Li pz               130      2.709234  7 Li pz         
   113     -2.628327  6 Li dxy              142      2.627991  7 Li dxy        
 
 Vector   71  Occ=0.000000D+00  E= 3.977550D-01
              MO Center= -3.6D-01, -4.6D-02,  2.9D-02, r^2= 1.5D+01
   Bfn.  Coefficient  Atom+Function         Bfn.  Coefficient  Atom+Function  
  ----- ------------  ---------------      ----- ------------  ---------------
     7      5.799165  1 Li px               124     -5.801928  7 Li px         
     8     -3.832450  1 Li py                96      3.832865  6 Li py         
    67      3.251624  5 Li py               125     -3.251049  7 Li py         
    11     -2.937173  1 Li px               128      2.935452  7 Li px         
    28     -2.848381  1 Li dyz              145      2.846715  7 Li dyz        
 
 Vector   72  Occ=0.000000D+00  E= 3.977552D-01
              MO Center=  1.5D-01, -1.9D-01, -3.5D-01, r^2= 1.5D+01
   Bfn.  Coefficient  Atom+Function         Bfn.  Coefficient  Atom+Function  
  ----- ------------  ---------------      ----- ------------  ---------------
     9      5.610051  1 Li pz                68     -5.611750  5 Li pz         
     8     -4.443413  1 Li py                96      4.445159  6 Li py         
    66     -3.870004  5 Li px                95      3.871121  6 Li px         
    13     -2.840347  1 Li pz                72      2.839303  5 Li pz         
    25     -2.754048  1 Li dxy               84      2.753024  5 Li dxy        
 
 Vector   73  Occ=0.000000D+00  E= 4.048350D-01
              MO Center= -2.0D-05, -3.3D-05, -3.1D-05, r^2= 9.6D+00
   Bfn.  Coefficient  Atom+Function         Bfn.  Coefficient  Atom+Function  
  ----- ------------  ---------------      ----- ------------  ---------------
    29      1.006180  1 Li dzz               88      1.006345  5 Li dzz        
   117      1.006244  6 Li dzz              146      1.006290  7 Li dzz        
    27     -0.765012  1 Li dyy               86     -0.765069  5 Li dyy        
   115     -0.765133  6 Li dyy              144     -0.765080  7 Li dyy        
     9      0.362542  1 Li pz                68      0.362675  5 Li pz         
 
 Vector   74  Occ=0.000000D+00  E= 4.048350D-01
              MO Center= -6.5D-06, -3.5D-05, -7.2D-05, r^2= 9.6D+00
   Bfn.  Coefficient  Atom+Function         Bfn.  Coefficient  Atom+Function  
  ----- ------------  ---------------      ----- ------------  ---------------
    24      1.022516  1 Li dxx               83      1.022629  5 Li dxx        
   112      1.022738  6 Li dxx              141      1.022848  7 Li dxx        
    27     -0.720106  1 Li dyy               86     -0.720119  5 Li dyy        
   115     -0.720329  6 Li dyy              144     -0.720321  7 Li dyy        
     7      0.368572  1 Li px                66     -0.368909  5 Li px         
 
 Vector   75  Occ=0.000000D+00  E= 4.106412D-01
              MO Center= -1.5D-01, -1.7D-01, -2.0D-01, r^2= 1.1D+01
   Bfn.  Coefficient  Atom+Function         Bfn.  Coefficient  Atom+Function  
  ----- ------------  ---------------      ----- ------------  ---------------
    10     14.827442  1 Li s                  6      7.107812  1 Li s          
    69     -6.530774  5 Li s                 14     -5.385408  1 Li s          
    98     -4.723329  6 Li s                150     -4.259341  8 H  s          
     7      3.943829  1 Li px                 8      3.866271  1 Li py         
     9      3.746618  1 Li pz               127     -3.572555  7 Li s          
 
 Vector   76  Occ=0.000000D+00  E= 4.106433D-01
              MO Center=  2.4D-01,  5.1D-02, -3.4D-02, r^2= 1.1D+01
   Bfn.  Coefficient  Atom+Function         Bfn.  Coefficient  Atom+Function  
  ----- ------------  ---------------      ----- ------------  ---------------
    69     12.874605  5 Li s                 98    -10.889715  6 Li s          
    65      6.171668  5 Li s                 94     -5.220255  6 Li s          
    73     -4.683552  5 Li s                102      3.961619  6 Li s          
    33     -3.698101  2 H  s                 68      3.713552  5 Li pz         
    67     -3.407219  5 Li py               127     -3.373629  7 Li s          
 
 Vector   77  Occ=0.000000D+00  E= 4.106442D-01
              MO Center= -9.3D-02,  1.2D-01,  2.4D-01, r^2= 1.1D+01
   Bfn.  Coefficient  Atom+Function         Bfn.  Coefficient  Atom+Function  
  ----- ------------  ---------------      ----- ------------  ---------------
   127     14.110897  7 Li s                 98     -9.074571  6 Li s          
   123      6.764057  7 Li s                131     -5.133524  7 Li s          
    94     -4.349885  6 Li s                 53     -4.053006  4 H  s          
   124      3.892982  7 Li px                69     -3.849940  5 Li s          
   125     -3.722517  7 Li py               126     -3.383048  7 Li pz         
 
 Vector   78  Occ=0.000000D+00  E= 4.399842D-01
              MO Center=  2.5D-01, -3.2D-01, -6.4D-01, r^2= 1.1D+01
   Bfn.  Coefficient  Atom+Function         Bfn.  Coefficient  Atom+Function  
  ----- ------------  ---------------      ----- ------------  ---------------
   131     19.108975  7 Li s                102    -12.253895  6 Li s          
    52      9.773722  4 H  s                 42     -6.267729  3 H  s          
   127      5.818588  7 Li s                 73     -5.280471  5 Li s          
    98     -3.731575  6 Li s                  7     -2.931220  1 Li px         
    32     -2.700951  2 H  s                 67      2.692309  5 Li py         
 
 Vector   79  Occ=0.000000D+00  E= 4.399853D-01
              MO Center= -6.6D-01, -1.4D-01,  9.4D-02, r^2= 1.1D+01
   Bfn.  Coefficient  Atom+Function         Bfn.  Coefficient  Atom+Function  
  ----- ------------  ---------------      ----- ------------  ---------------
    73     17.472567  5 Li s                102    -14.739699  6 Li s          
    32      8.937035  2 H  s                 42     -7.539165  3 H  s          
    69      5.323057  5 Li s                 98     -4.490426  6 Li s          
   131     -4.479902  7 Li s                  9     -2.885783  1 Li pz         
   126     -2.628719  7 Li pz               125      2.484393  7 Li py         
 
 Vector   80  Occ=0.000000D+00  E= 4.399880D-01
              MO Center=  4.1D-01,  4.6D-01,  5.5D-01, r^2= 1.1D+01
   Bfn.  Coefficient  Atom+Function         Bfn.  Coefficient  Atom+Function  
  ----- ------------  ---------------      ----- ------------  ---------------
    14     20.097587  1 Li s                149     10.277670  8 H  s          
    73     -8.723493  5 Li s                102     -6.469716  6 Li s          
    10      6.127573  1 Li s                131     -4.904387  7 Li s          
    32     -4.461451  2 H  s                 42     -3.308298  3 H  s          
   124     -2.872897  7 Li px                96     -2.771755  6 Li py         
 
 Vector   81  Occ=0.000000D+00  E= 4.835609D-01
              MO Center= -8.1D-06, -2.5D-06,  2.1D-06, r^2= 1.2D+01
   Bfn.  Coefficient  Atom+Function         Bfn.  Coefficient  Atom+Function  
  ----- ------------  ---------------      ----- ------------  ---------------
     6      2.704707  1 Li s                 65      2.704653  5 Li s          
    94      2.704665  6 Li s                123      2.704680  7 Li s          
    24     -1.414185  1 Li dxx               27     -1.414188  1 Li dyy        
    29     -1.414190  1 Li dzz               83     -1.414194  5 Li dxx        
    86     -1.414191  5 Li dyy               88     -1.414189  5 Li dzz        
 
 Vector   82  Occ=0.000000D+00  E= 5.180573D-01
              MO Center=  7.9D-03,  9.4D-03,  1.2D-02, r^2= 8.7D+00
   Bfn.  Coefficient  Atom+Function         Bfn.  Coefficient  Atom+Function  
  ----- ------------  ---------------      ----- ------------  ---------------
    14     12.051090  1 Li s                 73     -5.807362  5 Li s          
   102     -3.685674  6 Li s                  6     -3.468623  1 Li s          
   149      2.668252  8 H  s                131     -2.558051  7 Li s          
   150     -1.796947  8 H  s                124     -1.726386  7 Li px         
    65      1.671631  5 Li s                 96     -1.582308  6 Li py         
 

 center of mass
 --------------
 x =   0.00000001 y =   0.00000001 z =   0.00000001

 moments of inertia (a.u.)
 ------------------
         177.156912183117           0.000005814131           0.000003581878
           0.000005814131         177.156910468633           0.000001253392
           0.000003581878           0.000001253392         177.156909761350
 
     Multipole analysis of the density
     ---------------------------------
 
     L   x y z        total         alpha         beta         nuclear
     -   - - -        -----         -----         ----         -------
     0   0 0 0     -0.000000     -8.000000     -8.000000     16.000000
 
     1   1 0 0      0.000000      0.000000      0.000000     -0.000000
     1   0 1 0      0.000000      0.000000      0.000000     -0.000000
     1   0 0 1     -0.000000     -0.000000     -0.000000      0.000000
 
     2   2 0 0    -13.201413    -29.154525    -29.154525     45.107637
     2   1 1 0      0.000000      0.000001      0.000001     -0.000002
     2   1 0 1      0.000000      0.000001      0.000001     -0.000001
     2   0 2 0    -13.201413    -29.154525    -29.154525     45.107638
     2   0 1 1     -0.000000      0.000000      0.000000     -0.000000
     2   0 0 2    -13.201413    -29.154526    -29.154526     45.107639
 
 
 
                            NWChem DFT Gradient Module
                            --------------------------
 
 

  charge          =   0.00
  wavefunction    = closed shell



                         DFT ENERGY GRADIENTS

    atom               coordinates                        gradient
                 x          y          z           x          y          z
   1 li     -1.643140  -1.643141  -1.643141    0.003175   0.003175   0.003175
   2 h      -1.782464  -1.782464   1.782463    0.003621   0.003621  -0.003621
   3 h      -1.782464   1.782463  -1.782464    0.003621  -0.003621   0.003621
   4 h       1.782463  -1.782464  -1.782464   -0.003621   0.003621   0.003621
   5 li      1.643141   1.643141  -1.643141   -0.003175  -0.003175   0.003175
   6 li      1.643141  -1.643141   1.643141   -0.003175   0.003175  -0.003175
   7 li     -1.643141   1.643141   1.643141    0.003175  -0.003175  -0.003175
   8 h       1.782463   1.782463   1.782463   -0.003621  -0.003621  -0.003621
 
                 ----------------------------------------
                 |  Time  |  1-e(secs)   |  2-e(secs)   |
                 ----------------------------------------
                 |  CPU   |       0.01   |       6.63   |
                 ----------------------------------------
                 |  WALL  |       0.01   |       6.64   |
                 ----------------------------------------

@ Step       Energy      Delta E   Gmax     Grms     Xrms     Xmax   Walltime
@ ---- ---------------- -------- -------- -------- -------- -------- --------
@    0     -32.47678724  0.0D+00  0.00362  0.00341  0.00000  0.00000     30.7
                                                                    

 
                                 NWChem DFT Module
                                 -----------------
 
 


 Summary of "ao basis" -> "ao basis" (cartesian)
 ------------------------------------------------------------------------------
       Tag                 Description            Shells   Functions and Types
 ---------------- ------------------------------  ------  ---------------------
 li                     6-311++G(2d,2p)             11       29   5s4p2d
 h                      6-311++G(2d,2p)              6       10   4s2p


  Caching 1-el integrals 
 
            General Information
            -------------------
          SCF calculation type: DFT
          Wavefunction type:  closed shell.
          No. of atoms     :     8
          No. of electrons :    16
           Alpha electrons :     8
            Beta electrons :     8
          Charge           :     0
          Spin multiplicity:     1
          Use of symmetry is: off; symmetry adaption is: off
          Maximum number of iterations: ***
          This is a Direct SCF calculation.
          AO basis - number of functions:   156
                     number of shells:    68
          Convergence on energy requested: 1.00D-06
          Convergence on density requested: 1.00D-05
          Convergence on gradient requested: 5.00D-04
 
              XC Information
              --------------
                  PKZB metaGGA Exchange Functional  1.000          
             PKZB99 metaGGA Correlation Functional  1.000          
 
             Grid Information
             ----------------
          Grid used for XC integration:  medium    
          Radial quadrature: Mura-Knowles        
          Angular quadrature: Lebedev. 
          Tag              B.-S. Rad. Rad. Pts. Rad. Cut. Ang. Pts.
          ---              ---------- --------- --------- ---------
          li                  1.45       49          22.0       434
          h                   0.35       45          17.0       434
          Grid pruning is: on 
          Number of quadrature shells:   376
          Spatial weights used:  Erf1
 
          Convergence Information
          -----------------------
          Convergence aids based upon iterative change in 
          total energy or number of iterations. 
          Levelshifting, if invoked, occurs when the 
          HOMO/LUMO gap drops below (HL_TOL): 1.00D-02
          DIIS, if invoked, will attempt to extrapolate 
          using up to (NFOCK): 10 stored Fock matrices.

                    Damping( 0%)  Levelshifting(0.5)       DIIS
                  --------------- ------------------- ---------------
          dE  on:    start            ASAP                start   
          dE off:    2 iters        *** iters           *** iters 

 
      Screening Tolerance Information
      -------------------------------
          Density screening/tol_rho: 1.00D-10
          AO Gaussian exp screening on grid/accAOfunc:  14
          CD Gaussian exp screening on grid/accCDfunc:  20
          XC Gaussian exp screening on grid/accXCfunc:  20
          Schwarz screening/accCoul: 1.00D-08


 Loading old vectors from job with title :



   Time after variat. SCF:     29.7
   Time prior to 1st pass:     29.7

 Grid_pts file          = /home/d3y133/nwchem-dev/nwchem-trunk-nonwad/QA/scratchdir/metagga_dat.gridpts.0
 Record size in doubles =  12289        No. of grid_pts per rec  =   3070
 Max. records in memory =     16        Max. recs in file   = 253312716

 Grid integrated density:      16.000124807768
 Requested integration accuracy:   0.10E-05

           Memory utilization after 1st SCF pass: 
           Heap Space remaining (MW):       12.88            12882468
          Stack Space remaining (MW):       13.11            13106180

   convergence    iter        energy       DeltaE   RMS-Dens  Diis-err    time
 ---------------- ----- ----------------- --------- --------- ---------  ------
[...]


              11           12           13           14           15           16           17           18           19           20
   ----- ----- ----- ----- -----
   11    2.64129D+01
   12    2.82319D+00  2.64129D+01
   13    7.81516D-01 -2.44820D-01  4.84098D+00
   14   -5.55551D+00  2.92935D-01  6.14723D-01  4.84098D+00
   15   -7.78739D-01 -2.20448D+00 -6.16440D-01 -6.16680D-01  4.83647D+00
   16   -2.45078D-01  7.81721D-01  3.73139D-01 -1.01793D-01  1.00246D-01  4.84054D+00
   17   -2.20428D+00 -7.78882D-01  1.00905D-01 -6.70605D-01  1.03212D+00 -6.16510D-01  4.83654D+00
   18    2.92833D-01 -5.55535D+00 -1.02480D-01  1.03476D+00 -6.70596D-01  6.14795D-01 -6.16782D-01  4.84109D+00
   19   -3.88008D-01 -3.88260D-01 -6.70660D-01  1.00954D-01  1.03213D+00 -6.70774D-01  1.03213D+00  1.00961D-01  4.83663D+00
   20   -2.57539D-01  3.81221D-01 -1.01745D-01  3.73076D-01  1.00248D-01  1.03510D+00 -6.70775D-01 -1.02589D-01 -6.16613D-01  4.84066D+00
   21    3.81249D-01 -2.57476D-01  1.03493D+00 -1.02655D-01 -6.70709D-01 -1.01913D-01  1.00313D-01  3.73014D-01 -6.16846D-01  6.14864D-01
   22    1.02300D+00  1.02233D+00 -2.20114D+00  2.46471D-01  3.35742D-01 -2.20149D+00  3.35748D-01  2.46487D-01 -5.52073D+00 -7.74338D-01
   23   -1.42082D+00 -3.21834D+00  2.46475D-01 -2.20113D+00  3.35443D-01 -7.74169D-01 -5.52089D+00 -7.74705D-01  3.35586D-01 -2.20135D+00
   24   -3.21877D+00 -1.42063D+00 -7.73936D-01 -7.74536D-01 -5.52103D+00  2.46609D-01  3.35330D-01 -2.20101D+00  3.35314D-01  2.46650D-01


              21           22           23           24
   ----- ----- ----- ----- -----
   21    4.84065D+00
   22   -7.74927D-01  2.63391D+01
   23    2.46614D-01  2.77243D+00  2.63391D+01
   24   -2.20132D+00  2.77170D+00  2.77102D+00  2.63391D+01

 center of mass
 --------------
 x =   0.00000013 y =   0.00000012 z =   0.00000010

 moments of inertia (a.u.)
 ------------------
         188.241976442809          -0.000007510084          -0.000009189168
          -0.000007510084         188.241980031084          -0.000010765070
          -0.000009189168          -0.000010765070         188.241983116986

 Rotational Constants
 --------------------
 A=   0.319802 cm-1  (  0.460114 K)
 B=   0.319802 cm-1  (  0.460114 K)
 C=   0.319802 cm-1  (  0.460114 K)


 Temperature                      =   298.15K
 frequency scaling parameter      =   1.0000

 Zero-Point correction to Energy  =   18.060 kcal/mol  (  0.028781 au)
 Thermal correction to Energy     =   21.559 kcal/mol  (  0.034357 au)
 Thermal correction to Enthalpy   =   22.152 kcal/mol  (  0.035301 au)

 Total Entropy                    =   67.952 cal/mol-K
   - Translational                =   36.314 cal/mol-K (mol. weight =  32.0953)
   - Rotational                   =   23.405 cal/mol-K (symmetry #  =        1)
   - Vibrational                  =    8.232 cal/mol-K

 Cv (constant volume heat capacity) =   21.797 cal/mol-K
   - Translational                  =    2.979 cal/mol-K
   - Rotational                     =    2.979 cal/mol-K
   - Vibrational                    =   15.838 cal/mol-K



          -------------------------------------------------
          NORMAL MODE EIGENVECTORS IN CARTESIAN COORDINATES
          -------------------------------------------------
             (Projected Frequencies expressed in cm-1)

                    1           2           3           4           5           6
 
 P.Frequency       -0.00       -0.00       -0.00        0.00        0.00        0.00
 
           1    -0.03136    -0.01334    -0.03734     0.05803    -0.05897     0.22818
           2    -0.01898     0.20922    -0.01714    -0.08723     0.09632    -0.01252
           3     0.07214    -0.01504     0.21386     0.09115     0.00437    -0.04444
           4    -0.03841    -0.01103     0.00882     0.23246     0.06624     0.09006
           5     0.19690     0.16409     0.02802    -0.02451    -0.01526    -0.02990
           6     0.08262    -0.01719     0.21844     0.10304     0.00505    -0.05224
           7     0.10642     0.01775    -0.02951    -0.10468     0.08168     0.19511
           8    -0.02255     0.21313    -0.01887    -0.09851     0.10967    -0.01376
           9    -0.13683     0.03184     0.17155     0.02904     0.12998    -0.03610
          10    -0.03827    -0.01511    -0.04019     0.05741    -0.07301     0.23722
          11    -0.16724     0.18027    -0.02955     0.06359    -0.04501     0.02835
          12     0.08276    -0.02126     0.16943    -0.07200    -0.13419     0.09492
          13     0.09950     0.01638    -0.02768    -0.08858     0.08094     0.19009
          14    -0.14984     0.17949    -0.02680     0.05938    -0.04359     0.02557
          15    -0.12622     0.02562     0.12713    -0.13410    -0.00858     0.10326
          16    -0.03149    -0.00966     0.00699     0.21635     0.06698     0.09508
          17     0.04864     0.13515     0.01561     0.12631    -0.15659     0.01097
          18     0.07227    -0.01873     0.16953    -0.06717    -0.12157     0.08866
          19     0.09937     0.02006     0.01665     0.06974     0.20688     0.05699
          20     0.17951     0.16487     0.02527    -0.02030    -0.01668    -0.02711
          21    -0.12634     0.02931     0.17145     0.02422     0.11736    -0.02985
          22     0.10628     0.02183     0.01950     0.07036     0.22093     0.04795
          23     0.05222     0.13123     0.01734     0.13759    -0.16994     0.01221
          24    -0.13669     0.02777     0.12254    -0.14600    -0.00926     0.11106

                    7           8           9          10          11          12
 
 P.Frequency      356.72      356.72      379.86      379.93      380.79      498.57
 
           1     0.15065     0.01971    -0.02479    -0.09898    -0.15665    -0.10862
           2    -0.09239     0.12059    -0.07210     0.07713    -0.15430    -0.10863
           3    -0.05824    -0.14027     0.10416     0.02998    -0.15237    -0.10863
           4    -0.04429    -0.00756    -0.08759    -0.00378     0.01710    -0.00954
           5     0.02591    -0.03672    -0.07757    -0.04104     0.01662    -0.00957
           6    -0.01626    -0.03916     0.07429     0.02056    -0.04730     0.00943
           7    -0.04477    -0.00409     0.07379    -0.04688     0.01884    -0.00958
           8    -0.02578     0.03367    -0.05300     0.05461    -0.04870     0.00943
           9     0.01558     0.04214     0.04625    -0.07417     0.01799    -0.00957
          10     0.04205     0.00550    -0.01886    -0.07248    -0.05040     0.00942
          11     0.02870    -0.03459     0.04053     0.07695     0.02049    -0.00957
          12     0.01886     0.04080     0.00287     0.08701     0.02009    -0.00961
          13    -0.15210    -0.01738     0.18091    -0.04232    -0.00037     0.10889
          14     0.09504    -0.12004     0.13536     0.12723     0.00190     0.10888
          15    -0.05932    -0.14287    -0.10734    -0.03083     0.14656    -0.10926
          16    -0.15153    -0.02233    -0.17777     0.05365    -0.00433     0.10890
          17    -0.09403     0.12279     0.07459    -0.07950     0.14859    -0.10927
          18     0.06093     0.14044    -0.05378     0.17784    -0.00017     0.10889
          19     0.15333     0.02005     0.02571     0.10247     0.15102    -0.10928
          20     0.09117    -0.12305    -0.12699    -0.13539    -0.00686     0.10891
          21     0.05649     0.14237     0.04252    -0.18073    -0.00497     0.10890
          22     0.04456     0.00582     0.00437     0.01999     0.08638     0.01050
          23    -0.02734     0.03566     0.01439    -0.01724     0.08589     0.01046
          24    -0.01723    -0.04150    -0.02283    -0.00730     0.08549     0.01043

                   13          14          15          16          17          18
 
 P.Frequency      679.96      679.96      679.98      875.10      875.11      901.27
 
           1    -0.06416    -0.03542     0.00086     0.01584    -0.00491    -0.01092
           2     0.06275    -0.03785    -0.00009    -0.00327     0.01654    -0.01763
           3     0.00140     0.07324    -0.00080    -0.01258    -0.01162    -0.02160
           4     0.12543    -0.23381    -0.37339     0.38425    -0.12008     0.20771
           5    -0.13404    -0.22065     0.37844    -0.08954     0.39265     0.23594
           6    -0.00876    -0.46085     0.00506     0.29868     0.27606     0.14755
           7    -0.12333     0.23478     0.37313     0.38930    -0.12008     0.21889
           8    -0.39485     0.23830     0.00066     0.08546    -0.39525     0.12007
           9    -0.26569    -0.00034    -0.37347    -0.29172    -0.27431     0.26389
          10     0.40388     0.22301    -0.00536    -0.38393     0.11913     0.07332
          11     0.13180     0.22170    -0.37848    -0.09261     0.39445     0.26533
          12     0.26547    -0.00229     0.37326    -0.29982    -0.27251     0.28236
          13     0.01952    -0.03720    -0.05928    -0.01637     0.00501    -0.03212
          14    -0.02088    -0.03512     0.06010     0.00411    -0.01635    -0.03889
          15    -0.00139    -0.07315     0.00080    -0.01238    -0.01146    -0.05745
          16    -0.01988     0.03702     0.05930    -0.01591     0.00501    -0.03047
          17    -0.06266     0.03780     0.00007    -0.00362     0.01641    -0.05504
          18    -0.04206     0.00036    -0.05928     0.01255     0.01117    -0.04131
          19     0.06406     0.03537    -0.00085     0.01602    -0.00498    -0.05096
          20     0.02123     0.03493    -0.06011     0.00383    -0.01619    -0.03453
          21     0.04208     0.00005     0.05930     0.01180     0.01133    -0.03856
          22    -0.40282    -0.22239     0.00539    -0.38667     0.12008     0.36660
          23     0.39399    -0.23763    -0.00043     0.08941    -0.39469     0.39567
          24     0.00878     0.45996    -0.00501     0.29707     0.27482     0.41249

                   19          20          21          22          23          24
 
 P.Frequency      901.79      901.96      918.67      919.18      919.80     1034.13
 
           1    -0.06280    -0.01774    -0.00495    -0.01000    -0.03262     0.00419
           2     0.04449    -0.04578    -0.00663    -0.00448    -0.03332     0.00414
           3     0.01474     0.06092    -0.00013    -0.00607    -0.03351     0.00410
           4     0.31801     0.26406    -0.39848     0.27711     0.08851    -0.29092
           5    -0.12699     0.37990    -0.23568    -0.37984     0.20376    -0.29054
           6    -0.10438    -0.42501     0.18817     0.12575     0.43768     0.28280
           7     0.40350    -0.04441     0.48874    -0.00134     0.04084    -0.29180
           8    -0.31140     0.31832    -0.04059     0.20030     0.45093     0.28271
           9     0.08251    -0.37273    -0.00279    -0.45565     0.19022    -0.29043
          10     0.43804     0.12226     0.01597    -0.03978     0.49560     0.28259
          11    -0.34447     0.15126     0.43301     0.23557    -0.00305    -0.29164
          12    -0.21991    -0.29341    -0.22069     0.43743     0.03083    -0.29119
          13    -0.05846     0.00642    -0.03125    -0.01164    -0.00821    -0.00309
          14     0.04988    -0.02190    -0.03269    -0.00713    -0.00873    -0.00314
          15     0.00537     0.03360     0.03261     0.00808     0.00103     0.00430
          16    -0.04611    -0.03788     0.01809    -0.02725    -0.01090    -0.00316
          17     0.02318    -0.03006    -0.02205     0.02481     0.00381     0.00432
          18     0.03201     0.04199     0.02190    -0.02384    -0.01151    -0.00317
          19    -0.04135    -0.01324    -0.00854    -0.02927     0.01319     0.00435
          20     0.01811    -0.05462     0.00449     0.02718    -0.02035    -0.00318
          21    -0.01202     0.05349     0.00984     0.02595    -0.02047    -0.00323
          22     0.29351     0.09272     0.07933     0.30808    -0.35669     0.28419
          23    -0.16158     0.21121     0.23920    -0.33716    -0.24376     0.28453
          24    -0.03742    -0.23158    -0.41178    -0.13621    -0.20997     0.28495



 ----------------------------------------------------------------------------
 Normal Eigenvalue ||    Projected Derivative Dipole Moments (debye/angs)
  Mode   [cm**-1]  ||      [d/dqX]             [d/dqY]           [d/dqZ]
 ------ ---------- || ------------------ ------------------ -----------------
    1       -0.000 ||      -0.013              -0.006             0.011
    2       -0.000 ||      -0.001              -0.068            -0.002
    3       -0.000 ||       0.004               0.000            -0.068
    4        0.000 ||      -0.025              -0.008             0.009
    5        0.000 ||      -0.029               0.012             0.001
    6        0.000 ||      -0.057               0.000            -0.012
    7      356.722 ||       0.013              -0.008            -0.005
    8      356.724 ||       0.002               0.011            -0.012
    9      379.864 ||       0.185               0.494            -0.656
   10      379.926 ||       0.673              -0.478            -0.170
   11      380.793 ||      -0.469              -0.485            -0.497
   12      498.566 ||      -0.003              -0.003            -0.002
   13      679.961 ||      -0.012               0.012             0.001
   14      679.962 ||      -0.006              -0.006             0.013
   15      679.976 ||       0.001              -0.001             0.001
   16      875.104 ||      -0.013               0.027            -0.014
   17      875.114 ||       0.004               0.009            -0.014
   18      901.268 ||      -2.885              -3.383            -3.679
   19      901.789 ||      -4.817               3.128             0.922
   20      901.963 ||       1.444               3.520            -4.386
   21      918.669 ||      -0.414              -0.885             0.988
   22      919.181 ||      -1.203               0.607             0.058
   23      919.800 ||      -0.631              -0.929            -1.016
   24     1034.131 ||       0.050               0.047             0.044
 ----------------------------------------------------------------------------



  
  
 ----------------------------------------------------------------------------
 Normal Eigenvalue ||           Projected Infra Red Intensities
  Mode   [cm**-1]  || [atomic units] [(debye/angs)**2] [(KM/mol)] [arbitrary]
 ------ ---------- || -------------- ----------------- ---------- -----------
    1       -0.000 ||    0.000014           0.000         0.014       0.001
    2       -0.000 ||    0.000202           0.005         0.197       0.010
    3       -0.000 ||    0.000199           0.005         0.194       0.010
    4        0.000 ||    0.000034           0.001         0.033       0.002
    5        0.000 ||    0.000043           0.001         0.042       0.002
    6        0.000 ||    0.000144           0.003         0.141       0.007
    7      356.722 ||    0.000012           0.000         0.011       0.001
    8      356.724 ||    0.000012           0.000         0.011       0.001
    9      379.864 ||    0.030711           0.709        29.939       1.559
   10      379.926 ||    0.030749           0.709        29.975       1.561
   11      380.793 ||    0.030459           0.703        29.693       1.547
   12      498.566 ||    0.000001           0.000         0.001       0.000
   13      679.961 ||    0.000012           0.000         0.012       0.001
   14      679.962 ||    0.000011           0.000         0.011       0.001
   15      679.976 ||    0.000000           0.000         0.000       0.000
   16      875.104 ||    0.000048           0.001         0.047       0.002
   17      875.114 ||    0.000012           0.000         0.012       0.001
   18      901.268 ||    1.443771          33.309      1407.460      73.309
   19      901.789 ||    1.466794          33.840      1429.903      74.478
   20      901.963 ||    1.461193          33.711      1424.443      74.193
   21      918.669 ||    0.083695           1.931        81.590       4.250
   22      919.181 ||    0.078869           1.820        76.885       4.005
   23      919.800 ||    0.099398           2.293        96.898       5.047
   24     1034.131 ||    0.000285           0.007         0.278       0.014
 ----------------------------------------------------------------------------



 vib:animation  F

 Task  times  cpu:      824.6s     wall:      825.9s
 
 
                                NWChem Input Module
                                -------------------
 
 
 Summary of allocated global arrays
-----------------------------------
  No active global arrays



                         GA Statistics for process    0
                         ------------------------------

       create   destroy   get      put      acc     scatter   gather  read&inc
calls: 5120     5120     1.21e+06 5.74e+04 2.32e+05    0        0     3.86e+04 
number of processes/call 1.10e+00 1.65e+00 1.02e+00 0.00e+00 0.00e+00
bytes total:             5.12e+09 2.39e+08 1.13e+09 0.00e+00 0.00e+00 3.09e+05
bytes remote:            3.41e+09 7.81e+07 7.54e+08 0.00e+00 0.00e+00 0.00e+00
Max memory consumed for GA by this process: 2387456 bytes
 
MA_summarize_allocated_blocks: starting scan ...
MA_summarize_allocated_blocks: scan completed: 0 heap blocks, 0 stack blocks
MA usage statistics:

	allocation statistics:
					      heap	     stack
					      ----	     -----
	current number of blocks	         0	         0
	maximum number of blocks	        24	        54
	current total bytes		         0	         0
	maximum total bytes		   1797624	  33547048
	maximum total K-bytes		      1798	     33548
	maximum total M-bytes		         2	        34
 
 
                                     CITATION
                                     --------
                Please cite the following reference when publishing
                           results obtained with NWChem:
 
                 M. Valiev, E.J. Bylaska, N. Govind, K. Kowalski,
              T.P. Straatsma, H.J.J. van Dam, D. Wang, J. Nieplocha,
                        E. Apra, T.L. Windus, W.A. de Jong
                 "NWChem: a comprehensive and scalable open-source
                  solution for large scale molecular simulations"
                      Comput. Phys. Commun. 181, 1477 (2010)
                           doi:10.1016/j.cpc.2010.04.018
 
                                      AUTHORS
                                      -------
          E. Apra, E. J. Bylaska, W. A. de Jong, N. Govind, K. Kowalski,
       T. P. Straatsma, M. Valiev, H. J. J. van Dam, D. Wang, T. L. Windus,
        J. Hammond, J. Autschbach, K. Bhaskaran-Nair, J. Brabec, K. Lopata,
        S. Krishnamoorthy, W. Ma, M. Klemm, O. Villa, Y. Chen, V. Anisimov,
    F. Aquino, S. Hirata, M. T. Hackler, T. Risthaus, M. Malagoli, A. Marenich,
   A. Otero-de-la-Roza, J. Mullin, P. Nichols, R. Peverati, J. Pittner, Y. Zhao,
         P.-D. Fan, A. Fonari, R. J. Harrison, M. Dupuis, D. Silverstein,
    D. M. A. Smith, J. Nieplocha, V. Tipparaju, M. Krishnan, B. E. Van Kuiken,
        A. Vazquez-Mayagoitia, L. Jensen, M. Swart, Q. Wu, T. Van Voorhis,
     A. A. Auer, M. Nooijen, L. D. Crosby, E. Brown, G. Cisneros, G. I. Fann,
   H. Fruchtl, J. Garza, K. Hirao, R. A. Kendall, J. A. Nichols, K. Tsemekhman,
    K. Wolinski, J. Anchell, D. E. Bernholdt, P. Borowski, T. Clark, D. Clerc,
   H. Dachsel, M. J. O. Deegan, K. Dyall, D. Elwood, E. Glendening, M. Gutowski,
   A. C. Hess, J. Jaffe, B. G. Johnson, J. Ju, R. Kobayashi, R. Kutteh, Z. Lin,
   R. Littlefield, X. Long, B. Meng, T. Nakajima, S. Niu, L. Pollack, M. Rosing,
   K. Glaesemann, G. Sandrone, M. Stave, H. Taylor, G. Thomas, J. H. van Lenthe,
                               A. T. Wong, Z. Zhang.

 Total times  cpu:      998.4s     wall:     1001.1s
