 argument  1 = ../pspw_stress.nw



============================== echo of input deck ==============================
echo
title "testing unit cell optimization"

start SiC.stress

#**** Enter the geometry using fractional coordinates ****
geometry units au center noautosym noautoz print
  system crystal
    lat_a 8.277d0
    lat_b 8.277d0
    lat_c 8.277d0
    alpha 90.0d0
    beta  90.0d0
    gamma 90.0d0
  end
Si    -0.50000d0  -0.50000d0  -0.50000d0
Si     0.00000d0   0.00000d0  -0.50000d0
Si     0.00000d0  -0.50000d0   0.00000d0
Si    -0.50000d0   0.00000d0   0.00000d0
C     -0.25000d0  -0.25000d0  -0.25000d0
C      0.25000d0   0.25000d0  -0.25000d0
C      0.25000d0  -0.25000d0   0.25000d0
C     -0.25000d0   0.25000d0   0.25000d0
end

#***** setup the nwpw gamma point code ****
nwpw
   simulation_cell
     ngrid 16 16 16
   end
   ewald_ncut 8
   mulliken
   lcao #old default
end
set nwpw:lcao_iterations 20
set nwpw:minimizer 2
#set nwpw:lmbfgs_size 1
#set nwpw:precondition .false.
#set nwpw:lcao_skip .true.

task pspw energy

nwpw
  tolerances 1.0d-9 1.0d-9
end
driver
   clear
end
set includestress .true.          # tell driver to optimize unit cell
task pspw optimize

================================================================================


                                         
                                         


             Northwest Computational Chemistry Package (NWChem) 6.1.1
             --------------------------------------------------------


                    Environmental Molecular Sciences Laboratory
                       Pacific Northwest National Laboratory
                                Richland, WA 99352

                              Copyright (c) 1994-2012
                       Pacific Northwest National Laboratory
                            Battelle Memorial Institute

             NWChem is an open-source computational chemistry package
                        distributed under the terms of the
                      Educational Community License (ECL) 2.0
             A copy of the license is included with this distribution
                              in the LICENSE.TXT file

                                  ACKNOWLEDGMENT
                                  --------------

            This software and its documentation were developed at the
            EMSL at Pacific Northwest National Laboratory, a multiprogram
            national laboratory, operated for the U.S. Department of Energy
            by Battelle under Contract Number DE-AC05-76RL01830. Support
            for this work was provided by the Department of Energy Office
            of Biological and Environmental Research, Office of Basic
            Energy Sciences, and the Office of Advanced Scientific Computing.


           Job information
           ---------------

    hostname        = WE24397
    program         = nwchem
    date            = Fri May 17 10:59:07 2013

    compiled        = Thu_May_16_16:03:06_2013
    source          = /Users/bylaska/nwchem-releases/nwchem
    nwchem branch   = Development
    nwchem revision = 24142
    ga revision     = 10354
    input           = ../pspw_stress.nw
    prefix          = SiC.stress.
    data base       = ./SiC.stress.db
    status          = startup
    nproc           =        1
    time left       =     -1s



           Memory information
           ------------------

    heap     =   13107201 doubles =    100.0 Mbytes
    stack    =   13107201 doubles =    100.0 Mbytes
    global   =   26214400 doubles =    200.0 Mbytes (distinct from heap & stack)
    total    =   52428802 doubles =    400.0 Mbytes
    verify   = yes
    hardfail = no 


           Directory information
           ---------------------

  0 permanent = .
  0 scratch   = .




                                NWChem Input Module
                                -------------------


                          testing unit cell optimization
                          ------------------------------

  !!!!!!!!!  geom_3d NEEDS TESTING !!!!!!!!!! 


                             Geometry "geometry" -> ""
                             -------------------------

 Output coordinates in a.u. (scale by  1.000000000 to convert to a.u.)

  No.       Tag          Charge          X              Y              Z
 ---- ---------------- ---------- -------------- -------------- --------------
    1 Si                  14.0000     4.13850000     4.13850000     4.13850000
    2 Si                  14.0000     0.00000000     0.00000000     4.13850000
    3 Si                  14.0000     0.00000000     4.13850000     0.00000000
    4 Si                  14.0000     4.13850000     0.00000000     0.00000000
    5 C                    6.0000     6.20775000     6.20775000     6.20775000
    6 C                    6.0000     2.06925000     2.06925000     6.20775000
    7 C                    6.0000     2.06925000     6.20775000     2.06925000
    8 C                    6.0000     6.20775000     2.06925000     2.06925000

      Lattice Parameters 
      ------------------ 

      lattice vectors in a.u. (scale by  1.000000000 to convert to a.u.)

      a1=<   8.277   0.000   0.000 >
      a2=<   0.000   8.277   0.000 >
      a3=<   0.000   0.000   8.277 >
      a=       8.277 b=      8.277 c=       8.277
      alpha=  90.000 beta=  90.000 gamma=  90.000
      omega=   567.0

      reciprocal lattice vectors in a.u.

      b1=<   0.759   0.000  -0.000 >
      b2=<  -0.000   0.759  -0.000 >
      b3=<   0.000   0.000   0.759 >

      Atomic Mass 
      ----------- 

      Si                27.976930
      C                 12.000000


 ==============================================================================
                                internuclear distances
 ------------------------------------------------------------------------------
       center one      |      center two      | atomic units |       a.u.
 ------------------------------------------------------------------------------
    5 C                |   1 Si               |     3.58405  |     3.58405
    6 C                |   1 Si               |     3.58405  |     3.58405
    6 C                |   2 Si               |     3.58405  |     3.58405
    7 C                |   1 Si               |     3.58405  |     3.58405
    7 C                |   3 Si               |     3.58405  |     3.58405
    8 C                |   1 Si               |     3.58405  |     3.58405
    8 C                |   4 Si               |     3.58405  |     3.58405
 ------------------------------------------------------------------------------
                         number of included internuclear distances:          7
 ==============================================================================



 ==============================================================================
                                 internuclear angles
 ------------------------------------------------------------------------------
        center 1       |       center 2       |       center 3       |  degrees
 ------------------------------------------------------------------------------
    5 C                |   1 Si               |   6 C                |   109.47
    5 C                |   1 Si               |   7 C                |   109.47
    5 C                |   1 Si               |   8 C                |   109.47
    6 C                |   1 Si               |   7 C                |   109.47
    6 C                |   1 Si               |   8 C                |   109.47
    7 C                |   1 Si               |   8 C                |   109.47
    1 Si               |   6 C                |   2 Si               |   109.47
    1 Si               |   7 C                |   3 Si               |   109.47
    1 Si               |   8 C                |   4 Si               |   109.47
 ------------------------------------------------------------------------------
                            number of included internuclear angles:          9
 ==============================================================================



          ****************************************************
          *                                                  *
          *               NWPW PSPW Calculation              *
          *                                                  *
          *  [ (Grassman/Stiefel manifold implementation) ]  *
          *                                                  *
          *      [ NorthWest Chemistry implementation ]      *
          *                                                  *
          *            version #5.10   06/12/02              *
          *                                                  *
          *    This code was developed by Eric J. Bylaska,   *
          *    and was based upon algorithms and code        *
          *    developed by the group of Prof. John H. Weare *
          *                                                  *
          ****************************************************
     >>>  JOB STARTED       AT Fri May 17 10:59:07 2013  <<<
          ================ input data ========================
  library name resolved from: compiled reference
  NWCHEM_NWPW_LIBRARY set to: </Users/bylaska/nwchem-releases/nwchem/src/nwpw/libraryps/>
 Generating 1d pseudopotential for Si  

 Generated formatted_filename: ./Si.vpp
  library name resolved from: compiled reference
  NWCHEM_NWPW_LIBRARY set to: </Users/bylaska/nwchem-releases/nwchem/src/nwpw/libraryps/>
 Generating 1d pseudopotential for C   

 Generated formatted_filename: ./C.vpp
  library name resolved from: compiled reference
  NWCHEM_NWPW_LIBRARY set to: </Users/bylaska/nwchem-releases/nwchem/src/nwpw/libraryps/>

 Generated formatted atomic orbitals, filename: ./Si.aorb
  library name resolved from: compiled reference
  NWCHEM_NWPW_LIBRARY set to: </Users/bylaska/nwchem-releases/nwchem/src/nwpw/libraryps/>

 Generated formatted atomic orbitals, filename: ./C.aorb

 lcao guess, initial psi:SiC.stress.movecs                                 
 -   spin, nalpha, nbeta:                    1                   16                    0

 input psi filename:./SiC.stress.movecs

 initializing pspw_APC data structure
 ------------------------------------
 nga, ngs:                    3                   24
 Gc      :   2.5000000000000000     
 APC gamma:                    1  0.59999999999999998     
 APC gamma:                    2  0.90000000000000002     
 APC gamma:                    3   1.3500000000000001     

 number of processors used:         1
 processor grid           :   1 x   1
 parallel mapping         :2d hilbert
 parallel mapping         :  balanced
 parallel io              :       off

 options:
      boundary conditions  = periodic    (version3)
      electron spin        = restricted
      exchange-correlation = LDA (Vosko et al) parameterization

 elements involved in the cluster:
      1: Si  valence charge:  4.0000  lmax=  2
             comment    : Hamann pseudopotential
             pseudpotential type            :   0
             highest angular component      :   2
             local potential used           :   2
             number of non-local projections:   4
             cutoff =   1.059   1.286   1.286

      2: C   valence charge:  4.0000  lmax=  2
             comment    : Parameterized (J.Phys.Chem., vol 100, page 6966) Hamman psp
             pseudpotential type            :   0
             highest angular component      :   2
             local potential used           :   2
             number of non-local projections:   4
             cutoff =   0.800   0.850   0.850


 total charge:   0.000

 atomic composition:
     Si  :    4     C   :    4

 number of electrons: spin up=    16 (  16 per task)  down=    16 (  16 per task) (fourier space)
 number of orbitals : spin up=    16 (  16 per task)  down=    16 (  16 per task) (fourier space)

 supercell:
      cell_name:  cell_default                                      
      lattice:    a1=<   8.277   0.000   0.000 >
                  a2=<   0.000   8.277   0.000 >
                  a3=<   0.000   0.000   8.277 >
      reciprocal: b1=<   0.759   0.000  -0.000 >
                  b2=<  -0.000   0.759  -0.000 >
                  b3=<   0.000   0.000   0.759 >
      lattice:    a=       8.277 b=      8.277 c=       8.277
                  alpha=  90.000 beta=  90.000 gamma=  90.000
                  omega=       567.0

      density cutoff= 18.440  fft= 16x 16x 16(     1052 waves     1052 per task)
      wavefnc cutoff= 18.440  fft= 16x 16x 16(     1052 waves     1052 per task)
      ewald summation: cut radius=    2.63  and  8
                        madelung= 1.76011888

 technical parameters:
      time step=      5.80     ficticious mass=  400000.0
      tolerance=.100E-06 (energy)   0.100E-06 (density)
      maximum iterations =      1000 (   10 inner    100 outer )





== Energy Calculation ==


          ============ Grassmann lmbfgs iteration ============
     >>>  ITERATION STARTED AT Fri May 17 10:59:12 2013  <<<
    iter.           Energy         DeltaE       DeltaRho 
    ------------------------------------------------------
     -  15 steepest descent iterations performed
      10   -0.3835150352E+02   -0.85545E-03    0.12925E-01
      20   -0.3835360239E+02   -0.80707E-05    0.33838E-04
      30   -0.3835361562E+02   -0.15722E-07    0.14723E-06
      40   -0.3835361563E+02   -0.55054E-08    0.24830E-10
  *** tolerance ok. iteration terminated
     >>>  ITERATION ENDED   AT Fri May 17 10:59:13 2013  <<<


==  Summary Of Results  ==

 number of electrons: spin up=   16.00000  down=   16.00000 (real space)

 total     energy    :  -0.3835361563E+02 (   -0.47942E+01/ion)
 total orbital energy:   0.4621733767E+01 (    0.28886E+00/electron)
 hartree   energy    :   0.5074238476E+01 (    0.31714E+00/electron)
 exc-corr  energy    :  -0.1221472379E+02 (   -0.76342E+00/electron)
 ion-ion   energy    :  -0.4165217770E+02 (   -0.52065E+01/ion)

 kinetic (planewave) :   0.2392885539E+02 (    0.14956E+01/electron)
 V_local (planewave) :  -0.1609684823E+02 (   -0.10061E+01/electron)
 V_nl    (planewave) :   0.2607040213E+01 (    0.16294E+00/electron)
 V_Coul  (planewave) :   0.1014847695E+02 (    0.63428E+00/electron)
 V_xc.   (planewave) :  -0.1596579057E+02 (   -0.99786E+00/electron)
 Virial Coefficient  :  -0.8068552093E+00

 orbital energies:
     0.3523749E+00 (   9.589eV)
     0.3523748E+00 (   9.589eV)
     0.3523748E+00 (   9.589eV)
     0.2299281E+00 (   6.257eV)
     0.2299281E+00 (   6.257eV)
     0.2299281E+00 (   6.257eV)
     0.2299277E+00 (   6.257eV)
     0.2299276E+00 (   6.257eV)
     0.2299276E+00 (   6.257eV)
     0.5604761E-01 (   1.525eV)
     0.5604605E-01 (   1.525eV)
     0.5604548E-01 (   1.525eV)
    -0.2570485E-01 (  -0.699eV)
    -0.2570488E-01 (  -0.699eV)
    -0.2570490E-01 (  -0.699eV)
    -0.2168493E+00 (  -5.901eV)

 Total PSPW energy   :  -0.3835361563E+02


=== Spin Contamination ===

 <Sexact^2> =    0.0000000000000000     
 <S^2>      =    0.0000000000000000     



== Center of Charge ==

spin up     (    0.0000,   -0.0000,   -0.0000 )
spin down   (    0.0000,   -0.0000,   -0.0000 )
     total  (    0.0000,   -0.0000,   -0.0000 )
ionic       (    1.0346,    1.0346,    1.0346 )
crystal     (   -0.0000,   -0.0000,   -0.0000 )


== Crystal Dipole ==

mu   =  (   -0.0000,    0.0000,    0.0000 ) au
|mu| =     0.0000 au,       0.0000 Debye


== Molecular Dipole wrt Center of Mass ==

mu   =  (   33.1080,   33.1080,   33.1080 ) au
|mu| =    57.3447 au,     145.7474 Debye

== Si.psp1   expansion coefficients ==

ATOM       S            P            D            F
Si :   0.21344E+00  0.34796E+00



== C.psp1   expansion coefficients ==

ATOM       S            P            D            F
C  :   0.68653E+00  0.19338E+01



 Generated formatted atomic orbitals, filename: ./Si.aorb

 Generated formatted atomic orbitals, filename: ./C.aorb



 *************************************************************
 **                                                         **
 **                  PSPW Mulliken analysis                 **
 **                                                         **
 ** Population analysis algorithm devloped by Ryoichi Kawai **
 **                                                         **
 **                   Fri May 17 10:59                      **
 **                                                         **
 *************************************************************


== XYZ OUTPUT ==


                    8

Si            2.189999      2.189999      2.189999
Si            0.000000      0.000000      2.189999
Si            0.000000      2.189999      0.000000
Si            2.189999      0.000000      0.000000
C            -1.095000     -1.095000     -1.095000
C             1.095000      1.095000     -1.095000
C             1.095000     -1.095000      1.095000
C            -1.095000      1.095000      1.095000


== Atomic Orbital Expansion ==

 Si   nodamping
 C    nodamping


 =====================================================
 | POPULATION ANALYSIS OF FILLED MOLECULAR ORBITALS  |
 =====================================================


== Using pseudoatomic orbital expansion          ==


------------------------------------------------------------------------------


*** ORBITAL=   1***  SPIN=BOTH    SUM= 0.70492E+00 E= 0.35237E+00 (   9.589eV)

NO  ATOM  L  POPULATION
                            s
 1   Si     0    0.00000   -0.00000
                            px         pz         py
 1   Si     1    0.01399   -0.08327    0.06501   -0.05321
                            s
 2   Si     0    0.00000   -0.00000
                            px         pz         py
 2   Si     1    0.01399   -0.08322    0.06501   -0.05325
                            s
 3   Si     0    0.00000    0.00000
                            px         pz         py
 3   Si     1    0.01400   -0.08322    0.06510   -0.05321
                            s
 4   Si     0    0.00000   -0.00000
                            px         pz         py
 4   Si     1    0.01401   -0.08327    0.06510   -0.05325
                            s
 5   C      0    0.00000   -0.00001
                            px         pz         py
 5   C      1    0.23600    0.34184   -0.26714    0.21859
                            s
 6   C      0    0.00000   -0.00002
                            px         pz         py
 6   C      1    0.23601    0.34185   -0.26715    0.21859
                            s
 7   C      0    0.00000    0.00003
                            px         pz         py
 7   C      1    0.23600    0.34184   -0.26715    0.21858
                            s
 8   C      0    0.00000    0.00000
                            px         pz         py
 8   C      1    0.23601    0.34185   -0.26715    0.21858


=== DISTRIBUTION ===

     1(Si  )   0.0140     2(Si  )   0.0140     3(Si  )   0.0140     4(Si  )   0.0140
     5(C   )   0.2360     6(C   )   0.2360     7(C   )   0.2360     8(C   )   0.2360


== ANGULAR MOMENTUM POPULATIONS ===

      s         p         d         f
    0.0000    1.0000    0.0000    0.0000


------------------------------------------------------------------------------


*** ORBITAL=   2***  SPIN=BOTH    SUM= 0.70492E+00 E= 0.35237E+00 (   9.589eV)

NO  ATOM  L  POPULATION
                            s
 1   Si     0    0.00000   -0.00000
                            px         pz         py
 1   Si     1    0.01399    0.00105   -0.07412   -0.09216
                            s
 2   Si     0    0.00000    0.00000
                            px         pz         py
 2   Si     1    0.01400    0.00098   -0.07411   -0.09223
                            s
 3   Si     0    0.00000    0.00000
                            px         pz         py
 3   Si     1    0.01399    0.00098   -0.07415   -0.09215
                            s
 4   Si     0    0.00000   -0.00000
                            px         pz         py
 4   Si     1    0.01400    0.00105   -0.07415   -0.09222
                            s
 5   C      0    0.00000    0.00003
                            px         pz         py
 5   C      1    0.23600   -0.00417    0.30442    0.37857
                            s
 6   C      0    0.00000   -0.00002
                            px         pz         py
 6   C      1    0.23600   -0.00417    0.30441    0.37857
                            s
 7   C      0    0.00000   -0.00000
                            px         pz         py
 7   C      1    0.23600   -0.00417    0.30441    0.37857
                            s
 8   C      0    0.00000   -0.00001
                            px         pz         py
 8   C      1    0.23601   -0.00418    0.30442    0.37858


=== DISTRIBUTION ===

     1(Si  )   0.0140     2(Si  )   0.0140     3(Si  )   0.0140     4(Si  )   0.0140
     5(C   )   0.2360     6(C   )   0.2360     7(C   )   0.2360     8(C   )   0.2360


== ANGULAR MOMENTUM POPULATIONS ===

      s         p         d         f
    0.0000    1.0000    0.0000    0.0000


------------------------------------------------------------------------------


*** ORBITAL=   3***  SPIN=BOTH    SUM= 0.70492E+00 E= 0.35237E+00 (   9.589eV)

NO  ATOM  L  POPULATION
                            s
 1   Si     0    0.00000    0.00000
                            px         pz         py
 1   Si     1    0.01399    0.08402    0.06534   -0.05159
                            s
 2   Si     0    0.00000   -0.00000
                            px         pz         py
 2   Si     1    0.01400    0.08408    0.06534   -0.05162
                            s
 3   Si     0    0.00000    0.00000
                            px         pz         py
 3   Si     1    0.01400    0.08408    0.06532   -0.05159
                            s
 4   Si     0    0.00000   -0.00000
                            px         pz         py
 4   Si     1    0.01399    0.08402    0.06532   -0.05162
                            s
 5   C      0    0.00000   -0.00000
                            px         pz         py
 5   C      1    0.23600   -0.34515   -0.26827    0.21191
                            s
 6   C      0    0.00000    0.00000
                            px         pz         py
 6   C      1    0.23600   -0.34515   -0.26827    0.21191
                            s
 7   C      0    0.00000    0.00002
                            px         pz         py
 7   C      1    0.23601   -0.34515   -0.26827    0.21191
                            s
 8   C      0    0.00000   -0.00002
                            px         pz         py
 8   C      1    0.23600   -0.34515   -0.26827    0.21191


=== DISTRIBUTION ===

     1(Si  )   0.0140     2(Si  )   0.0140     3(Si  )   0.0140     4(Si  )   0.0140
     5(C   )   0.2360     6(C   )   0.2360     7(C   )   0.2360     8(C   )   0.2360


== ANGULAR MOMENTUM POPULATIONS ===

      s         p         d         f
    0.0000    1.0000    0.0000    0.0000


------------------------------------------------------------------------------


*** ORBITAL=   4***  SPIN=BOTH    SUM= 0.13416E+01 E= 0.22993E+00 (   6.257eV)

NO  ATOM  L  POPULATION
                            s
 1   Si     0    0.00000    0.00000
                            px         pz         py
 1   Si     1    0.20226   -0.09176    0.07291   -0.43420
                            s
 2   Si     0    0.00000   -0.00000
                            px         pz         py
 2   Si     1    0.00580    0.02193   -0.07291   -0.00124
                            s
 3   Si     0    0.00000    0.00000
                            px         pz         py
 3   Si     1    0.18945   -0.02193   -0.02145    0.43417
                            s
 4   Si     0    0.00000    0.00000
                            px         pz         py
 4   Si     1    0.00888    0.09176    0.02144    0.00127
                            s
 5   C      0    0.00000    0.00000
                            px         pz         py
 5   C      1    0.16317    0.23203    0.33032   -0.01482
                            s
 6   C      0    0.00000   -0.00001
                            px         pz         py
 6   C      1    0.20553    0.29424   -0.33032    0.09922
                            s
 7   C      0    0.00000    0.00000
                            px         pz         py
 7   C      1    0.12401   -0.29424   -0.19291    0.01482
                            s
 8   C      0    0.00000    0.00000
                            px         pz         py
 8   C      1    0.10090   -0.23204    0.19292   -0.09922


=== DISTRIBUTION ===

     1(Si  )   0.2023     2(Si  )   0.0058     3(Si  )   0.1894     4(Si  )   0.0089
     5(C   )   0.1632     6(C   )   0.2055     7(C   )   0.1240     8(C   )   0.1009


== ANGULAR MOMENTUM POPULATIONS ===

      s         p         d         f
    0.0000    1.0000    0.0000    0.0000


------------------------------------------------------------------------------


*** ORBITAL=   5***  SPIN=BOTH    SUM= 0.13416E+01 E= 0.22993E+00 (   6.257eV)

NO  ATOM  L  POPULATION
                            s
 1   Si     0    0.00000    0.00000
                            px         pz         py
 1   Si     1    0.17397   -0.10234   -0.40110   -0.05113
                            s
 2   Si     0    0.00000    0.00000
                            px         pz         py
 2   Si     1    0.18698   -0.16160    0.40107    0.00216
                            s
 3   Si     0    0.00000    0.00000
                            px         pz         py
 3   Si     1    0.03184    0.16160   -0.05583    0.05113
                            s
 4   Si     0    0.00000    0.00000
                            px         pz         py
 4   Si     1    0.01360    0.10234    0.05586   -0.00215
                            s
 5   C      0    0.00000    0.00001
                            px         pz         py
 5   C      1    0.22899    0.30572   -0.00361    0.36813
                            s
 6   C      0    0.00000   -0.00000
                            px         pz         py
 6   C      1    0.06320   -0.24653    0.00361   -0.04913
                            s
 7   C      0    0.00000   -0.00000
                            px         pz         py
 7   C      1    0.20092    0.24653   -0.06801   -0.36813
                            s
 8   C      0    0.00000    0.00000
                            px         pz         py
 8   C      1    0.10050   -0.30572    0.06801    0.04913


=== DISTRIBUTION ===

     1(Si  )   0.1740     2(Si  )   0.1870     3(Si  )   0.0318     4(Si  )   0.0136
     5(C   )   0.2290     6(C   )   0.0632     7(C   )   0.2009     8(C   )   0.1005


== ANGULAR MOMENTUM POPULATIONS ===

      s         p         d         f
    0.0000    1.0000    0.0000    0.0000


------------------------------------------------------------------------------


*** ORBITAL=   6***  SPIN=BOTH    SUM= 0.13416E+01 E= 0.22993E+00 (   6.257eV)

NO  ATOM  L  POPULATION
                            s
 1   Si     0    0.00000   -0.00000
                            px         pz         py
 1   Si     1    0.17141   -0.38688    0.09985    0.10847
                            s
 2   Si     0    0.00000   -0.00000
                            px         pz         py
 2   Si     1    0.01055    0.02388   -0.09984   -0.00342
                            s
 3   Si     0    0.00000   -0.00000
                            px         pz         py
 3   Si     1    0.04353   -0.02388   -0.17663   -0.10847
                            s
 4   Si     0    0.00000   -0.00000
                            px         pz         py
 4   Si     1    0.18089    0.38689    0.17662    0.00341
                            s
 5   C      0    0.00000    0.00001
                            px         pz         py
 5   C      1    0.03565   -0.01709    0.18061    0.05230
                            s
 6   C      0    0.00000   -0.00001
                            px         pz         py
 6   C      1    0.19403   -0.10989   -0.18061    0.38644
                            s
 7   C      0    0.00000   -0.00001
                            px         pz         py
 7   C      1    0.11456    0.10988    0.31584   -0.05230
                            s
 8   C      0    0.00000    0.00001
                            px         pz         py
 8   C      1    0.24938    0.01709   -0.31583   -0.38644


=== DISTRIBUTION ===

     1(Si  )   0.1714     2(Si  )   0.0106     3(Si  )   0.0435     4(Si  )   0.1809
     5(C   )   0.0356     6(C   )   0.1940     7(C   )   0.1146     8(C   )   0.2494


== ANGULAR MOMENTUM POPULATIONS ===

      s         p         d         f
    0.0000    1.0000    0.0000    0.0000


------------------------------------------------------------------------------


*** ORBITAL=   7***  SPIN=BOTH    SUM= 0.13416E+01 E= 0.22993E+00 (   6.257eV)

NO  ATOM  L  POPULATION
                            s
 1   Si     0    0.00000   -0.00000
                            px         pz         py
 1   Si     1    0.02928   -0.07438   -0.15409    0.00295
                            s
 2   Si     0    0.00000   -0.00000
                            px         pz         py
 2   Si     1    0.18042    0.38183    0.15407   -0.10432
                            s
 3   Si     0    0.00000   -0.00000
                            px         pz         py
 3   Si     1    0.16304   -0.38183    0.13129   -0.00295
                            s
 4   Si     0    0.00000   -0.00000
                            px         pz         py
 4   Si     1    0.03365    0.07438   -0.13127    0.10432
                            s
 5   C      0    0.00000    0.00000
                            px         pz         py
 5   C      1    0.05027    0.07504    0.21086   -0.01335
                            s
 6   C      0    0.00000    0.00000
                            px         pz         py
 6   C      1    0.17505    0.04748   -0.21087   -0.35823
                            s
 7   C      0    0.00000   -0.00000
                            px         pz         py
 7   C      1    0.11838   -0.04748    0.34051    0.01335
                            s
 8   C      0    0.00000   -0.00000
                            px         pz         py
 8   C      1    0.24991   -0.07504   -0.34051    0.35823


=== DISTRIBUTION ===

     1(Si  )   0.0293     2(Si  )   0.1804     3(Si  )   0.1630     4(Si  )   0.0336
     5(C   )   0.0503     6(C   )   0.1750     7(C   )   0.1184     8(C   )   0.2499


== ANGULAR MOMENTUM POPULATIONS ===

      s         p         d         f
    0.0000    1.0000    0.0000    0.0000


------------------------------------------------------------------------------


*** ORBITAL=   8***  SPIN=BOTH    SUM= 0.13416E+01 E= 0.22993E+00 (   6.257eV)

NO  ATOM  L  POPULATION
                            s
 1   Si     0    0.00000    0.00000
                            px         pz         py
 1   Si     1    0.01260   -0.11179   -0.00185    0.00998
                            s
 2   Si     0    0.00000    0.00000
                            px         pz         py
 2   Si     1    0.13201   -0.00657    0.00185    0.36327
                            s
 3   Si     0    0.00000    0.00000
                            px         pz         py
 3   Si     1    0.05873    0.00657    0.24205   -0.00998
                            s
 4   Si     0    0.00000    0.00000
                            px         pz         py
 4   Si     1    0.20305    0.11179   -0.24205   -0.36327
                            s
 5   C      0    0.00000    0.00001
                            px         pz         py
 5   C      1    0.26212   -0.37070    0.27708    0.21891
                            s
 6   C      0    0.00000   -0.00000
                            px         pz         py
 6   C      1    0.08899   -0.08040   -0.27708   -0.07586
                            s
 7   C      0    0.00000   -0.00000
                            px         pz         py
 7   C      1    0.07686    0.08040   -0.14990   -0.21891
                            s
 8   C      0    0.00000   -0.00000
                            px         pz         py
 8   C      1    0.16565    0.37070    0.14991    0.07586


=== DISTRIBUTION ===

     1(Si  )   0.0126     2(Si  )   0.1320     3(Si  )   0.0587     4(Si  )   0.2030
     5(C   )   0.2621     6(C   )   0.0890     7(C   )   0.0769     8(C   )   0.1656


== ANGULAR MOMENTUM POPULATIONS ===

      s         p         d         f
    0.0000    1.0000    0.0000    0.0000


------------------------------------------------------------------------------


*** ORBITAL=   9***  SPIN=BOTH    SUM= 0.13416E+01 E= 0.22993E+00 (   6.257eV)

NO  ATOM  L  POPULATION
                            s
 1   Si     0    0.00000   -0.00000
                            px         pz         py
 1   Si     1    0.02008   -0.12880    0.05742    0.01377
                            s
 2   Si     0    0.00000   -0.00000
                            px         pz         py
 2   Si     1    0.09382   -0.17375   -0.05743   -0.24562
                            s
 3   Si     0    0.00000   -0.00000
                            px         pz         py
 3   Si     1    0.12298    0.17375    0.30430   -0.01377
                            s
 4   Si     0    0.00000   -0.00000
                            px         pz         py
 4   Si     1    0.16952    0.12880   -0.30430    0.24562
                            s
 5   C      0    0.00000    0.00000
                            px         pz         py
 5   C      1    0.15022   -0.07848   -0.18391    0.33202
                            s
 6   C      0    0.00000   -0.00000
                            px         pz         py
 6   C      1    0.16362    0.35870    0.18392    0.03364
                            s
 7   C      0    0.00000   -0.00001
                            px         pz         py
 7   C      1    0.25569   -0.35870    0.12959   -0.33202
                            s
 8   C      0    0.00000    0.00000
                            px         pz         py
 8   C      1    0.02408    0.07848   -0.12958   -0.03364


=== DISTRIBUTION ===

     1(Si  )   0.0201     2(Si  )   0.0938     3(Si  )   0.1230     4(Si  )   0.1695
     5(C   )   0.1502     6(C   )   0.1636     7(C   )   0.2557     8(C   )   0.0241


== ANGULAR MOMENTUM POPULATIONS ===

      s         p         d         f
    0.0000    1.0000    0.0000    0.0000


------------------------------------------------------------------------------


*** ORBITAL=  10***  SPIN=BOTH    SUM= 0.18283E+01 E= 0.56048E-01 (   1.525eV)

NO  ATOM  L  POPULATION
                            s
 1   Si     0    0.19943    0.44657
                            px         pz         py
 1   Si     1    0.00000   -0.00000   -0.00000   -0.00000
                            s
 2   Si     0    0.01980   -0.14072
                            px         pz         py
 2   Si     1    0.00000    0.00000   -0.00000    0.00000
                            s
 3   Si     0    0.03791   -0.19471
                            px         pz         py
 3   Si     1    0.00000    0.00000    0.00000   -0.00000
                            s
 4   Si     0    0.01235   -0.11111
                            px         pz         py
 4   Si     1    0.00000   -0.00000    0.00000   -0.00000
                            s
 5   C      0    0.00000    0.00001
                            px         pz         py
 5   C      1    0.18263    0.27615    0.25177    0.20732
                            s
 6   C      0    0.00000    0.00001
                            px         pz         py
 6   C      1    0.18263   -0.27615    0.25177   -0.20732
                            s
 7   C      0    0.00000    0.00001
                            px         pz         py
 7   C      1    0.18263   -0.27615   -0.25177    0.20732
                            s
 8   C      0    0.00000    0.00001
                            px         pz         py
 8   C      1    0.18263    0.27615   -0.25177   -0.20732


=== DISTRIBUTION ===

     1(Si  )   0.1994     2(Si  )   0.0198     3(Si  )   0.0379     4(Si  )   0.0123
     5(C   )   0.1826     6(C   )   0.1826     7(C   )   0.1826     8(C   )   0.1826


== ANGULAR MOMENTUM POPULATIONS ===

      s         p         d         f
    0.2695    0.7305    0.0000    0.0000


------------------------------------------------------------------------------


*** ORBITAL=  11***  SPIN=BOTH    SUM= 0.18283E+01 E= 0.56046E-01 (   1.525eV)

NO  ATOM  L  POPULATION
                            s
 1   Si     0    0.00175   -0.04188
                            px         pz         py
 1   Si     1    0.00000   -0.00000    0.00000   -0.00000
                            s
 2   Si     0    0.10074    0.31740
                            px         pz         py
 2   Si     1    0.00000    0.00000    0.00000    0.00000
                            s
 3   Si     0    0.15348   -0.39177
                            px         pz         py
 3   Si     1    0.00000    0.00000   -0.00000   -0.00000
                            s
 4   Si     0    0.01351    0.11624
                            px         pz         py
 4   Si     1    0.00000   -0.00000   -0.00000    0.00000
                            s
 5   C      0    0.00000   -0.00000
                            px         pz         py
 5   C      1    0.18263    0.06122    0.22682   -0.35698
                            s
 6   C      0    0.00000   -0.00000
                            px         pz         py
 6   C      1    0.18263   -0.06122    0.22682    0.35698
                            s
 7   C      0    0.00000   -0.00000
                            px         pz         py
 7   C      1    0.18263   -0.06122   -0.22682   -0.35698
                            s
 8   C      0    0.00000   -0.00000
                            px         pz         py
 8   C      1    0.18263    0.06122   -0.22682    0.35698


=== DISTRIBUTION ===

     1(Si  )   0.0018     2(Si  )   0.1007     3(Si  )   0.1535     4(Si  )   0.0135
     5(C   )   0.1826     6(C   )   0.1826     7(C   )   0.1826     8(C   )   0.1826


== ANGULAR MOMENTUM POPULATIONS ===

      s         p         d         f
    0.2695    0.7305    0.0000    0.0000


------------------------------------------------------------------------------


*** ORBITAL=  12***  SPIN=BOTH    SUM= 0.18283E+01 E= 0.56045E-01 (   1.525eV)

NO  ATOM  L  POPULATION
                            s
 1   Si     0    0.00094    0.03069
                            px         pz         py
 1   Si     1    0.00000   -0.00000    0.00000   -0.00000
                            s
 2   Si     0    0.08157    0.28561
                            px         pz         py
 2   Si     1    0.00000    0.00000    0.00000    0.00000
                            s
 3   Si     0    0.01072    0.10355
                            px         pz         py
 3   Si     1    0.00000    0.00000   -0.00000   -0.00000
                            s
 4   Si     0    0.17626   -0.41983
                            px         pz         py
 4   Si     1    0.00000   -0.00000   -0.00000    0.00000
                            s
 5   C      0    0.00000    0.00001
                            px         pz         py
 5   C      1    0.18263   -0.32035    0.26037    0.11050
                            s
 6   C      0    0.00000    0.00000
                            px         pz         py
 6   C      1    0.18263    0.32035    0.26037   -0.11050
                            s
 7   C      0    0.00000    0.00001
                            px         pz         py
 7   C      1    0.18263    0.32035   -0.26037    0.11050
                            s
 8   C      0    0.00000    0.00000
                            px         pz         py
 8   C      1    0.18263   -0.32035   -0.26037   -0.11050


=== DISTRIBUTION ===

     1(Si  )   0.0009     2(Si  )   0.0816     3(Si  )   0.0107     4(Si  )   0.1763
     5(C   )   0.1826     6(C   )   0.1826     7(C   )   0.1826     8(C   )   0.1826


== ANGULAR MOMENTUM POPULATIONS ===

      s         p         d         f
    0.2695    0.7305    0.0000    0.0000


------------------------------------------------------------------------------


*** ORBITAL=  13***  SPIN=BOTH    SUM= 0.25254E+01 E=-0.25705E-01 (  -0.699eV)

NO  ATOM  L  POPULATION
                            s
 1   Si     0    0.00000    0.00000
                            px         pz         py
 1   Si     1    0.17134   -0.28712    0.29593   -0.03645
                            s
 2   Si     0    0.00000   -0.00000
                            px         pz         py
 2   Si     1    0.17135    0.28713    0.29593    0.03645
                            s
 3   Si     0    0.00000    0.00000
                            px         pz         py
 3   Si     1    0.17134    0.28713   -0.29593   -0.03645
                            s
 4   Si     0    0.00000    0.00000
                            px         pz         py
 4   Si     1    0.17135   -0.28713   -0.29593    0.03645
                            s
 5   C      0    0.00035    0.01873
                            px         pz         py
 5   C      1    0.00000    0.00000   -0.00000    0.00000
                            s
 6   C      0    0.17617   -0.41973
                            px         pz         py
 6   C      1    0.00000   -0.00000    0.00000   -0.00001
                            s
 7   C      0    0.00094    0.03066
                            px         pz         py
 7   C      1    0.00000    0.00000   -0.00000   -0.00000
                            s
 8   C      0    0.13715    0.37034
                            px         pz         py
 8   C      1    0.00000   -0.00000    0.00000    0.00001


=== DISTRIBUTION ===

     1(Si  )   0.1713     2(Si  )   0.1713     3(Si  )   0.1713     4(Si  )   0.1713
     5(C   )   0.0004     6(C   )   0.1762     7(C   )   0.0009     8(C   )   0.1372


== ANGULAR MOMENTUM POPULATIONS ===

      s         p         d         f
    0.3146    0.6854    0.0000    0.0000


------------------------------------------------------------------------------


*** ORBITAL=  14***  SPIN=BOTH    SUM= 0.25254E+01 E=-0.25705E-01 (  -0.699eV)

NO  ATOM  L  POPULATION
                            s
 1   Si     0    0.00000    0.00000
                            px         pz         py
 1   Si     1    0.17134   -0.09847   -0.04635    0.39937
                            s
 2   Si     0    0.00000    0.00000
                            px         pz         py
 2   Si     1    0.17134    0.09847   -0.04635   -0.39937
                            s
 3   Si     0    0.00000   -0.00000
                            px         pz         py
 3   Si     1    0.17135    0.09847    0.04635    0.39938
                            s
 4   Si     0    0.00000   -0.00000
                            px         pz         py
 4   Si     1    0.17135   -0.09847    0.04635   -0.39938
                            s
 5   C      0    0.02974   -0.17247
                            px         pz         py
 5   C      1    0.00000   -0.00000    0.00000    0.00000
                            s
 6   C      0    0.05535    0.23527
                            px         pz         py
 6   C      1    0.00000    0.00000   -0.00000    0.00000
                            s
 7   C      0    0.13594   -0.36871
                            px         pz         py
 7   C      1    0.00000    0.00000   -0.00001    0.00000
                            s
 8   C      0    0.09357    0.30590
                            px         pz         py
 8   C      1    0.00000   -0.00000    0.00000    0.00000


=== DISTRIBUTION ===

     1(Si  )   0.1713     2(Si  )   0.1713     3(Si  )   0.1713     4(Si  )   0.1713
     5(C   )   0.0297     6(C   )   0.0554     7(C   )   0.1359     8(C   )   0.0936


== ANGULAR MOMENTUM POPULATIONS ===

      s         p         d         f
    0.3146    0.6854    0.0000    0.0000


------------------------------------------------------------------------------


*** ORBITAL=  15***  SPIN=BOTH    SUM= 0.25254E+01 E=-0.25705E-01 (  -0.699eV)

NO  ATOM  L  POPULATION
                            s
 1   Si     0    0.00000   -0.00000
                            px         pz         py
 1   Si     1    0.17134   -0.28143   -0.28569   -0.10255
                            s
 2   Si     0    0.00000   -0.00000
                            px         pz         py
 2   Si     1    0.17135    0.28144   -0.28570    0.10255
                            s
 3   Si     0    0.00000    0.00000
                            px         pz         py
 3   Si     1    0.17134    0.28144    0.28569   -0.10255
                            s
 4   Si     0    0.00000    0.00000
                            px         pz         py
 4   Si     1    0.17135   -0.28144    0.28570    0.10255
                            s
 5   C      0    0.20587    0.45373
                            px         pz         py
 5   C      1    0.00000   -0.00000   -0.00001   -0.00001
                            s
 6   C      0    0.00443   -0.06659
                            px         pz         py
 6   C      1    0.00000   -0.00000    0.00000   -0.00000
                            s
 7   C      0    0.09908   -0.31477
                            px         pz         py
 7   C      1    0.00000   -0.00000   -0.00000    0.00001
                            s
 8   C      0    0.00524   -0.07236
                            px         pz         py
 8   C      1    0.00000    0.00000    0.00000   -0.00000


=== DISTRIBUTION ===

     1(Si  )   0.1713     2(Si  )   0.1713     3(Si  )   0.1713     4(Si  )   0.1714
     5(C   )   0.2059     6(C   )   0.0044     7(C   )   0.0991     8(C   )   0.0052


== ANGULAR MOMENTUM POPULATIONS ===

      s         p         d         f
    0.3146    0.6854    0.0000    0.0000


------------------------------------------------------------------------------


*** ORBITAL=  16***  SPIN=BOTH    SUM= 0.34619E+01 E=-0.21685E+00 (  -5.901eV)

NO  ATOM  L  POPULATION
                            s
 1   Si     0    0.15164   -0.38941
                            px         pz         py
 1   Si     1    0.00000   -0.00000   -0.00000   -0.00000
                            s
 2   Si     0    0.15164   -0.38941
                            px         pz         py
 2   Si     1    0.00000    0.00000    0.00000    0.00000
                            s
 3   Si     0    0.15164   -0.38941
                            px         pz         py
 3   Si     1    0.00000   -0.00000   -0.00000    0.00000
                            s
 4   Si     0    0.15164   -0.38942
                            px         pz         py
 4   Si     1    0.00000    0.00000   -0.00000   -0.00000
                            s
 5   C      0    0.09836   -0.31362
                            px         pz         py
 5   C      1    0.00000    0.00000    0.00000    0.00000
                            s
 6   C      0    0.09836   -0.31362
                            px         pz         py
 6   C      1    0.00000   -0.00000    0.00000   -0.00000
                            s
 7   C      0    0.09836   -0.31362
                            px         pz         py
 7   C      1    0.00000   -0.00000   -0.00000    0.00000
                            s
 8   C      0    0.09836   -0.31362
                            px         pz         py
 8   C      1    0.00000    0.00000   -0.00000   -0.00000


=== DISTRIBUTION ===

     1(Si  )   0.1516     2(Si  )   0.1516     3(Si  )   0.1516     4(Si  )   0.1516
     5(C   )   0.0984     6(C   )   0.0984     7(C   )   0.0984     8(C   )   0.0984


== ANGULAR MOMENTUM POPULATIONS ===

      s         p         d         f
    1.0000    0.0000    0.0000    0.0000


 ========================================
 |   POPULATION ANALYSIS ON EACH ATOM   |
 ========================================


NO  ATOM  SPIN    TOTAL       s          p          d          f
 1   Si     UP      1.51935    0.35376    1.16559
 1   Si     DOWN    1.51935    0.35376    1.16559
 2   Si     UP      1.51936    0.35376    1.16560
 2   Si     DOWN    1.51936    0.35376    1.16560
 3   Si     UP      1.51936    0.35376    1.16560
 3   Si     DOWN    1.51936    0.35376    1.16560
 4   Si     UP      1.51939    0.35376    1.16563
 4   Si     DOWN    1.51939    0.35376    1.16563
 5   C      UP      2.48064    0.33432    2.14631
 5   C      DOWN    2.48064    0.33432    2.14631
 6   C      UP      2.48064    0.33432    2.14632
 6   C      DOWN    2.48064    0.33432    2.14632
 7   C      UP      2.48064    0.33432    2.14632
 7   C      DOWN    2.48064    0.33432    2.14632
 8   C      UP      2.48064    0.33432    2.14632
 8   C      DOWN    2.48064    0.33432    2.14632



=== TOTAL ANGULAR MOMENTUM POPULATION ===

 SPIN       s           p           d           f
  UP       17.20%      82.80%       0.00%       0.00% 
  UP       17.20%      82.80%       0.00%       0.00% 
 TOTAL     17.20%      82.80%       0.00%       0.00% 

 *************************************************************
 **                                                         **
 **          PSPW Atomic Point Charge (APC) Analysis        **
 **                                                         **
 **   Point charge analysis based on paper by P.E. Blochl   **
 **         (J. Chem. Phys. vol 103, page 7422, 1995)       **
 **                                                         **
 *************************************************************

 pspw_APC data structure
 -----------------------
 nga, ngs:                    3                   24
 Gc      :   2.5000000000000000     
 APC gamma:                    1  0.59999999999999998     
 APC gamma:                    2  0.90000000000000002     
 APC gamma:                    3   1.3500000000000001     

 charge analysis on each atom
 ----------------------------

    no  atom        Qelc        Qion      Qtotal
    --  ----     -------     -------     -------
     1  Si        -1.713       4.000       2.287
     2  Si        -0.688       4.000       3.313
     3  Si        -1.697       4.000       2.303
     4  Si        -1.659       4.000       2.341
     5  C         -4.691       4.000      -0.691
     6  C         -7.332       4.000      -3.332
     7  C         -7.090       4.000      -3.090
     8  C         -7.066       4.000      -3.066
     Total Q     -31.936      32.000       0.064


 gaussian coefficients of model density
 --------------------------------------

    no  atom     g=0.000     g=0.600     g=0.900     g=1.350
    --  ----     -------     -------     -------     -------
     1  Si         4.000      -7.785      13.896      -7.824
     2  Si         4.000       9.688     -17.539       7.164
     3  Si         4.000      -7.560      13.482      -7.619
     4  Si         4.000      -6.866      12.236      -7.029
     5  C          4.000      37.176     -63.242      21.375
     6  C          4.000       4.051      -1.523      -9.859
     7  C          4.000      -6.301      14.219     -15.008
     8  C          4.000      -6.512      14.641     -15.195


=== Electric Field at Atoms ===

      1 Si   Atomic Electric Field =(   -0.00000   -0.00000    0.00000 )
                    (ion)          =(    0.00000    0.00000    0.00000 )
                    (electronic)   =(   -0.00000   -0.00000    0.00000 )
      2 Si   Atomic Electric Field =(   -0.00000   -0.00000    0.00000 )
                    (ion)          =(   -0.00000   -0.00000    0.00000 )
                    (electronic)   =(   -0.00000   -0.00000    0.00000 )
      3 Si   Atomic Electric Field =(   -0.00000    0.00000    0.00000 )
                    (ion)          =(    0.00000    0.00000    0.00000 )
                    (electronic)   =(   -0.00000    0.00000    0.00000 )
      4 Si   Atomic Electric Field =(    0.00000   -0.00000    0.00000 )
                    (ion)          =(    0.00000   -0.00000    0.00000 )
                    (electronic)   =(    0.00000   -0.00000    0.00000 )
      5 C    Atomic Electric Field =(    0.00001   -0.00002   -0.00003 )
                    (ion)          =(    0.00000    0.00000   -0.00000 )
                    (electronic)   =(    0.00001   -0.00002   -0.00003 )
      6 C    Atomic Electric Field =(    0.00001    0.00003   -0.00000 )
                    (ion)          =(   -0.00000   -0.00000    0.00000 )
                    (electronic)   =(    0.00001    0.00003   -0.00000 )
      7 C    Atomic Electric Field =(   -0.00001   -0.00002    0.00003 )
                    (ion)          =(   -0.00000   -0.00000   -0.00000 )
                    (electronic)   =(   -0.00001   -0.00002    0.00003 )
      8 C    Atomic Electric Field =(   -0.00001    0.00002    0.00000 )
                    (ion)          =(    0.00000   -0.00000   -0.00000 )
                    (electronic)   =(   -0.00001    0.00002    0.00000 )

 output psi filename:./SiC.stress.movecs


== Timing ==

cputime in seconds
  prologue    :   0.454619E+01
  main loop   :   0.992656E+00
  epilogue    :   0.173389E+00
  total       :   0.571223E+01
  cputime/step:   0.115425E-01       (      86 evalulations,      31 linesearches)


Time spent doing                        total          step       percent
  total time                 :   0.571309E+01  0.664313E-01       100.0 %
  i/o time                   :   0.112275E+01  0.130552E-01        19.7 %
  FFTs                       :   0.262940E+00  0.305744E-02         4.6 %
  dot products               :   0.128993E+00  0.149991E-02         2.3 %
  geodesic                   :   0.175939E+00  0.204580E-02         3.1 %
  ffm_dgemm                  :   0.281163E-01  0.326934E-03         0.5 %
  fmf_dgemm                  :   0.137820E+00  0.160255E-02         2.4 %
  m_diagonalize              :   0.340530E-02  0.395966E-04         0.1 %
  exchange correlation       :   0.815651E-01  0.948432E-03         1.4 %
  local pseudopotentials     :   0.236988E-03  0.275568E-05         0.0 %
  non-local pseudopotentials :   0.202941E+00  0.235978E-02         3.6 %
  hartree potentials         :   0.253835E-02  0.295157E-04         0.0 %
  ion-ion interaction        :   0.195048E+00  0.226800E-02         3.4 %
  structure factors          :   0.940732E+00  0.109387E-01        16.5 %
  phase factors              :   0.250330E-04  0.291081E-06         0.0 %
  masking and packing        :   0.589550E+00  0.685523E-02        10.3 %
  queue fft                  :   0.270411E+00  0.314431E-02         4.7 %
  queue fft (serial)         :   0.183568E+00  0.213452E-02         3.2 %
  queue fft (message passing):   0.774941E-01  0.901094E-03         1.4 %

     >>>  JOB COMPLETED     AT Fri May 17 10:59:13 2013  <<<

 Task  times  cpu:        5.1s     wall:        5.7s


                                NWChem Input Module
                                -------------------



  Deleted DRIVER restart files 



                           NWChem Geometry Optimization
                           ----------------------------




                          testing unit cell optimization


 maximum gradient threshold         (gmax) =   0.000450
 rms gradient threshold             (grms) =   0.000300
 maximum cartesian step threshold   (xmax) =   0.001800
 rms cartesian step threshold       (xrms) =   0.001200
 fixed trust radius                (trust) =   0.300000
 maximum step size to saddle      (sadstp) =   0.100000
 energy precision                  (eprec) =   1.0D-07
 maximum number of steps          (nptopt) =   20
 initial hessian option           (inhess) =    0
 line search option               (linopt) =    1
 hessian update option            (modupd) =    1
 saddle point option              (modsad) =    0
 initial eigen-mode to follow     (moddir) =    0
 initial variable to follow       (vardir) =    0
 follow first negative mode     (firstneg) =    T
 apply conjugacy                    (opcg) =    F
 source of zmatrix                         =           


          -------------------
          Energy Minimization
          -------------------

  INCLUDING STRESS !!!!!!!!!!!!!!!!

 Using diagonal initial Hessian 
  The initial hessian 

              1        2        3        4        5        6        7        8
    1   62.1173  -0.0000  -0.0000  -9.0588   0.0000  -0.0000  -9.0588  -0.0000
    2   -0.0000  62.1173  -0.0000   0.0000  -9.0588  -0.0000  -0.0000  -0.0000
    3   -0.0000  -0.0000  62.1173  -0.0000  -0.0000  -0.0000   0.0000  -0.0000
    4   -9.0588   0.0000  -0.0000  62.1173  -0.0000   0.0000  -0.0000  -0.0000
    5    0.0000  -9.0588  -0.0000  -0.0000  62.1173   0.0000  -0.0000  -9.0588
    6   -0.0000  -0.0000  -0.0000   0.0000   0.0000  62.1173  -0.0000   0.0000
    7   -9.0588  -0.0000   0.0000  -0.0000  -0.0000  -0.0000  62.1173   0.0000
    8   -0.0000  -0.0000  -0.0000  -0.0000  -9.0588   0.0000   0.0000  62.1173
    9    0.0000  -0.0000  -9.0588  -0.0000   0.0000  -9.0588  -0.0000   0.0000
   10   -0.0000  -0.0000  -0.0000  -9.0588  -0.0000   0.0000  -9.0588   0.0000
   11   -0.0000  -9.0588   0.0000  -0.0000  -0.0000  -0.0000   0.0000  -9.0588
   12   -0.0000   0.0000  -9.0588   0.0000  -0.0000  -9.0588  -0.0000  -0.0000
   13   -7.8941  -6.8232  -6.8232  -7.8941  -6.8232   6.8232  -7.8941   6.8232
   14   -6.8232  -7.8941  -6.8232  -6.8232  -7.8941   6.8232   6.8232  -7.8941
   15   -6.8232  -6.8232  -7.8941   6.8232   6.8232  -7.8941  -6.8232   6.8232
   16   -7.8941  -6.8232   6.8232  -7.8941  -6.8232  -6.8232  -7.8941   6.8232
   17   -6.8232  -7.8941   6.8232  -6.8232  -7.8941  -6.8232   6.8232  -7.8941
   18    6.8232   6.8232  -7.8941  -6.8232  -6.8232  -7.8941   6.8232  -6.8232
   19   -7.8941   6.8232  -6.8232  -7.8941   6.8232   6.8232  -7.8941  -6.8232
   20    6.8232  -7.8941   6.8232   6.8232  -7.8941  -6.8232  -6.8232  -7.8941
   21   -6.8232   6.8232  -7.8941   6.8232  -6.8232  -7.8941  -6.8232  -6.8232
   22   -7.8941   6.8232   6.8232  -7.8941   6.8232  -6.8232  -7.8941  -6.8232
   23    6.8232  -7.8941  -6.8232   6.8232  -7.8941   6.8232  -6.8232  -7.8941
   24    6.8232  -6.8232  -7.8941  -6.8232   6.8232  -7.8941   6.8232   6.8232

              9       10       11       12       13       14       15       16
    1    0.0000  -0.0000  -0.0000  -0.0000  -7.8941  -6.8232  -6.8232  -7.8941
    2   -0.0000  -0.0000  -9.0588   0.0000  -6.8232  -7.8941  -6.8232  -6.8232
    3   -9.0588  -0.0000   0.0000  -9.0588  -6.8232  -6.8232  -7.8941   6.8232
    4   -0.0000  -9.0588  -0.0000   0.0000  -7.8941  -6.8232   6.8232  -7.8941
    5    0.0000  -0.0000  -0.0000  -0.0000  -6.8232  -7.8941   6.8232  -6.8232
    6   -9.0588   0.0000  -0.0000  -9.0588   6.8232   6.8232  -7.8941  -6.8232
    7   -0.0000  -9.0588   0.0000  -0.0000  -7.8941   6.8232  -6.8232  -7.8941
    8    0.0000   0.0000  -9.0588  -0.0000   6.8232  -7.8941   6.8232   6.8232
    9   62.1173  -0.0000  -0.0000  -0.0000  -6.8232   6.8232  -7.8941   6.8232
   10   -0.0000  62.1173   0.0000   0.0000  -7.8941   6.8232   6.8232  -7.8941
   11   -0.0000   0.0000  62.1173  -0.0000   6.8232  -7.8941  -6.8232   6.8232
   12   -0.0000   0.0000  -0.0000  62.1173   6.8232  -6.8232  -7.8941  -6.8232
   13   -6.8232  -7.8941   6.8232   6.8232  44.2522   0.0000   0.0000  -1.9127
   14    6.8232   6.8232  -7.8941  -6.8232   0.0000  44.2522   0.0000   0.0000
   15   -7.8941   6.8232  -6.8232  -7.8941   0.0000   0.0000  44.2522  -0.0000
   16    6.8232  -7.8941   6.8232  -6.8232  -1.9127   0.0000  -0.0000  44.2522
   17   -6.8232   6.8232  -7.8941   6.8232   0.0000  -1.9127  -0.0000   0.0000
   18   -7.8941  -6.8232   6.8232  -7.8941  -0.0000  -0.0000  -0.0000  -0.0000
   19   -6.8232  -7.8941  -6.8232   6.8232  -1.9127  -0.0000   0.0000  -0.0000
   20   -6.8232  -6.8232  -7.8941   6.8232  -0.0000  -0.0000  -0.0000  -0.0000
   21   -7.8941   6.8232   6.8232  -7.8941   0.0000  -0.0000  -1.9127  -0.0000
   22    6.8232  -7.8941  -6.8232  -6.8232  -0.0000  -0.0000  -0.0000  -1.9127
   23    6.8232  -6.8232  -7.8941  -6.8232  -0.0000  -1.9127   0.0000  -0.0000
   24   -7.8941  -6.8232  -6.8232  -7.8941  -0.0000   0.0000  -1.9127   0.0000

             17       18       19       20       21       22       23       24
    1   -6.8232   6.8232  -7.8941   6.8232  -6.8232  -7.8941   6.8232   6.8232
    2   -7.8941   6.8232   6.8232  -7.8941   6.8232   6.8232  -7.8941  -6.8232
    3    6.8232  -7.8941  -6.8232   6.8232  -7.8941   6.8232  -6.8232  -7.8941
    4   -6.8232  -6.8232  -7.8941   6.8232   6.8232  -7.8941   6.8232  -6.8232
    5   -7.8941  -6.8232   6.8232  -7.8941  -6.8232   6.8232  -7.8941   6.8232
    6   -6.8232  -7.8941   6.8232  -6.8232  -7.8941  -6.8232   6.8232  -7.8941
    7    6.8232   6.8232  -7.8941  -6.8232  -6.8232  -7.8941  -6.8232   6.8232
    8   -7.8941  -6.8232  -6.8232  -7.8941  -6.8232  -6.8232  -7.8941   6.8232
    9   -6.8232  -7.8941  -6.8232  -6.8232  -7.8941   6.8232   6.8232  -7.8941
   10    6.8232  -6.8232  -7.8941  -6.8232   6.8232  -7.8941  -6.8232  -6.8232
   11   -7.8941   6.8232  -6.8232  -7.8941   6.8232  -6.8232  -7.8941  -6.8232
   12    6.8232  -7.8941   6.8232   6.8232  -7.8941  -6.8232  -6.8232  -7.8941
   13    0.0000  -0.0000  -1.9127  -0.0000   0.0000  -0.0000  -0.0000  -0.0000
   14   -1.9127  -0.0000  -0.0000  -0.0000  -0.0000  -0.0000  -1.9127   0.0000
   15   -0.0000  -0.0000   0.0000  -0.0000  -1.9127  -0.0000   0.0000  -1.9127
   16    0.0000  -0.0000  -0.0000  -0.0000  -0.0000  -1.9127  -0.0000   0.0000
   17   44.2522  -0.0000  -0.0000  -1.9127   0.0000  -0.0000  -0.0000  -0.0000
   18   -0.0000  44.2522  -0.0000   0.0000  -1.9127   0.0000  -0.0000  -1.9127
   19   -0.0000  -0.0000  44.2522  -0.0000   0.0000  -1.9127   0.0000  -0.0000
   20   -1.9127   0.0000  -0.0000  44.2522  -0.0000   0.0000  -1.9127  -0.0000
   21    0.0000  -1.9127   0.0000  -0.0000  44.2522  -0.0000  -0.0000  -0.0000
   22   -0.0000   0.0000  -1.9127   0.0000  -0.0000  44.2522  -0.0000  -0.0000
   23   -0.0000  -0.0000   0.0000  -1.9127  -0.0000  -0.0000  44.2522   0.0000
   24   -0.0000  -1.9127  -0.0000  -0.0000  -0.0000  -0.0000   0.0000  44.2522

             25       26       27       28       29       30       31       32
   25    2.2082   0.0000   0.0000   0.0000   0.0083   0.0000   0.0000   0.0000
   26    0.0000   1.0000   0.0000   0.0083   0.0000   0.0000   0.0000   0.0000
   27    0.0000   0.0000   1.0000   0.0000   0.0000   0.0000   0.0083   0.0000
   28    0.0000   0.0083   0.0000   1.0000   0.0000   0.0000   0.0000   0.0000
   29    0.0083   0.0000   0.0000   0.0000   2.2082   0.0000   0.0000   0.0000
   30    0.0000   0.0000   0.0000   0.0000   0.0000   1.0000   0.0000   0.0083
   31    0.0000   0.0000   0.0083   0.0000   0.0000   0.0000   1.0000   0.0000
   32    0.0000   0.0000   0.0000   0.0000   0.0000   0.0083   0.0000   1.0000
   33    0.0083   0.0000   0.0000   0.0000   0.0083   0.0000   0.0000   0.0000

             33      
   25    0.0083
   28    0.0000
   29    0.0083
   33    2.2082

          --------
          Step   0
          --------


                         Geometry "geometry" -> "geometry"
                         ---------------------------------

 Output coordinates in a.u. (scale by  1.000000000 to convert to a.u.)

  No.       Tag          Charge          X              Y              Z
 ---- ---------------- ---------- -------------- -------------- --------------
    1 Si                  14.0000     4.13850000     4.13850000     4.13850000
    2 Si                  14.0000     0.00000000     0.00000000     4.13850000
    3 Si                  14.0000     0.00000000     4.13850000     0.00000000
    4 Si                  14.0000     4.13850000     0.00000000     0.00000000
    5 C                    6.0000     6.20775000     6.20775000     6.20775000
    6 C                    6.0000     2.06925000     2.06925000     6.20775000
    7 C                    6.0000     2.06925000     6.20775000     2.06925000
    8 C                    6.0000     6.20775000     2.06925000     2.06925000

      Lattice Parameters 
      ------------------ 

      lattice vectors in a.u. (scale by  1.000000000 to convert to a.u.)

      a1=<   8.277   0.000   0.000 >
      a2=<   0.000   8.277   0.000 >
      a3=<   0.000   0.000   8.277 >
      a=       8.277 b=      8.277 c=       8.277
      alpha=  90.000 beta=  90.000 gamma=  90.000
      omega=   567.0

      reciprocal lattice vectors in a.u.

      b1=<   0.759   0.000  -0.000 >
      b2=<  -0.000   0.759  -0.000 >
      b3=<   0.000   0.000   0.759 >

      Atomic Mass 
      ----------- 

      Si                27.976930
      C                 12.000000


          ****************************************************
          *                                                  *
          *               NWPW PSPW Calculation              *
          *                                                  *
          *  [ (Grassman/Stiefel manifold implementation) ]  *
          *                                                  *
          *      [ NorthWest Chemistry implementation ]      *
          *                                                  *
          *            version #5.10   06/12/02              *
          *                                                  *
          *    This code was developed by Eric J. Bylaska,   *
          *    and was based upon algorithms and code        *
          *    developed by the group of Prof. John H. Weare *
          *                                                  *
          ****************************************************
     >>>  JOB STARTED       AT Fri May 17 10:59:13 2013  <<<
          ================ input data ========================

 input psi filename:./SiC.stress.movecs

 initializing pspw_APC data structure
 ------------------------------------
 nga, ngs:                    3                   24
 Gc      :   2.5000000000000000     
 APC gamma:                    1  0.59999999999999998     
 APC gamma:                    2  0.90000000000000002     
 APC gamma:                    3   1.3500000000000001     

 number of processors used:         1
 processor grid           :   1 x   1
 parallel mapping         :2d hilbert
 parallel mapping         :  balanced
 parallel io              :       off

 options:
      boundary conditions  = periodic    (version3)
      electron spin        = restricted
      exchange-correlation = LDA (Vosko et al) parameterization

 elements involved in the cluster:
      1: Si  valence charge:  4.0000  lmax=  2
             comment    : Hamann pseudopotential
             pseudpotential type            :   0
             highest angular component      :   2
             local potential used           :   2
             number of non-local projections:   4
             cutoff =   1.059   1.286   1.286

      2: C   valence charge:  4.0000  lmax=  2
             comment    : Parameterized (J.Phys.Chem., vol 100, page 6966) Hamman psp
             pseudpotential type            :   0
             highest angular component      :   2
             local potential used           :   2
             number of non-local projections:   4
             cutoff =   0.800   0.850   0.850


 total charge:   0.000

 atomic composition:
     Si  :    4     C   :    4

 number of electrons: spin up=    16 (  16 per task)  down=    16 (  16 per task) (fourier space)
 number of orbitals : spin up=    16 (  16 per task)  down=    16 (  16 per task) (fourier space)

 supercell:
      cell_name:  cell_default                                      
      lattice:    a1=<   8.277   0.000   0.000 >
                  a2=<   0.000   8.277   0.000 >
                  a3=<   0.000   0.000   8.277 >
      reciprocal: b1=<   0.759   0.000  -0.000 >
                  b2=<  -0.000   0.759  -0.000 >
                  b3=<   0.000   0.000   0.759 >
      lattice:    a=       8.277 b=      8.277 c=       8.277
                  alpha=  90.000 beta=  90.000 gamma=  90.000
                  omega=       567.0

      density cutoff= 18.440  fft= 16x 16x 16(     1052 waves     1052 per task)
      wavefnc cutoff= 18.440  fft= 16x 16x 16(     1052 waves     1052 per task)
      ewald summation: cut radius=    2.63  and  8
                        madelung= 1.76011888

 technical parameters:
      time step=      5.80     ficticious mass=  400000.0
      tolerance=.100E-08 (energy)   0.100E-08 (density)
      maximum iterations =      1000 (   10 inner    100 outer )





== Energy Calculation ==


          ============ Grassmann lmbfgs iteration ============
     >>>  ITERATION STARTED AT Fri May 17 10:59:13 2013  <<<
    iter.           Energy         DeltaE       DeltaRho 
    ------------------------------------------------------
      10   -0.3835361564E+02   -0.90803E-09    0.79073E-10
  *** tolerance ok. iteration terminated
     >>>  ITERATION ENDED   AT Fri May 17 10:59:14 2013  <<<


==  Summary Of Results  ==

 number of electrons: spin up=   16.00000  down=   16.00000 (real space)

 total     energy    :  -0.3835361564E+02 (   -0.47942E+01/ion)
 total orbital energy:   0.4621696315E+01 (    0.28886E+00/electron)
 hartree   energy    :   0.5074196718E+01 (    0.31714E+00/electron)
 exc-corr  energy    :  -0.1221471021E+02 (   -0.76342E+00/electron)
 ion-ion   energy    :  -0.4165217770E+02 (   -0.52065E+01/ion)

 kinetic (planewave) :   0.2392882918E+02 (    0.14956E+01/electron)
 V_local (planewave) :  -0.1609674239E+02 (   -0.10060E+01/electron)
 V_nl    (planewave) :   0.2606988765E+01 (    0.16294E+00/electron)
 V_Coul  (planewave) :   0.1014839344E+02 (    0.63427E+00/electron)
 V_xc.   (planewave) :  -0.1596577268E+02 (   -0.99786E+00/electron)
 Virial Coefficient  :  -0.8068565629E+00

 orbital energies:
     0.3523733E+00 (   9.589eV)
     0.3523733E+00 (   9.589eV)
     0.3523733E+00 (   9.589eV)
     0.2299270E+00 (   6.257eV)
     0.2299270E+00 (   6.257eV)
     0.2299269E+00 (   6.257eV)
     0.2299266E+00 (   6.257eV)
     0.2299265E+00 (   6.257eV)
     0.2299265E+00 (   6.257eV)
     0.5604661E-01 (   1.525eV)
     0.5604530E-01 (   1.525eV)
     0.5604472E-01 (   1.525eV)
    -0.2570619E-01 (  -0.700eV)
    -0.2570621E-01 (  -0.700eV)
    -0.2570623E-01 (  -0.700eV)
    -0.2168501E+00 (  -5.901eV)

 Total PSPW energy   :  -0.3835361564E+02


=== Spin Contamination ===

 <Sexact^2> =    0.0000000000000000     
 <S^2>      =    0.0000000000000000     



== Center of Charge ==

spin up     (    0.0000,   -0.0000,   -0.0000 )
spin down   (    0.0000,   -0.0000,   -0.0000 )
     total  (    0.0000,   -0.0000,   -0.0000 )
ionic       (    1.0346,    1.0346,    1.0346 )
crystal     (   -0.0000,   -0.0000,   -0.0000 )


== Crystal Dipole ==

mu   =  (   -0.0000,    0.0000,    0.0000 ) au
|mu| =     0.0000 au,       0.0000 Debye


== Molecular Dipole wrt Center of Mass ==

mu   =  (   33.1080,   33.1080,   33.1080 ) au
|mu| =    57.3447 au,     145.7474 Debye


Translation force removed: (   -0.00000   -0.00000    0.00000)


          =============  Ion Gradients =================
 Ion Forces:
        1 Si   (    0.00000    0.00000    0.00000 )
        2 Si   (   -0.00000   -0.00000   -0.00000 )
        3 Si   (    0.00000   -0.00000   -0.00000 )
        4 Si   (   -0.00000    0.00000    0.00000 )
        5 C    (   -0.00001   -0.00001    0.00000 )
        6 C    (   -0.00001    0.00001   -0.00002 )
        7 C    (    0.00001   -0.00001   -0.00000 )
        8 C    (    0.00000    0.00001    0.00002 )
        C.O.M. (   -0.00000    0.00000    0.00000 )
          ===============================================
          |F|       =   0.426908E-04
          |F|/nion  =   0.533635E-05
          max|Fatom|=   0.250177E-04 (   0.001eV/Angstrom)



 Outputing formatted_stress_filename: ./Si.vpp2

 Outputing formatted_stress_filename: ./C.vpp2


======================
= Stress calculation =
======================


          ============= total gradient ==============
      S =  (    0.02048   -0.00000    0.00000 )
           (   -0.00000    0.02048    0.00000 )
           (    0.00000    0.00000    0.02048 )
          ===================================================
          |S|      = 0.35465E-01
          pressure = 0.205E-01 au
                   = 0.602E+01 Mbar
                   = 0.602E+03 GPa
                   = 0.595E+07 atm


       dE/da     =     0.02048
       dE/db     =     0.02048
       dE/dc     =     0.02048
       dE/dalpha =    -0.00000
       dE/dbeta  =    -0.00000
       dE/dgamma =     0.00000




 *************************************************************
 **                                                         **
 **                  PSPW Mulliken analysis                 **
 **                                                         **
 ** Population analysis algorithm devloped by Ryoichi Kawai **
 **                                                         **
 **                   Fri May 17 10:59                      **
 **                                                         **
 *************************************************************


== XYZ OUTPUT ==


                    8

Si            2.189999      2.189999      2.189999
Si            0.000000      0.000000      2.189999
Si            0.000000      2.189999      0.000000
Si            2.189999      0.000000      0.000000
C            -1.095000     -1.095000     -1.095000
C             1.095000      1.095000     -1.095000
C             1.095000     -1.095000      1.095000
C            -1.095000      1.095000      1.095000


== Atomic Orbital Expansion ==

 Si   nodamping
 C    nodamping


 =====================================================
 | POPULATION ANALYSIS OF FILLED MOLECULAR ORBITALS  |
 =====================================================


== Using pseudoatomic orbital expansion          ==


------------------------------------------------------------------------------


*** ORBITAL=   1***  SPIN=BOTH    SUM= 0.70491E+00 E= 0.35237E+00 (   9.589eV)

NO  ATOM  L  POPULATION
                            s
 1   Si     0    0.00000   -0.00000
                            px         pz         py
 1   Si     1    0.01399   -0.08468    0.06553   -0.05026
                            s
 2   Si     0    0.00000   -0.00000
                            px         pz         py
 2   Si     1    0.01399   -0.08464    0.06553   -0.05030
                            s
 3   Si     0    0.00000    0.00000
                            px         pz         py
 3   Si     1    0.01400   -0.08464    0.06562   -0.05026
                            s
 4   Si     0    0.00000    0.00000
                            px         pz         py
 4   Si     1    0.01401   -0.08468    0.06561   -0.05030
                            s
 5   C      0    0.00000   -0.00001
                            px         pz         py
 5   C      1    0.23600    0.34765   -0.26928    0.20647
                            s
 6   C      0    0.00000   -0.00002
                            px         pz         py
 6   C      1    0.23601    0.34766   -0.26928    0.20647
                            s
 7   C      0    0.00000    0.00003
                            px         pz         py
 7   C      1    0.23600    0.34765   -0.26928    0.20647
                            s
 8   C      0    0.00000    0.00000
                            px         pz         py
 8   C      1    0.23601    0.34765   -0.26928    0.20647


=== DISTRIBUTION ===

     1(Si  )   0.0140     2(Si  )   0.0140     3(Si  )   0.0140     4(Si  )   0.0140
     5(C   )   0.2360     6(C   )   0.2360     7(C   )   0.2360     8(C   )   0.2360


== ANGULAR MOMENTUM POPULATIONS ===

      s         p         d         f
    0.0000    1.0000    0.0000    0.0000


------------------------------------------------------------------------------


*** ORBITAL=   2***  SPIN=BOTH    SUM= 0.70491E+00 E= 0.35237E+00 (   9.589eV)

NO  ATOM  L  POPULATION
                            s
 1   Si     0    0.00000   -0.00000
                            px         pz         py
 1   Si     1    0.01399    0.00199   -0.07036   -0.09504
                            s
 2   Si     0    0.00000    0.00000
                            px         pz         py
 2   Si     1    0.01400    0.00192   -0.07036   -0.09510
                            s
 3   Si     0    0.00000    0.00000
                            px         pz         py
 3   Si     1    0.01399    0.00192   -0.07039   -0.09504
                            s
 4   Si     0    0.00000   -0.00000
                            px         pz         py
 4   Si     1    0.01400    0.00199   -0.07039   -0.09510
                            s
 5   C      0    0.00000    0.00003
                            px         pz         py
 5   C      1    0.23600   -0.00803    0.28899    0.39042
                            s
 6   C      0    0.00000   -0.00002
                            px         pz         py
 6   C      1    0.23600   -0.00803    0.28899    0.39042
                            s
 7   C      0    0.00000   -0.00000
                            px         pz         py
 7   C      1    0.23600   -0.00803    0.28899    0.39042
                            s
 8   C      0    0.00000   -0.00001
                            px         pz         py
 8   C      1    0.23601   -0.00803    0.28899    0.39042


=== DISTRIBUTION ===

     1(Si  )   0.0140     2(Si  )   0.0140     3(Si  )   0.0140     4(Si  )   0.0140
     5(C   )   0.2360     6(C   )   0.2360     7(C   )   0.2360     8(C   )   0.2360


== ANGULAR MOMENTUM POPULATIONS ===

      s         p         d         f
    0.0000    1.0000    0.0000    0.0000


------------------------------------------------------------------------------


*** ORBITAL=   3***  SPIN=BOTH    SUM= 0.70491E+00 E= 0.35237E+00 (   9.589eV)

NO  ATOM  L  POPULATION
                            s
 1   Si     0    0.00000   -0.00000
                            px         pz         py
 1   Si     1    0.01399   -0.08258   -0.06888    0.04927
                            s
 2   Si     0    0.00000    0.00000
                            px         pz         py
 2   Si     1    0.01400   -0.08264   -0.06887    0.04929
                            s
 3   Si     0    0.00000   -0.00000
                            px         pz         py
 3   Si     1    0.01400   -0.08264   -0.06886    0.04926
                            s
 4   Si     0    0.00000    0.00000
                            px         pz         py
 4   Si     1    0.01399   -0.08258   -0.06886    0.04929
                            s
 5   C      0    0.00000    0.00000
                            px         pz         py
 5   C      1    0.23601    0.33923    0.28281   -0.20235
                            s
 6   C      0    0.00000   -0.00000
                            px         pz         py
 6   C      1    0.23600    0.33923    0.28281   -0.20236
                            s
 7   C      0    0.00000   -0.00001
                            px         pz         py
 7   C      1    0.23601    0.33923    0.28281   -0.20236
                            s
 8   C      0    0.00000    0.00001
                            px         pz         py
 8   C      1    0.23600    0.33923    0.28280   -0.20236


=== DISTRIBUTION ===

     1(Si  )   0.0140     2(Si  )   0.0140     3(Si  )   0.0140     4(Si  )   0.0140
     5(C   )   0.2360     6(C   )   0.2360     7(C   )   0.2360     8(C   )   0.2360


== ANGULAR MOMENTUM POPULATIONS ===

      s         p         d         f
    0.0000    1.0000    0.0000    0.0000


------------------------------------------------------------------------------


*** ORBITAL=   4***  SPIN=BOTH    SUM= 0.13416E+01 E= 0.22993E+00 (   6.257eV)

[...]
                            s
 5   C      0    0.01468    0.12115
                            px         pz         py
 5   C      1    0.00000    0.00001    0.00002   -0.00000
                            s
 6   C      0    0.22376   -0.47303
                            px         pz         py
 6   C      1    0.00000   -0.00002   -0.00004    0.00001
                            s
 7   C      0    0.01404    0.11848
                            px         pz         py
 7   C      1    0.00000    0.00002    0.00001    0.00000
                            s
 8   C      0    0.05448    0.23340
                            px         pz         py
 8   C      1    0.00000   -0.00003   -0.00005    0.00000


=== DISTRIBUTION ===

     1(Si  )   0.1733     2(Si  )   0.1733     3(Si  )   0.1733     4(Si  )   0.1733
     5(C   )   0.0147     6(C   )   0.2238     7(C   )   0.0140     8(C   )   0.0545


== ANGULAR MOMENTUM POPULATIONS ===

      s         p         d         f
    0.3069    0.6931    0.0000    0.0000


------------------------------------------------------------------------------


*** ORBITAL=  15***  SPIN=BOTH    SUM= 0.25576E+01 E=-0.12794E-01 (  -0.348eV)

NO  ATOM  L  POPULATION
                            s
 1   Si     0    0.00000    0.00000
                            px         pz         py
 1   Si     1    0.17326   -0.13572    0.11873    0.37516
                            s
 2   Si     0    0.00000   -0.00000
                            px         pz         py
 2   Si     1    0.17326    0.13572    0.11873   -0.37516
                            s
 3   Si     0    0.00000    0.00000
                            px         pz         py
 3   Si     1    0.17326    0.13572   -0.11873    0.37516
                            s
 4   Si     0    0.00000   -0.00000
                            px         pz         py
 4   Si     1    0.17326   -0.13572   -0.11872   -0.37516
                            s
 5   C      0    0.05682   -0.23836
                            px         pz         py
 5   C      1    0.00000    0.00001   -0.00000   -0.00000
                            s
 6   C      0    0.00645    0.08033
                            px         pz         py
 6   C      1    0.00000   -0.00002   -0.00003   -0.00000
                            s
 7   C      0    0.06811   -0.26098
                            px         pz         py
 7   C      1    0.00000    0.00001    0.00002   -0.00001
                            s
 8   C      0    0.17557    0.41901
                            px         pz         py
 8   C      1    0.00000   -0.00000   -0.00001   -0.00002


=== DISTRIBUTION ===

     1(Si  )   0.1733     2(Si  )   0.1733     3(Si  )   0.1733     4(Si  )   0.1733
     5(C   )   0.0568     6(C   )   0.0065     7(C   )   0.0681     8(C   )   0.1756


== ANGULAR MOMENTUM POPULATIONS ===

      s         p         d         f
    0.3069    0.6931    0.0000    0.0000


------------------------------------------------------------------------------


*** ORBITAL=  16***  SPIN=BOTH    SUM= 0.35590E+01 E=-0.21058E+00 (  -5.730eV)

NO  ATOM  L  POPULATION
                            s
 1   Si     0    0.15189   -0.38973
                            px         pz         py
 1   Si     1    0.00000    0.00000    0.00000    0.00000
                            s
 2   Si     0    0.15189   -0.38973
                            px         pz         py
 2   Si     1    0.00000   -0.00000   -0.00000   -0.00001
                            s
 3   Si     0    0.15189   -0.38973
                            px         pz         py
 3   Si     1    0.00000    0.00000    0.00000   -0.00000
                            s
 4   Si     0    0.15189   -0.38973
                            px         pz         py
 4   Si     1    0.00000   -0.00000    0.00000    0.00001
                            s
 5   C      0    0.09811   -0.31323
                            px         pz         py
 5   C      1    0.00000   -0.00000    0.00000   -0.00000
                            s
 6   C      0    0.09811   -0.31323
                            px         pz         py
 6   C      1    0.00000   -0.00000   -0.00000    0.00000
                            s
 7   C      0    0.09811   -0.31323
                            px         pz         py
 7   C      1    0.00000    0.00000   -0.00000   -0.00000
                            s
 8   C      0    0.09811   -0.31323
                            px         pz         py
 8   C      1    0.00000    0.00000    0.00000    0.00000


=== DISTRIBUTION ===

     1(Si  )   0.1519     2(Si  )   0.1519     3(Si  )   0.1519     4(Si  )   0.1519
     5(C   )   0.0981     6(C   )   0.0981     7(C   )   0.0981     8(C   )   0.0981


== ANGULAR MOMENTUM POPULATIONS ===

      s         p         d         f
    1.0000    0.0000    0.0000    0.0000


 ========================================
 |   POPULATION ANALYSIS ON EACH ATOM   |
 ========================================


NO  ATOM  SPIN    TOTAL       s          p          d          f
 1   Si     UP      1.51136    0.34534    1.16602
 1   Si     DOWN    1.51136    0.34534    1.16602
 2   Si     UP      1.51134    0.34534    1.16601
 2   Si     DOWN    1.51134    0.34534    1.16601
 3   Si     UP      1.51134    0.34534    1.16601
 3   Si     DOWN    1.51134    0.34534    1.16601
 4   Si     UP      1.51134    0.34533    1.16600
 4   Si     DOWN    1.51134    0.34533    1.16600
 5   C      UP      2.48866    0.32832    2.16033
 5   C      DOWN    2.48866    0.32832    2.16033
 6   C      UP      2.48866    0.32832    2.16033
 6   C      DOWN    2.48866    0.32832    2.16033
 7   C      UP      2.48866    0.32832    2.16033
 7   C      DOWN    2.48866    0.32832    2.16033
 8   C      UP      2.48866    0.32832    2.16033
 8   C      DOWN    2.48866    0.32832    2.16033



=== TOTAL ANGULAR MOMENTUM POPULATION ===

 SPIN       s           p           d           f
  UP       16.84%      83.16%       0.00%       0.00% 
  UP       16.84%      83.16%       0.00%       0.00% 
 TOTAL     16.84%      83.16%       0.00%       0.00% 

 *************************************************************
 **                                                         **
 **          PSPW Atomic Point Charge (APC) Analysis        **
 **                                                         **
 **   Point charge analysis based on paper by P.E. Blochl   **
 **         (J. Chem. Phys. vol 103, page 7422, 1995)       **
 **                                                         **
 *************************************************************

 pspw_APC data structure
 -----------------------
 nga, ngs:                    3                   24
 Gc      :   2.5000000000000000     
 APC gamma:                    1  0.59999999999999998     
 APC gamma:                    2  0.90000000000000002     
 APC gamma:                    3   1.3500000000000001     

 charge analysis on each atom
 ----------------------------

    no  atom        Qelc        Qion      Qtotal
    --  ----     -------     -------     -------
     1  Si        -3.030       4.000       0.970
     2  Si        -3.030       4.000       0.970
     3  Si        -3.030       4.000       0.970
     4  Si        -3.030       4.000       0.970
     5  C         -4.969       4.000      -0.969
     6  C         -4.970       4.000      -0.970
     7  C         -4.970       4.000      -0.970
     8  C         -4.970       4.000      -0.970
     Total Q     -32.000      32.000       0.000


 gaussian coefficients of model density
 --------------------------------------

    no  atom     g=0.000     g=0.600     g=0.900     g=1.350
    --  ----     -------     -------     -------     -------
     1  Si         4.000      -4.717      10.668      -8.981
     2  Si         4.000      -4.720      10.675      -8.985
     3  Si         4.000      -4.720      10.675      -8.985
     4  Si         4.000      -4.724      10.681      -8.988
     5  C          4.000       2.448      -3.677      -3.741
     6  C          4.000       2.441      -3.663      -3.748
     7  C          4.000       2.440      -3.663      -3.747
     8  C          4.000       2.440      -3.663      -3.747


=== Electric Field at Atoms ===

      1 Si   Atomic Electric Field =(    0.00000    0.00000    0.00000 )
                    (ion)          =(   -0.00000   -0.00001   -0.00001 )
                    (electronic)   =(    0.00000    0.00001    0.00001 )
      2 Si   Atomic Electric Field =(   -0.00000   -0.00002   -0.00000 )
                    (ion)          =(    0.00000    0.00006    0.00001 )
                    (electronic)   =(   -0.00000   -0.00008   -0.00001 )
      3 Si   Atomic Electric Field =(    0.00000   -0.00000   -0.00000 )
                    (ion)          =(   -0.00000    0.00001   -0.00000 )
                    (electronic)   =(    0.00000   -0.00002    0.00000 )
      4 Si   Atomic Electric Field =(   -0.00000    0.00002    0.00000 )
                    (ion)          =(    0.00000   -0.00006   -0.00000 )
                    (electronic)   =(   -0.00000    0.00008    0.00000 )
      5 C    Atomic Electric Field =(    0.00001    0.00003    0.00001 )
                    (ion)          =(    0.00000   -0.00001   -0.00002 )
                    (electronic)   =(    0.00001    0.00005    0.00003 )
      6 C    Atomic Electric Field =(   -0.00000   -0.00002    0.00003 )
                    (ion)          =(    0.00001    0.00001    0.00000 )
                    (electronic)   =(   -0.00001   -0.00004    0.00003 )
      7 C    Atomic Electric Field =(   -0.00002    0.00003   -0.00002 )
                    (ion)          =(   -0.00000   -0.00001    0.00002 )
                    (electronic)   =(   -0.00001    0.00005   -0.00003 )
      8 C    Atomic Electric Field =(    0.00000   -0.00003   -0.00003 )
                    (ion)          =(   -0.00001    0.00001    0.00000 )
                    (electronic)   =(    0.00001   -0.00004   -0.00003 )

 output psi filename:./SiC.stress.movecs


== Timing ==

cputime in seconds
  prologue    :   0.482472E+00
  main loop   :   0.186704E+01
  epilogue    :   0.666578E+00
  total       :   0.301608E+01
  cputime/step:   0.239363E-01       (      78 evalulations,      34 linesearches)


Time spent doing                        total          step       percent
  total time                 :   0.301688E+01  0.386779E-01       100.0 %
  i/o time                   :   0.775284E+00  0.993954E-02        25.7 %
  FFTs                       :   0.249171E-01  0.319450E-03         0.8 %
  dot products               :   0.101860E+00  0.130590E-02         3.4 %
  geodesic                   :   0.185570E+00  0.237910E-02         6.2 %
  ffm_dgemm                  :   0.207435E-01  0.265942E-03         0.7 %
  fmf_dgemm                  :   0.143262E+00  0.183670E-02         4.7 %
  m_diagonalize              :   0.350758E-02  0.449690E-04         0.1 %
  exchange correlation       :   0.592172E-01  0.759195E-03         2.0 %
  local pseudopotentials     :   0.747919E-03  0.958871E-05         0.0 %
  non-local pseudopotentials :   0.177252E+00  0.227247E-02         5.9 %
  hartree potentials         :   0.217001E-02  0.278207E-04         0.1 %
  ion-ion interaction        :   0.337888E+00  0.433189E-02        11.2 %
  structure factors          :   0.285179E-01  0.365614E-03         0.9 %
  phase factors              :   0.183572E-04  0.235349E-06         0.0 %
  masking and packing        :   0.418750E-01  0.536859E-03         1.4 %
  queue fft                  :   0.240834E+00  0.308761E-02         8.0 %
  queue fft (serial)         :   0.165309E+00  0.211935E-02         5.5 %
  queue fft (message passing):   0.677848E-01  0.869036E-03         2.2 %

     >>>  JOB COMPLETED     AT Fri May 17 10:59:39 2013  <<<

  Step       Energy      Delta E   Gmax     Grms     Xrms     Xmax   Walltime
  ---- ---------------- -------- -------- -------- -------- -------- --------
@    6     -38.35684232 -1.3D-06  0.00036  0.00015  0.00052  0.00172     31.8
                                     ok       ok       ok       ok  


      ----------------------
      Optimization converged
      ----------------------


  Step       Energy      Delta E   Gmax     Grms     Xrms     Xmax   Walltime
  ---- ---------------- -------- -------- -------- -------- -------- --------
@    6     -38.35684232 -1.3D-06  0.00036  0.00015  0.00052  0.00172     31.8
                                     ok       ok       ok       ok  



                         Geometry "geometry" -> "geometry"
                         ---------------------------------

 Output coordinates in a.u. (scale by  1.000000000 to convert to a.u.)

  No.       Tag          Charge          X              Y              Z
 ---- ---------------- ---------- -------------- -------------- --------------
    1 Si                  14.0000     4.08692171     4.08688885     4.08688532
    2 Si                  14.0000     0.00001595     0.00025573     4.08695149
    3 Si                  14.0000     8.17383619     4.08697813     8.17384638
    4 Si                  14.0000     4.08693001     8.17361188     8.17383997
    5 C                    6.0000     6.13051718     6.13042227     6.13018652
    6 C                    6.0000     2.04361435     2.04348039     6.13061026
    7 C                    6.0000     2.04329566     6.13045849     2.04361218
    8 C                    6.0000     6.13028218     2.04341629     2.04323832

      Lattice Parameters 
      ------------------ 

      lattice vectors in a.u. (scale by  1.000000000 to convert to a.u.)

      a1=<   8.174  -0.000   0.000 >
      a2=<  -0.000   8.174   0.000 >
      a3=<   0.000   0.000   8.174 >
      a=       8.174 b=      8.174 c=       8.174
      alpha=  90.000 beta=  90.000 gamma=  90.000
      omega=   546.1

      reciprocal lattice vectors in a.u.

      b1=<   0.769   0.000  -0.000 >
      b2=<   0.000   0.769  -0.000 >
      b3=<  -0.000  -0.000   0.769 >

      Atomic Mass 
      ----------- 

      Si                27.976930
      C                 12.000000


 ==============================================================================
                                internuclear distances
 ------------------------------------------------------------------------------
       center one      |      center two      | atomic units |       a.u.
 ------------------------------------------------------------------------------
    5 C                |   1 Si               |     3.53941  |     3.53941
    5 C                |   3 Si               |     3.53940  |     3.53940
    5 C                |   4 Si               |     3.53941  |     3.53941
    6 C                |   1 Si               |     3.53941  |     3.53941
    6 C                |   2 Si               |     3.53944  |     3.53944
    7 C                |   1 Si               |     3.53943  |     3.53943
    8 C                |   1 Si               |     3.53943  |     3.53943
 ------------------------------------------------------------------------------
                         number of included internuclear distances:          7
 ==============================================================================



 ==============================================================================
                                 internuclear angles
 ------------------------------------------------------------------------------
        center 1       |       center 2       |       center 3       |  degrees
 ------------------------------------------------------------------------------
    5 C                |   1 Si               |   6 C                |   109.47
    5 C                |   1 Si               |   7 C                |   109.47
    5 C                |   1 Si               |   8 C                |   109.47
    6 C                |   1 Si               |   7 C                |   109.47
    6 C                |   1 Si               |   8 C                |   109.47
    7 C                |   1 Si               |   8 C                |   109.47
    1 Si               |   5 C                |   3 Si               |   109.47
    1 Si               |   5 C                |   4 Si               |   109.47
    3 Si               |   5 C                |   4 Si               |   109.46
    1 Si               |   6 C                |   2 Si               |   109.46
 ------------------------------------------------------------------------------
                            number of included internuclear angles:         10
 ==============================================================================




 Task  times  cpu:       21.2s     wall:       26.0s
 Summary of allocated global arrays
-----------------------------------
  No active global arrays



                         GA Statistics for process    0
                         ------------------------------

       create   destroy   get      put      acc     scatter   gather  read&inc
calls:    8        8      376       20        0        0        0        0     
number of processes/call 1.00e+00 1.00e+00 0.00e+00 0.00e+00 0.00e+00
bytes total:             4.14e+05 1.64e+05 0.00e+00 0.00e+00 0.00e+00 0.00e+00
bytes remote:            0.00e+00 0.00e+00 0.00e+00 0.00e+00 0.00e+00 0.00e+00
Max memory consumed for GA by this process: 65536 bytes
MA_summarize_allocated_blocks: starting scan ...
MA_summarize_allocated_blocks: scan completed: 0 heap blocks, 0 stack blocks
MA usage statistics:

	allocation statistics:
					      heap	     stack
					      ----	     -----
	current number of blocks	         0	         0
	maximum number of blocks	       298	        17
	current total bytes		         0	         0
	maximum total bytes		   7627112	    800096
	maximum total K-bytes		      7628	       801
	maximum total M-bytes		         8	         1


                                NWChem Input Module
                                -------------------





                                     CITATION
                                     --------
                Please cite the following reference when publishing
                           results obtained with NWChem:

                 M. Valiev, E.J. Bylaska, N. Govind, K. Kowalski,
              T.P. Straatsma, H.J.J. van Dam, D. Wang, J. Nieplocha,
                        E. Apra, T.L. Windus, W.A. de Jong
                 "NWChem: a comprehensive and scalable open-source
                  solution for large scale molecular simulations"
                      Comput. Phys. Commun. 181, 1477 (2010)
                           doi:10.1016/j.cpc.2010.04.018

                              AUTHORS & CONTRIBUTORS
                              ----------------------
          E. Apra, E. J. Bylaska, W. A. de Jong, N. Govind, K. Kowalski,
       T. P. Straatsma, M. Valiev, H. J. J. van Dam, D. Wang, T. L. Windus,
        J. Hammond, J. Autschbach, K. Bhaskaran-Nair, J. Brabec, K. Lopata,
     F. Aquino, S. Hirata, M. T. Hackler, J. Mullin, P. Nichols, R. Peverati,
    J. Pittner, Y. Zhao, P.-D. Fan, R. J. Harrison, M. Dupuis, D. Silverstein,
    D. M. A. Smith, J. Nieplocha, V. Tipparaju, M. Krishnan, B. E. Van Kuiken,
        A. Vazquez-Mayagoitia, L. Jensen, M. Swart, Q. Wu, T. Van Voorhis,
     A. A. Auer, M. Nooijen, L. D. Crosby, E. Brown, G. Cisneros, G. I. Fann,
     H. Fruchtl, J. Garza, K. Hirao, R. Kendall, J. A. Nichols, K. Tsemekhman,
      K. Wolinski, J. Anchell, D. Bernholdt, P. Borowski, T. Clark, D. Clerc,
      H. Dachsel, M. Deegan, K. Dyall, D. Elwood, E. Glendening, M. Gutowski,
      A. Hess, J. Jaffe, B. Johnson, J. Ju, R. Kobayashi, R. Kutteh, Z. Lin,
   R. Littlefield, X. Long, B. Meng, T. Nakajima, S. Niu, L. Pollack, M. Rosing,
   K. Glaesemann, G. Sandrone, M. Stave, H. Taylor, G. Thomas, J. H. van Lenthe,
                                A. Wong, Z. Zhang.

 Total times  cpu:       26.3s     wall:       31.8s
