 argument  1 = metagga_li4h4_0_vs98_0.nw
All connections between all procs tested: SUCCESS
 


============================== echo of input deck ==============================
echo
start metagga_dat
geometry noautosym
   li           -0.86951255    -0.86951258    -0.86951257
   h            -0.94323913    -0.94323915     0.94323910
   h            -0.94323915     0.94323911    -0.94323918
   h             0.94323909    -0.94323917    -0.94323918
   li            0.86951263     0.86951263    -0.86951264
   li            0.86951266    -0.86951265     0.86951266
   li           -0.86951267     0.86951268     0.86951268
   h             0.94323913     0.94323913     0.94323914
end

basis
  * library "6-311++G(2d,2p)"
end

dft
  direct
  xc xvs98
  maxiter 1000
end

driver
  clear
  maxiter 100
end

task dft optimize
task dft frequencies numerical
================================================================================


                                         
                                         
 
 
              Northwest Computational Chemistry Package (NWChem) 6.5
              ------------------------------------------------------
 
 
                    Environmental Molecular Sciences Laboratory
                       Pacific Northwest National Laboratory
                                Richland, WA 99352
 
                              Copyright (c) 1994-2013
                       Pacific Northwest National Laboratory
                            Battelle Memorial Institute
 
             NWChem is an open-source computational chemistry package
                        distributed under the terms of the
                      Educational Community License (ECL) 2.0
             A copy of the license is included with this distribution
                              in the LICENSE.TXT file
 
                                  ACKNOWLEDGMENT
                                  --------------

            This software and its documentation were developed at the
            EMSL at Pacific Northwest National Laboratory, a multiprogram
            national laboratory, operated for the U.S. Department of Energy
            by Battelle under Contract Number DE-AC05-76RL01830. Support
            for this work was provided by the Department of Energy Office
            of Biological and Environmental Research, Office of Basic
            Energy Sciences, and the Office of Advanced Scientific Computing.


           Job information
           ---------------

    hostname        = arcen
    program         = /home/d3y133/nwchem-dev/nwchem-dev-2015-01-16/bin/LINUX64/nwchem
    date            = Tue Feb  3 01:14:35 2015

    compiled        = Mon_Feb_02_10:11:44_2015
    source          = /home/d3y133/nwchem-dev/nwchem-dev-2015-01-16
    nwchem branch   = Development
    nwchem revision = 26704
    ga revision     = 10514
    input           = metagga_li4h4_0_vs98_0.nw
    prefix          = metagga_dat.
    data base       = /home/d3y133/nwchem-dev/nwchem-trunk-nonwad/QA/scratchdir/metagga_dat.db
    status          = startup
    nproc           =        4
    time left       =     -1s



           Memory information
           ------------------

    heap     =   13107196 doubles =    100.0 Mbytes
    stack    =   13107201 doubles =    100.0 Mbytes
    global   =   26214400 doubles =    200.0 Mbytes (distinct from heap & stack)
    total    =   52428797 doubles =    400.0 Mbytes
    verify   = yes
    hardfail = no 


           Directory information
           ---------------------
 
  0 permanent = /home/d3y133/nwchem-dev/nwchem-trunk-nonwad/QA/scratchdir
  0 scratch   = /home/d3y133/nwchem-dev/nwchem-trunk-nonwad/QA/scratchdir
 
 
 
 
                                NWChem Input Module
                                -------------------
 
 

 Scaling coordinates for geometry "geometry" by  1.889725989
 (inverse scale =  0.529177249)


          ------
          auto-z
          ------
  autoz: excessive number of variables                    312
                    18

 AUTOZ failed to generate good internal coordinates.
 Cartesian coordinates will be used in optimizations.

 
 
                             Geometry "geometry" -> ""
                             -------------------------
 
 Output coordinates in angstroms (scale by  1.889725989 to convert to a.u.)
 
  No.       Tag          Charge          X              Y              Z
 ---- ---------------- ---------- -------------- -------------- --------------
    1 li                   3.0000    -0.86951256    -0.86951259    -0.86951259
    2 h                    1.0000    -0.94323914    -0.94323916     0.94323908
    3 h                    1.0000    -0.94323916     0.94323910    -0.94323920
    4 h                    1.0000     0.94323908    -0.94323918    -0.94323920
    5 li                   3.0000     0.86951262     0.86951262    -0.86951266
    6 li                   3.0000     0.86951265    -0.86951266     0.86951264
    7 li                   3.0000    -0.86951268     0.86951267     0.86951266
    8 h                    1.0000     0.94323912     0.94323912     0.94323912
 
      Atomic Mass 
      ----------- 
 
      li                 7.016000
      h                  1.007825
 

 Effective nuclear repulsion energy (a.u.)      25.3234783205

            Nuclear Dipole moment (a.u.) 
            ----------------------------
        X                 Y               Z
 ---------------- ---------------- ----------------
    -0.0000000000    -0.0000000000     0.0000000000
 
 
            XYZ format geometry
            -------------------
     8
 geometry
 li                   -0.86951256    -0.86951259    -0.86951259
 h                    -0.94323914    -0.94323916     0.94323908
 h                    -0.94323916     0.94323910    -0.94323920
 h                     0.94323908    -0.94323918    -0.94323920
 li                    0.86951262     0.86951262    -0.86951266
 li                    0.86951265    -0.86951266     0.86951264
 li                   -0.86951268     0.86951267     0.86951266
 h                     0.94323912     0.94323912     0.94323912
 
 ==============================================================================
                                internuclear distances
 ------------------------------------------------------------------------------
       center one      |      center two      | atomic units |  angstroms
 ------------------------------------------------------------------------------
    5 li               |   1 li               |     4.64750  |     2.45935
    6 li               |   1 li               |     4.64750  |     2.45935
    6 li               |   5 li               |     4.64750  |     2.45935
    7 li               |   1 li               |     4.64750  |     2.45935
    7 li               |   5 li               |     4.64750  |     2.45935
    7 li               |   6 li               |     4.64750  |     2.45935
 ------------------------------------------------------------------------------
                         number of included internuclear distances:          6
 ==============================================================================



 ==============================================================================
                                 internuclear angles
 ------------------------------------------------------------------------------
        center 1       |       center 2       |       center 3       |  degrees
 ------------------------------------------------------------------------------
    5 li               |   1 li               |   6 li               |    60.00
    5 li               |   1 li               |   7 li               |    60.00
    6 li               |   1 li               |   7 li               |    60.00
    5 li               |   1 li               |   6 li               |    60.00
    5 li               |   1 li               |   7 li               |    60.00
    6 li               |   5 li               |   7 li               |    60.00
    6 li               |   1 li               |   5 li               |    60.00
    6 li               |   1 li               |   7 li               |    60.00
    6 li               |   5 li               |   7 li               |    60.00
    7 li               |   1 li               |   5 li               |    60.00
    7 li               |   1 li               |   6 li               |    60.00
    7 li               |   5 li               |   6 li               |    60.00
 ------------------------------------------------------------------------------
                            number of included internuclear angles:         12
 ==============================================================================



  library name resolved from: environment
  library file name is: <
 /home/d3y133/nwchem-dev/nwchem-trunk-nonwad/QA/../src/basis/libraries/>
  


 Summary of "ao basis" -> "" (cartesian)
 ------------------------------------------------------------------------------
       Tag                 Description            Shells   Functions and Types
 ---------------- ------------------------------  ------  ---------------------
 *                      6-311++G(2d,2p)               on all atoms 


 
  Deleted DRIVER restart files 
 
 
 
                           NWChem Geometry Optimization
                           ----------------------------
 
 
 maximum gradient threshold         (gmax) =   0.000450
 rms gradient threshold             (grms) =   0.000300
 maximum cartesian step threshold   (xmax) =   0.001800
 rms cartesian step threshold       (xrms) =   0.001200
 fixed trust radius                (trust) =   0.300000
 maximum step size to saddle      (sadstp) =   0.100000
 energy precision                  (eprec) =   5.0D-06
 maximum number of steps          (nptopt) =  100
 initial hessian option           (inhess) =    0
 line search option               (linopt) =    1
 hessian update option            (modupd) =    1
 saddle point option              (modsad) =    0
 initial eigen-mode to follow     (moddir) =    0
 initial variable to follow       (vardir) =    0
 follow first negative mode     (firstneg) =    T
 apply conjugacy                    (opcg) =    F
 source of zmatrix                         =           


          -------------------
          Energy Minimization
          -------------------

 
 Using diagonal initial Hessian 

          --------
          Step   0
          --------
 
 
                         Geometry "geometry" -> "geometry"
                         ---------------------------------
 
 Output coordinates in angstroms (scale by  1.889725989 to convert to a.u.)
 
  No.       Tag          Charge          X              Y              Z
 ---- ---------------- ---------- -------------- -------------- --------------
    1 li                   3.0000    -0.86951256    -0.86951259    -0.86951259
    2 h                    1.0000    -0.94323914    -0.94323916     0.94323908
    3 h                    1.0000    -0.94323916     0.94323910    -0.94323920
    4 h                    1.0000     0.94323908    -0.94323918    -0.94323920
    5 li                   3.0000     0.86951262     0.86951262    -0.86951266
    6 li                   3.0000     0.86951265    -0.86951266     0.86951264
    7 li                   3.0000    -0.86951268     0.86951267     0.86951266
    8 h                    1.0000     0.94323912     0.94323912     0.94323912
 
      Atomic Mass 
      ----------- 
 
      li                 7.016000
      h                  1.007825
 

 Effective nuclear repulsion energy (a.u.)      25.3234783205

            Nuclear Dipole moment (a.u.) 
            ----------------------------
        X                 Y               Z
 ---------------- ---------------- ----------------
    -0.0000000000    -0.0000000000     0.0000000000
 
 
                                 NWChem DFT Module
                                 -----------------
 
 
                      Basis "ao basis" -> "ao basis" (cartesian)
                      -----
  li (Lithium)
  ------------
            Exponent  Coefficients 
       -------------- ---------------------------------------------------------
  1 S  9.00460000E+02  0.002287
  1 S  1.34433000E+02  0.017635
  1 S  3.04365000E+01  0.087343
  1 S  8.62639000E+00  0.280977
  1 S  2.48332000E+00  0.658741
  1 S  3.03179000E-01  0.118712
 
  2 S  4.86890000E+00  0.093329
  2 S  8.56924000E-01  0.943045
  2 S  2.43227000E-01 -0.002798
 
  3 P  4.86890000E+00  0.032766
  3 P  8.56924000E-01  0.159792
  3 P  2.43227000E-01  0.885667
 
  4 S  6.35070000E-02  1.000000
 
  5 P  6.35070000E-02  1.000000
 
  6 S  2.43683000E-02  1.000000
 
  7 P  2.43683000E-02  1.000000
 
  8 S  7.40000000E-03  1.000000
 
  9 P  7.40000000E-03  1.000000
 
 10 D  4.00000000E-01  1.000000
 
 11 D  1.00000000E-01  1.000000
 
  h (Hydrogen)
  ------------
            Exponent  Coefficients 
       -------------- ---------------------------------------------------------
  1 S  3.38650000E+01  0.025494
  1 S  5.09479000E+00  0.190373
  1 S  1.15879000E+00  0.852161
 
  2 S  3.25840000E-01  1.000000
 
  3 S  1.02741000E-01  1.000000
 
  4 S  3.60000000E-02  1.000000
 
  5 P  1.50000000E+00  1.000000
 
  6 P  3.75000000E-01  1.000000
 


 Summary of "ao basis" -> "ao basis" (cartesian)
 ------------------------------------------------------------------------------
       Tag                 Description            Shells   Functions and Types
 ---------------- ------------------------------  ------  ---------------------
 li                     6-311++G(2d,2p)             11       29   5s4p2d
 h                      6-311++G(2d,2p)              6       10   4s2p




 Summary of "ao basis" -> "ao basis" (cartesian)
 ------------------------------------------------------------------------------
       Tag                 Description            Shells   Functions and Types
 ---------------- ------------------------------  ------  ---------------------
 li                     6-311++G(2d,2p)             11       29   5s4p2d
 h                      6-311++G(2d,2p)              6       10   4s2p


  Caching 1-el integrals 
 
            General Information
            -------------------
          SCF calculation type: DFT
          Wavefunction type:  closed shell.
          No. of atoms     :     8
          No. of electrons :    16
           Alpha electrons :     8
            Beta electrons :     8
          Charge           :     0
          Spin multiplicity:     1
          Use of symmetry is: off; symmetry adaption is: off
          Maximum number of iterations: ***
          This is a Direct SCF calculation.
          AO basis - number of functions:   156
                     number of shells:    68
          Convergence on energy requested: 1.00D-06
          Convergence on density requested: 1.00D-05
          Convergence on gradient requested: 5.00D-04
 
              XC Information
              --------------
                          VS98 Exchange Functional  1.000          
 
             Grid Information
             ----------------
          Grid used for XC integration:  medium    
          Radial quadrature: Mura-Knowles        
          Angular quadrature: Lebedev. 
          Tag              B.-S. Rad. Rad. Pts. Rad. Cut. Ang. Pts.
          ---              ---------- --------- --------- ---------
          li                  1.45       49          22.0       434
          h                   0.35       45          17.0       434
          Grid pruning is: on 
          Number of quadrature shells:   376
          Spatial weights used:  Erf1
 
          Convergence Information
          -----------------------
          Convergence aids based upon iterative change in 
          total energy or number of iterations. 
          Levelshifting, if invoked, occurs when the 
          HOMO/LUMO gap drops below (HL_TOL): 1.00D-02
          DIIS, if invoked, will attempt to extrapolate 
          using up to (NFOCK): 10 stored Fock matrices.

                    Damping( 0%)  Levelshifting(0.5)       DIIS
                  --------------- ------------------- ---------------
          dE  on:    start            ASAP                start   
          dE off:    2 iters        *** iters           *** iters 

 
      Screening Tolerance Information
      -------------------------------
          Density screening/tol_rho: 1.00D-10
          AO Gaussian exp screening on grid/accAOfunc:  14
          CD Gaussian exp screening on grid/accCDfunc:  20
          XC Gaussian exp screening on grid/accXCfunc:  20
          Schwarz screening/accCoul: 1.00D-08

 
      Superposition of Atomic Density Guess
      -------------------------------------
 
 Sum of atomic energies:         -31.72729480
 
      Non-variational initial energy
      ------------------------------

 Total energy =     -31.934051
 1-e energy   =     -90.491177
 2-e energy   =      33.233648
 HOMO         =      -0.380570
 LUMO         =      -0.044914
 
   Time after variat. SCF:      0.7
   Time prior to 1st pass:      0.7

 Grid_pts file          = /home/d3y133/nwchem-dev/nwchem-trunk-nonwad/QA/scratchdir/metagga_dat.gridpts.0
 Record size in doubles =  12289        No. of grid_pts per rec  =   3070
 Max. records in memory =     16        Max. recs in file   = 253312716

 Grid integrated density:      16.000129732099
 Requested integration accuracy:   0.10E-05

           Memory utilization after 1st SCF pass: 
           Heap Space remaining (MW):       12.88            12882468
          Stack Space remaining (MW):       13.11            13106180

   convergence    iter        energy       DeltaE   RMS-Dens  Diis-err    time
 ---------------- ----- ----------------- --------- --------- ---------  ------
 d= 0,ls=0.0,diis     1    -32.0793618295 -5.74D+01  2.01D-02  2.76D-01     4.3
 Grid integrated density:      16.000108751380
 Requested integration accuracy:   0.10E-05
 d= 0,ls=0.0,diis     2    -32.1150481278 -3.57D-02  5.80D-03  1.54D-02     7.5
 Grid integrated density:      16.000125286448
 Requested integration accuracy:   0.10E-05
 d= 0,ls=0.0,diis     3    -32.1180771500 -3.03D-03  8.17D-03  5.16D-03    10.6
 Grid integrated density:      16.000119118681
 Requested integration accuracy:   0.10E-05
 d= 0,ls=0.0,diis     4    -32.1195981827 -1.52D-03  9.96D-04  2.06D-06    13.9
 Grid integrated density:      16.000119333014
 Requested integration accuracy:   0.10E-05
 d= 0,ls=0.0,diis     5    -32.1195986635 -4.81D-07  5.96D-05  3.19D-08    17.1
 Grid integrated density:      16.000119320919
 Requested integration accuracy:   0.10E-05
 d= 0,ls=0.0,diis     6    -32.1195986733 -9.86D-09  4.93D-06  4.82D-09    20.4


         Total DFT energy =      -32.119598673317
      One electron energy =      -92.883010049147
           Coulomb energy =       44.142872853454
    Exchange-Corr. energy =       -8.702939798110
 Nuclear repulsion energy =       25.323478320486

 Numeric. integr. density =       16.000119320919

     Total iterative time =     19.6s


 
                       DFT Final Molecular Orbital Analysis
                       ------------------------------------
 
 Vector    1  Occ=2.000000D+00  E=-1.812587D+00
              MO Center=  2.8D-06,  3.9D-06,  5.1D-06, r^2= 2.4D+00
   Bfn.  Coefficient  Atom+Function         Bfn.  Coefficient  Atom+Function  
  ----- ------------  ---------------      ----- ------------  ---------------
     1      0.310164  1 Li s                 60      0.310166  5 Li s          
    89      0.310167  6 Li s                118      0.310167  7 Li s          
     2      0.211354  1 Li s                 61      0.211356  5 Li s          
    90      0.211356  6 Li s                119      0.211356  7 Li s          
 
 Vector    2  Occ=2.000000D+00  E=-1.809491D+00
              MO Center= -2.6D-01,  3.3D-01,  8.0D-01, r^2= 1.6D+00
   Bfn.  Coefficient  Atom+Function         Bfn.  Coefficient  Atom+Function  
  ----- ------------  ---------------      ----- ------------  ---------------
   118      0.501525  7 Li s                 89     -0.346234  6 Li s          
   119      0.342145  7 Li s                 90     -0.236204  6 Li s          
 
 Vector    3  Occ=2.000000D+00  E=-1.809491D+00
              MO Center=  7.8D-01,  2.3D-01, -1.5D-01, r^2= 1.7D+00
   Bfn.  Coefficient  Atom+Function         Bfn.  Coefficient  Atom+Function  
  ----- ------------  ---------------      ----- ------------  ---------------
    60      0.475228  5 Li s                 89     -0.375742  6 Li s          
    61      0.324205  5 Li s                 90     -0.256335  6 Li s          
 
 Vector    4  Occ=2.000000D+00  E=-1.809491D+00
              MO Center= -5.1D-01, -5.6D-01, -6.5D-01, r^2= 1.4D+00
   Bfn.  Coefficient  Atom+Function         Bfn.  Coefficient  Atom+Function  
  ----- ------------  ---------------      ----- ------------  ---------------
     1      0.537039  1 Li s                  2      0.366373  1 Li s          
    60     -0.222568  5 Li s                 89     -0.172757  6 Li s          
    61     -0.151838  5 Li s          
 
 Vector    5  Occ=2.000000D+00  E=-2.376067D-01
              MO Center=  3.3D-08,  1.3D-08,  5.2D-08, r^2= 3.0D+00
   Bfn.  Coefficient  Atom+Function         Bfn.  Coefficient  Atom+Function  
  ----- ------------  ---------------      ----- ------------  ---------------
     6      0.253716  1 Li s                 65      0.253714  5 Li s          
    94      0.253714  6 Li s                123      0.253714  7 Li s          
    31      0.157272  2 H  s                 41      0.157272  3 H  s          
    51      0.157272  4 H  s                148      0.157271  8 H  s          
 
 Vector    6  Occ=2.000000D+00  E=-1.624164D-01
              MO Center=  6.8D-01,  5.1D-01,  4.9D-01, r^2= 3.0D+00
   Bfn.  Coefficient  Atom+Function         Bfn.  Coefficient  Atom+Function  
  ----- ------------  ---------------      ----- ------------  ---------------
    14      0.810202  1 Li s                131     -0.377657  7 Li s          
   148     -0.320232  8 H  s                102     -0.225847  6 Li s          
   149     -0.225240  8 H  s                 73     -0.206697  5 Li s          
   150     -0.170285  8 H  s                147     -0.163643  8 H  s          
 
 Vector    7  Occ=2.000000D+00  E=-1.624164D-01
              MO Center= -3.3D-01, -8.0D-01,  3.0D-01, r^2= 3.2D+00
   Bfn.  Coefficient  Atom+Function         Bfn.  Coefficient  Atom+Function  
  ----- ------------  ---------------      ----- ------------  ---------------
    73      0.768931  5 Li s                131     -0.516949  7 Li s          
    31     -0.303911  2 H  s                 32     -0.213757  2 H  s          
    51      0.204315  4 H  s                 33     -0.161612  2 H  s          
   102     -0.162037  6 Li s                 30     -0.155303  2 H  s          
 
 Vector    8  Occ=2.000000D+00  E=-1.624164D-01
              MO Center= -3.5D-01,  2.9D-01, -7.8D-01, r^2= 3.2D+00
   Bfn.  Coefficient  Atom+Function         Bfn.  Coefficient  Atom+Function  
  ----- ------------  ---------------      ----- ------------  ---------------
   102      0.769649  6 Li s                131     -0.509683  7 Li s          
    41     -0.304194  3 H  s                 42     -0.213955  3 H  s          
    51      0.201442  4 H  s                 73     -0.188783  5 Li s          
    43     -0.161764  3 H  s                 40     -0.155448  3 H  s          
 
 Vector    9  Occ=0.000000D+00  E=-1.381264D-04
              MO Center= -7.5D-05, -2.0D-04, -2.9D-04, r^2= 4.1D+01
   Bfn.  Coefficient  Atom+Function         Bfn.  Coefficient  Atom+Function  
  ----- ------------  ---------------      ----- ------------  ---------------
   131      0.284811  7 Li s                102      0.278730  6 Li s          
    73      0.273742  5 Li s                 14      0.259935  1 Li s          
    10      0.253555  1 Li s                 69      0.254203  5 Li s          
    98      0.254434  6 Li s                127      0.254721  7 Li s          
    15     -0.247612  1 Li px                16     -0.247821  1 Li py         
 
 Vector   10  Occ=0.000000D+00  E= 9.830452D-03
              MO Center= -5.7D-01, -6.5D-01, -8.5D-01, r^2= 7.9D+01
   Bfn.  Coefficient  Atom+Function         Bfn.  Coefficient  Atom+Function  
  ----- ------------  ---------------      ----- ------------  ---------------
    14     68.561132  1 Li s                 73    -32.457407  5 Li s          
   102    -21.203898  6 Li s                131    -14.899683  7 Li s          
    15      7.197416  1 Li px                16      6.962828  1 Li py         
    17      6.539808  1 Li pz                74      4.475666  5 Li px         
    75      4.236182  5 Li py               103      3.628301  6 Li px         
 
 Vector   11  Occ=0.000000D+00  E= 9.834361D-03
              MO Center=  9.7D-01,  1.7D-01, -1.1D-01, r^2= 8.0D+01
   Bfn.  Coefficient  Atom+Function         Bfn.  Coefficient  Atom+Function  
  ----- ------------  ---------------      ----- ------------  ---------------
    73     58.737164  5 Li s                102    -51.269534  6 Li s          
   131    -15.951521  7 Li s                 14      8.483955  1 Li s          
    76      6.977646  5 Li pz               105      6.406918  6 Li pz         
    75     -6.045568  5 Li py               104     -5.488951  6 Li py         
    74     -4.712623  5 Li px               134      3.746502  7 Li pz         
 
 Vector   12  Occ=0.000000D+00  E= 9.836498D-03
              MO Center= -3.9D-01,  4.8D-01,  9.6D-01, r^2= 8.0D+01
   Bfn.  Coefficient  Atom+Function         Bfn.  Coefficient  Atom+Function  
  ----- ------------  ---------------      ----- ------------  ---------------
   131     65.729926  7 Li s                102    -41.521305  6 Li s          
    73    -17.409816  5 Li s                132      7.192319  7 Li px         
    14     -6.798878  1 Li s                133     -6.785189  7 Li py         
   134     -5.870249  7 Li pz               103      5.361977  6 Li px         
   104     -4.962772  6 Li py                74      3.540199  5 Li px         
 
 Vector   13  Occ=0.000000D+00  E= 1.959908D-02
              MO Center= -4.2D-04, -1.1D-03, -1.6D-03, r^2= 8.1D+01
   Bfn.  Coefficient  Atom+Function         Bfn.  Coefficient  Atom+Function  
  ----- ------------  ---------------      ----- ------------  ---------------
    15      1.125861  1 Li px                16      1.127166  1 Li py         
    17      1.128400  1 Li pz                74     -1.118154  5 Li px         
    76      1.122452  5 Li pz                75     -1.116722  5 Li py         
   103     -1.115976  6 Li px               104      1.119261  6 Li py         
   105     -1.113419  6 Li pz               132      1.115176  7 Li px         
 
 Vector   14  Occ=0.000000D+00  E= 2.198628D-02
              MO Center= -2.8D-05, -3.4D-05, -6.9D-05, r^2= 6.9D+01
   Bfn.  Coefficient  Atom+Function         Bfn.  Coefficient  Atom+Function  
  ----- ------------  ---------------      ----- ------------  ---------------
   105     -1.094301  6 Li pz               134     -1.094299  7 Li pz         
    17      1.083426  1 Li pz                76      1.080556  5 Li pz         
    74      0.606711  5 Li px                15     -0.601719  1 Li px         
   103      0.600725  6 Li px               132     -0.598363  7 Li px         
    75      0.491083  5 Li py                16     -0.486090  1 Li py         
 
 Vector   15  Occ=0.000000D+00  E= 2.198628D-02
              MO Center= -1.1D-05, -4.1D-05, -3.6D-05, r^2= 6.9D+01
   Bfn.  Coefficient  Atom+Function         Bfn.  Coefficient  Atom+Function  
  ----- ------------  ---------------      ----- ------------  ---------------
    75      0.978865  5 Li py               133      0.979903  7 Li py         
    16     -0.972080  1 Li py               104     -0.972100  6 Li py         
    15      0.910075  1 Li px                74     -0.908592  5 Li px         
   103     -0.910684  6 Li px               132      0.906593  7 Li px         
 
 Vector   16  Occ=0.000000D+00  E= 2.240092D-02
              MO Center=  4.2D-01,  4.8D-01,  6.3D-01, r^2= 7.2D+01
   Bfn.  Coefficient  Atom+Function         Bfn.  Coefficient  Atom+Function  
  ----- ------------  ---------------      ----- ------------  ---------------
    14     23.939934  1 Li s                 73    -11.342541  5 Li s          
   102     -7.406703  6 Li s                131     -5.190452  7 Li s          
    15      1.377474  1 Li px                74      1.367734  5 Li px         
   103      1.366421  6 Li px               132      1.354675  7 Li px         
    16      1.221280  1 Li py                75      1.206411  5 Li py         
 
 Vector   17  Occ=0.000000D+00  E= 2.240280D-02
              MO Center= -7.1D-01, -1.2D-01,  7.7D-02, r^2= 7.2D+01
   Bfn.  Coefficient  Atom+Function         Bfn.  Coefficient  Atom+Function  
  ----- ------------  ---------------      ----- ------------  ---------------
    73     20.349016  5 Li s                102    -17.839127  6 Li s          
   131     -5.450105  7 Li s                 14      2.940323  1 Li s          
    76      1.706530  5 Li pz                17      1.690775  1 Li pz         
   105      1.697703  6 Li pz               134      1.696372  7 Li pz         
   104     -1.093307  6 Li py                75     -1.087509  5 Li py         
 
 Vector   18  Occ=0.000000D+00  E= 2.240383D-02
              MO Center=  2.9D-01, -3.6D-01, -7.0D-01, r^2= 7.2D+01
   Bfn.  Coefficient  Atom+Function         Bfn.  Coefficient  Atom+Function  
  ----- ------------  ---------------      ----- ------------  ---------------
   131     22.739176  7 Li s                102    -14.280800  6 Li s          
    73     -6.086593  5 Li s                 14     -2.371901  1 Li s          
   132      1.490869  7 Li px                15      1.480368  1 Li px         
    74      1.483263  5 Li px               103      1.485488  6 Li px         
    16     -1.211882  1 Li py                75     -1.214016  5 Li py         
 
 Vector   19  Occ=0.000000D+00  E= 2.850036D-02
              MO Center= -7.7D-01, -8.7D-01, -1.2D+00, r^2= 7.1D+01
   Bfn.  Coefficient  Atom+Function         Bfn.  Coefficient  Atom+Function  
  ----- ------------  ---------------      ----- ------------  ---------------
    14    144.971524  1 Li s                 73    -69.452997  5 Li s          
   102    -44.736749  6 Li s                131    -30.780761  7 Li s          
    15     14.660529  1 Li px                16     14.236626  1 Li py         
    17     13.413094  1 Li pz                74      9.116332  5 Li px         
    75      8.606636  5 Li py               103      7.313544  6 Li px         
 
 Vector   20  Occ=0.000000D+00  E= 2.851752D-02
              MO Center=  1.3D+00,  2.2D-01, -1.4D-01, r^2= 7.2D+01
   Bfn.  Coefficient  Atom+Function         Bfn.  Coefficient  Atom+Function  
  ----- ------------  ---------------      ----- ------------  ---------------
    73    124.177692  5 Li s                102   -108.773429  6 Li s          
   131    -34.095866  7 Li s                 14     18.692069  1 Li s          
    76     14.266174  5 Li pz               105     13.003297  6 Li pz         
    75    -12.274358  5 Li py               104    -11.258375  6 Li py         
    74     -9.699162  5 Li px               134      7.552356  7 Li pz         
 
 Vector   21  Occ=0.000000D+00  E= 2.852697D-02
              MO Center= -5.4D-01,  6.5D-01,  1.3D+00, r^2= 7.2D+01
   Bfn.  Coefficient  Atom+Function         Bfn.  Coefficient  Atom+Function  
  ----- ------------  ---------------      ----- ------------  ---------------
   131    139.480807  7 Li s                102    -87.964816  6 Li s          
    73    -36.493386  5 Li s                 14    -15.023124  1 Li s          
   132     14.758568  7 Li px               133    -13.903476  7 Li py         
   134    -12.043351  7 Li pz               103     10.877969  6 Li px         
   104    -10.161691  6 Li py                74      7.028810  5 Li px         
 
 Vector   22  Occ=0.000000D+00  E= 3.118542D-02
              MO Center=  3.6D-01,  1.1D-01,  6.0D-02, r^2= 9.2D+01
   Bfn.  Coefficient  Atom+Function         Bfn.  Coefficient  Atom+Function  
  ----- ------------  ---------------      ----- ------------  ---------------
    74      9.299528  5 Li px               103     -9.305985  6 Li px         
    75     -6.914139  5 Li py               133      6.914580  7 Li py         
    16      4.960702  1 Li py               104     -4.960273  6 Li py         
   105      4.322010  6 Li pz               134     -4.338568  7 Li pz         
    15     -2.592234  1 Li px               132      2.585795  7 Li px         
 
 Vector   23  Occ=0.000000D+00  E= 3.118564D-02
              MO Center= -2.0D-02, -1.8D-01,  8.6D-02, r^2= 9.3D+01
   Bfn.  Coefficient  Atom+Function         Bfn.  Coefficient  Atom+Function  
  ----- ------------  ---------------      ----- ------------  ---------------
    16      8.234760  1 Li py               104     -8.062313  6 Li py         
   105     -7.519599  6 Li pz               134      7.402449  7 Li pz         
    17     -6.002814  1 Li pz                76      5.885669  5 Li pz         
    75      5.291435  5 Li py               133     -5.118992  7 Li py         
    15     -2.226984  1 Li px               132      2.176596  7 Li px         
 
 Vector   24  Occ=0.000000D+00  E= 3.118574D-02
              MO Center= -3.5D-01,  7.7D-02, -1.5D-01, r^2= 9.2D+01
   Bfn.  Coefficient  Atom+Function         Bfn.  Coefficient  Atom+Function  
  ----- ------------  ---------------      ----- ------------  ---------------
    15      9.239370  1 Li px               132     -8.995067  7 Li px         
    17     -7.301377  1 Li pz                76      7.213816  5 Li pz         
   134     -4.732643  7 Li pz               105      4.645075  6 Li pz         
    75      4.597769  5 Li py               133     -4.578196  7 Li py         
    74      2.971428  5 Li px               103     -2.727105  6 Li px         
 
 Vector   25  Occ=0.000000D+00  E= 5.530547D-02
              MO Center= -8.5D-07, -1.6D-05, -2.8D-05, r^2= 2.8D+01
   Bfn.  Coefficient  Atom+Function         Bfn.  Coefficient  Atom+Function  
  ----- ------------  ---------------      ----- ------------  ---------------
    17     -0.622250  1 Li pz                76     -0.622246  5 Li pz         
   105      0.622258  6 Li pz               134      0.622268  7 Li pz         
    13      0.577511  1 Li pz                72      0.577460  5 Li pz         
   101     -0.577617  6 Li pz               130     -0.577591  7 Li pz         
    16      0.551490  1 Li py                75     -0.551492  5 Li py         
 
 Vector   26  Occ=0.000000D+00  E= 5.530547D-02
              MO Center= -7.9D-06, -1.5D-05, -1.3D-05, r^2= 2.8D+01
   Bfn.  Coefficient  Atom+Function         Bfn.  Coefficient  Atom+Function  
  ----- ------------  ---------------      ----- ------------  ---------------
    15     -0.677727  1 Li px                74      0.677664  5 Li px         
   103      0.677656  6 Li px               132     -0.677602  7 Li px         
    11      0.628939  1 Li px                70     -0.628994  5 Li px         
    99     -0.628984  6 Li px               128      0.628964  7 Li px         
    16      0.400031  1 Li py                75     -0.400148  5 Li py         
 
 Vector   27  Occ=0.000000D+00  E= 6.244505D-02
              MO Center= -9.1D-02, -1.7D-01, -2.4D-01, r^2= 5.0D+01
   Bfn.  Coefficient  Atom+Function         Bfn.  Coefficient  Atom+Function  
  ----- ------------  ---------------      ----- ------------  ---------------
    14      9.723621  1 Li s                131     -5.207793  7 Li s          
   102     -2.272697  6 Li s                 17      2.205386  1 Li pz         
    16      2.105270  1 Li py                15      1.997360  1 Li px         
    76      1.588731  5 Li pz               127     -1.507683  7 Li s          
    98     -1.386705  6 Li s                104      1.308188  6 Li py         
 
 Vector   28  Occ=0.000000D+00  E= 6.257789D-02
              MO Center= -3.7D-01, -4.7D-01, -7.3D-01, r^2= 4.9D+01
   Bfn.  Coefficient  Atom+Function         Bfn.  Coefficient  Atom+Function  
  ----- ------------  ---------------      ----- ------------  ---------------
    14    142.289228  1 Li s                 73    -69.095225  5 Li s          
   102    -43.623735  6 Li s                131    -29.725330  7 Li s          
    15     13.533143  1 Li px                16     13.015890  1 Li py         
    17     12.074073  1 Li pz                74      8.811531  5 Li px         
    75      8.301230  5 Li py               103      7.117668  6 Li px         
 
 Vector   29  Occ=0.000000D+00  E= 6.259589D-02
              MO Center=  9.5D-01,  8.6D-02, -2.4D-03, r^2= 4.9D+01
   Bfn.  Coefficient  Atom+Function         Bfn.  Coefficient  Atom+Function  
  ----- ------------  ---------------      ----- ------------  ---------------
    73    121.569939  5 Li s                102   -108.090305  6 Li s          
   131    -32.404052  7 Li s                 14     18.861496  1 Li s          
    76     13.212945  5 Li pz               105     12.385805  6 Li pz         
    75    -11.335626  5 Li py               104    -10.488573  6 Li py         
    74     -8.543794  5 Li px               134      7.353679  7 Li pz         
 
 Vector   30  Occ=0.000000D+00  E= 6.260594D-02
              MO Center= -4.8D-01,  5.5D-01,  9.7D-01, r^2= 4.9D+01
   Bfn.  Coefficient  Atom+Function         Bfn.  Coefficient  Atom+Function  
  ----- ------------  ---------------      ----- ------------  ---------------
   131    137.648816  7 Li s                102    -85.559021  6 Li s          
    73    -36.905035  5 Li s                 14    -15.118555  1 Li s          
   132     13.677643  7 Li px               133    -12.883212  7 Li py         
   134    -11.095045  7 Li pz               103     10.163293  6 Li px         
   104     -9.357755  6 Li py                74      6.936069  5 Li px         
 
 Vector   31  Occ=0.000000D+00  E= 7.560892D-02
              MO Center=  4.3D-01,  4.8D-01,  6.4D-01, r^2= 4.2D+01
   Bfn.  Coefficient  Atom+Function         Bfn.  Coefficient  Atom+Function  
  ----- ------------  ---------------      ----- ------------  ---------------
    14     91.582427  1 Li s                 73    -43.427635  5 Li s          
   102    -28.062183  6 Li s                131    -20.093505  7 Li s          
    10     14.792186  1 Li s                 15      9.445053  1 Li px         
    16      9.211872  1 Li py                17      8.765610  1 Li pz         
    69     -7.010420  5 Li s                 74      5.566913  5 Li px         
 
 Vector   32  Occ=0.000000D+00  E= 7.562361D-02
              MO Center= -7.1D-01, -1.3D-01,  8.4D-02, r^2= 4.3D+01
   Bfn.  Coefficient  Atom+Function         Bfn.  Coefficient  Atom+Function  
  ----- ------------  ---------------      ----- ------------  ---------------
    73     78.902091  5 Li s                102    -68.287921  6 Li s          
   131    -22.227041  7 Li s                 69     12.712902  5 Li s          
    14     11.612460  1 Li s                 98    -11.000328  6 Li s          
    76      8.968144  5 Li pz               105      8.119565  6 Li pz         
    75     -7.994627  5 Li py               104     -7.135711  6 Li py         
 
 Vector   33  Occ=0.000000D+00  E= 7.563150D-02
              MO Center=  2.9D-01, -3.5D-01, -7.2D-01, r^2= 4.3D+01
   Bfn.  Coefficient  Atom+Function         Bfn.  Coefficient  Atom+Function  
  ----- ------------  ---------------      ----- ------------  ---------------
   131     88.080958  7 Li s                102    -56.494898  6 Li s          
    73    -22.791161  5 Li s                127     14.171172  7 Li s          
   132      9.381885  7 Li px                98     -9.091063  6 Li s          
   133     -8.980853  7 Li py                14     -8.794452  1 Li s          
   134     -8.007341  7 Li pz               103      6.841947  6 Li px         
 
 Vector   34  Occ=0.000000D+00  E= 8.924054D-02
              MO Center= -3.6D-04, -7.5D-04, -1.2D-03, r^2= 3.7D+01
   Bfn.  Coefficient  Atom+Function         Bfn.  Coefficient  Atom+Function  
  ----- ------------  ---------------      ----- ------------  ---------------
    33      6.818338  2 H  s                 43      6.818759  3 H  s          
    53      6.819088  4 H  s                150      6.817330  8 H  s          
    10     -4.961559  1 Li s                 69     -4.960274  5 Li s          
    98     -4.959363  6 Li s                127     -4.959524  7 Li s          
    11     -2.510545  1 Li px                12     -2.510243  1 Li py         
 
 Vector   35  Occ=0.000000D+00  E= 9.708349D-02
              MO Center=  1.5D-01, -1.8D-01, -3.8D-01, r^2= 3.6D+01
   Bfn.  Coefficient  Atom+Function         Bfn.  Coefficient  Atom+Function  
  ----- ------------  ---------------      ----- ------------  ---------------
    17      4.252103  1 Li pz                76     -4.250767  5 Li pz         
    13     -3.720423  1 Li pz                72      3.721823  5 Li pz         
    16     -3.237019  1 Li py               104      3.235728  6 Li py         
    12      2.831473  1 Li py                74     -2.826305  5 Li px         
   100     -2.832929  6 Li py               103      2.825403  6 Li px         
 
 Vector   36  Occ=0.000000D+00  E= 9.708351D-02
              MO Center= -3.7D-01, -7.3D-02,  4.5D-02, r^2= 3.6D+01
   Bfn.  Coefficient  Atom+Function         Bfn.  Coefficient  Atom+Function  
  ----- ------------  ---------------      ----- ------------  ---------------
    15      4.318852  1 Li px               132     -4.316750  7 Li px         
    11     -3.778022  1 Li px               128      3.778884  7 Li px         
    16     -2.991633  1 Li py               104      2.991224  6 Li py         
    12      2.617863  1 Li py               100     -2.618268  6 Li py         
    75      2.340779  5 Li py               133     -2.341175  7 Li py         
 
 Vector   37  Occ=0.000000D+00  E= 9.708356D-02
              MO Center=  2.2D-01,  2.5D-01,  3.3D-01, r^2= 3.5D+01
   Bfn.  Coefficient  Atom+Function         Bfn.  Coefficient  Atom+Function  
  ----- ------------  ---------------      ----- ------------  ---------------
   105      3.976262  6 Li pz               134     -3.975849  7 Li pz         
    75     -3.517930  5 Li py               133      3.516963  7 Li py         
   101     -3.478007  6 Li pz               130      3.478456  7 Li pz         
    74      3.297726  5 Li px               103     -3.297063  6 Li px         
    71      3.077352  5 Li py               129     -3.078410  7 Li py         
 
 Vector   38  Occ=0.000000D+00  E= 1.025037D-01
              MO Center= -5.9D-01,  7.6D-01,  1.1D+00, r^2= 2.7D+01
   Bfn.  Coefficient  Atom+Function         Bfn.  Coefficient  Atom+Function  
  ----- ------------  ---------------      ----- ------------  ---------------
   127     32.047660  7 Li s                 98    -17.352414  6 Li s          
   131     15.825417  7 Li s                 69    -10.563727  5 Li s          
   102     -8.568101  6 Li s                128      6.745206  7 Li px         
   129     -6.504598  7 Li py               130     -6.250889  7 Li pz         
    73     -5.215169  5 Li s                 53      5.068708  4 H  s          
 
 Vector   39  Occ=0.000000D+00  E= 1.025048D-01
              MO Center=  1.3D+00,  9.0D-02, -6.7D-02, r^2= 2.8D+01
   Bfn.  Coefficient  Atom+Function         Bfn.  Coefficient  Atom+Function  
  ----- ------------  ---------------      ----- ------------  ---------------
    69     27.493324  5 Li s                 98    -25.904854  6 Li s          
    73     13.573751  5 Li s                102    -12.788766  6 Li s          
    72      6.030522  5 Li pz                71     -5.748375  5 Li py         
   101      5.749355  6 Li pz               100     -5.465117  6 Li py         
    70     -4.949673  5 Li px               127     -4.578934  7 Li s          
 
 Vector   40  Occ=0.000000D+00  E= 1.025066D-01
              MO Center= -7.1D-01, -8.5D-01, -1.0D+00, r^2= 2.7D+01
   Bfn.  Coefficient  Atom+Function         Bfn.  Coefficient  Atom+Function  
  ----- ------------  ---------------      ----- ------------  ---------------
    10     32.659760  1 Li s                 14     16.115366  1 Li s          
    69    -15.005815  5 Li s                 98    -10.976248  6 Li s          
    73     -7.402507  5 Li s                 11      6.781447  1 Li px         
   127     -6.680888  7 Li s                 12      6.620653  1 Li py         
    13      6.469523  1 Li pz               102     -5.419915  6 Li s          
 
 Vector   41  Occ=0.000000D+00  E= 1.414211D-01
              MO Center= -6.5D-07,  9.9D-07,  1.4D-06, r^2= 2.1D+01
   Bfn.  Coefficient  Atom+Function         Bfn.  Coefficient  Atom+Function  
  ----- ------------  ---------------      ----- ------------  ---------------
    13      0.848907  1 Li pz                72      0.848909  5 Li pz         
   101     -0.848896  6 Li pz               130     -0.848898  7 Li pz         
    12     -0.724583  1 Li py                71      0.724576  5 Li py         
   100     -0.724583  6 Li py               129      0.724585  7 Li py         
     9     -0.559355  1 Li pz                68     -0.559340  5 Li pz         
 
 Vector   42  Occ=0.000000D+00  E= 1.414211D-01
              MO Center= -4.5D-07, -3.9D-06, -3.8D-06, r^2= 2.1D+01
   Bfn.  Coefficient  Atom+Function         Bfn.  Coefficient  Atom+Function  
  ----- ------------  ---------------      ----- ------------  ---------------
    11      0.908459  1 Li px                70     -0.908452  5 Li px         
    99     -0.908450  6 Li px               128      0.908446  7 Li px         
     7     -0.598608  1 Li px                66      0.598600  5 Li px         
    95      0.598593  6 Li px               124     -0.598588  7 Li px         
    12     -0.561904  1 Li py                71      0.561885  5 Li py         
 
 Vector   43  Occ=0.000000D+00  E= 1.606635D-01
              MO Center=  4.4D-01,  4.9D-01,  6.5D-01, r^2= 2.6D+01
   Bfn.  Coefficient  Atom+Function         Bfn.  Coefficient  Atom+Function  
  ----- ------------  ---------------      ----- ------------  ---------------
    14     69.815652  1 Li s                 73    -33.155501  5 Li s          
    10     21.263691  1 Li s                102    -21.285974  6 Li s          
   131    -15.374646  7 Li s                 69    -10.089059  5 Li s          
   150     -9.379932  8 H  s                 15      6.781768  1 Li px         
    16      6.589228  1 Li py                98     -6.475782  6 Li s          
 
 Vector   44  Occ=0.000000D+00  E= 1.606874D-01
              MO Center= -7.2D-01, -1.4D-01,  8.8D-02, r^2= 2.6D+01
   Bfn.  Coefficient  Atom+Function         Bfn.  Coefficient  Atom+Function  
  ----- ------------  ---------------      ----- ------------  ---------------
    73     60.142033  5 Li s                102    -51.793780  6 Li s          
    69     18.297159  5 Li s                131    -17.307429  7 Li s          
    98    -15.751499  6 Li s                 14      8.958954  1 Li s          
    33     -8.067063  2 H  s                 43      6.940295  3 H  s          
    76      6.561250  5 Li pz               105      5.963233  6 Li pz         
 
 Vector   45  Occ=0.000000D+00  E= 1.607001D-01
              MO Center=  2.9D-01, -3.5D-01, -7.3D-01, r^2= 2.6D+01
   Bfn.  Coefficient  Atom+Function         Bfn.  Coefficient  Atom+Function  
  ----- ------------  ---------------      ----- ------------  ---------------
   131     66.924816  7 Li s                102    -43.304365  6 Li s          
   127     20.344449  7 Li s                 73    -17.055664  5 Li s          
    98    -13.167666  6 Li s                 53     -8.963375  4 H  s          
   132      6.765098  7 Li px                14     -6.564578  1 Li s          
   133     -6.425848  7 Li py                43      5.805307  3 H  s          
 
 Vector   46  Occ=0.000000D+00  E= 1.663889D-01
              MO Center= -3.0D-04, -6.0D-04, -9.6D-04, r^2= 2.5D+01
   Bfn.  Coefficient  Atom+Function         Bfn.  Coefficient  Atom+Function  
  ----- ------------  ---------------      ----- ------------  ---------------
    33     14.745260  2 H  s                 43     14.747496  3 H  s          
    53     14.749481  4 H  s                150     14.739616  8 H  s          
    10    -11.235903  1 Li s                 69    -11.250456  5 Li s          
    98    -11.255984  6 Li s                127    -11.261432  7 Li s          
    11     -3.101005  1 Li px                12     -3.100204  1 Li py         
 
 Vector   47  Occ=0.000000D+00  E= 1.893253D-01
              MO Center= -5.0D-01, -5.5D-01, -7.6D-01, r^2= 2.3D+01
   Bfn.  Coefficient  Atom+Function         Bfn.  Coefficient  Atom+Function  
  ----- ------------  ---------------      ----- ------------  ---------------
    14     54.893781  1 Li s                 10    -28.749569  1 Li s          
    73    -26.758154  5 Li s                102    -15.850125  6 Li s          
    69     14.011948  5 Li s                131    -12.285339  7 Li s          
    98      8.304148  6 Li s                127      6.431178  7 Li s          
     6     -5.795457  1 Li s                 15      5.184543  1 Li px         
 
 Vector   48  Occ=0.000000D+00  E= 1.893347D-01
              MO Center=  7.8D-01,  2.2D-01, -1.2D-01, r^2= 2.4D+01
   Bfn.  Coefficient  Atom+Function         Bfn.  Coefficient  Atom+Function  
  ----- ------------  ---------------      ----- ------------  ---------------
    73     47.615702  5 Li s                102    -38.838877  6 Li s          
    69    -24.942347  5 Li s                 98     20.344371  6 Li s          
   131    -16.973092  7 Li s                127      8.888782  7 Li s          
    14      8.196356  1 Li s                 76      5.221834  5 Li pz         
    65     -5.025941  5 Li s                105      4.655352  6 Li pz         
 
 Vector   49  Occ=0.000000D+00  E= 1.893394D-01
              MO Center= -2.8D-01,  3.2D-01,  8.8D-01, r^2= 2.4D+01
   Bfn.  Coefficient  Atom+Function         Bfn.  Coefficient  Atom+Function  
  ----- ------------  ---------------      ----- ------------  ---------------
   131     51.568067  7 Li s                102    -36.584158  6 Li s          
   127    -27.013535  7 Li s                 98     19.164017  6 Li s          
    73    -10.729922  5 Li s                 69      5.619718  5 Li s          
   123     -5.442329  7 Li s                132      5.150177  7 Li px         
   133     -4.901380  7 Li py               124     -4.457996  7 Li px         
 
 Vector   50  Occ=0.000000D+00  E= 2.045617D-01
              MO Center=  6.0D-05,  1.5D-04,  2.4D-04, r^2= 2.0D+01
   Bfn.  Coefficient  Atom+Function         Bfn.  Coefficient  Atom+Function  
  ----- ------------  ---------------      ----- ------------  ---------------
    33      3.825805  2 H  s                 43      3.825967  3 H  s          
    53      3.826143  4 H  s                150      3.825384  8 H  s          
     6     -0.892743  1 Li s                 65     -0.892499  5 Li s          
    94     -0.892416  6 Li s                123     -0.892310  7 Li s          
    10     -0.818492  1 Li s                 69     -0.817478  5 Li s          
 
 Vector   51  Occ=0.000000D+00  E= 2.293723D-01
              MO Center=  8.9D-02,  1.0D-01,  1.2D-01, r^2= 1.7D+01
   Bfn.  Coefficient  Atom+Function         Bfn.  Coefficient  Atom+Function  
  ----- ------------  ---------------      ----- ------------  ---------------
   101     -2.734045  6 Li pz               130      2.734345  7 Li pz         
    97      2.681460  6 Li pz               126     -2.681454  7 Li pz         
    71      2.504065  5 Li py               129     -2.504766  7 Li py         
    67     -2.455922  5 Li py               125      2.455907  7 Li py         
    70     -2.332924  5 Li px                99      2.333352  6 Li px         
 
 Vector   52  Occ=0.000000D+00  E= 2.293724D-01
              MO Center= -1.5D-01, -2.7D-02,  1.9D-02, r^2= 1.7D+01
   Bfn.  Coefficient  Atom+Function         Bfn.  Coefficient  Atom+Function  
  ----- ------------  ---------------      ----- ------------  ---------------
    11     -3.044051  1 Li px               128      3.045516  7 Li px         
     7      2.985882  1 Li px               124     -2.985646  7 Li px         
    15      2.365972  1 Li px               132     -2.363814  7 Li px         
    12      2.043985  1 Li py               100     -2.044224  6 Li py         
     8     -2.004320  1 Li py                96      2.004274  6 Li py         
 
 Vector   53  Occ=0.000000D+00  E= 2.293724D-01
              MO Center=  5.9D-02, -7.4D-02, -1.4D-01, r^2= 1.7D+01
   Bfn.  Coefficient  Atom+Function         Bfn.  Coefficient  Atom+Function  
  ----- ------------  ---------------      ----- ------------  ---------------
    13     -2.947093  1 Li pz                72      2.948055  5 Li pz         
     9      2.890289  1 Li pz                68     -2.890218  5 Li pz         
    12      2.318877  1 Li py               100     -2.319773  6 Li py         
    17      2.289500  1 Li pz                76     -2.288160  5 Li pz         
     8     -2.274399  1 Li py                96      2.274340  6 Li py         
 
 Vector   54  Occ=0.000000D+00  E= 2.497160D-01
              MO Center= -1.7D-01,  1.9D-01,  4.6D-01, r^2= 1.4D+01
   Bfn.  Coefficient  Atom+Function         Bfn.  Coefficient  Atom+Function  
  ----- ------------  ---------------      ----- ------------  ---------------
   127      9.955158  7 Li s                131     -6.747905  7 Li s          
    98     -6.703028  6 Li s                102      4.543490  6 Li s          
    53      4.029776  4 H  s                123     -3.661845  7 Li s          
    52     -3.303219  4 H  s                 43     -2.713392  3 H  s          
   130     -2.592679  7 Li pz                94      2.465595  6 Li s          
 
 Vector   55  Occ=0.000000D+00  E= 2.497162D-01
              MO Center=  4.1D-01,  7.7D-02, -4.1D-02, r^2= 1.5D+01
   Bfn.  Coefficient  Atom+Function         Bfn.  Coefficient  Atom+Function  
  ----- ------------  ---------------      ----- ------------  ---------------
    69      8.801228  5 Li s                 98     -7.713695  6 Li s          
    73     -5.966781  5 Li s                102      5.229382  6 Li s          
    33      3.562936  2 H  s                 65     -3.237561  5 Li s          
    43     -3.122564  3 H  s                127     -3.037335  7 Li s          
    32     -2.920415  2 H  s                 94      2.837476  6 Li s          
 
 Vector   56  Occ=0.000000D+00  E= 2.497165D-01
              MO Center= -2.4D-01, -2.7D-01, -4.1D-01, r^2= 1.4D+01
   Bfn.  Coefficient  Atom+Function         Bfn.  Coefficient  Atom+Function  
  ----- ------------  ---------------      ----- ------------  ---------------
    10     10.372129  1 Li s                 14     -7.034338  1 Li s          
    69     -5.491099  5 Li s                150      4.199311  8 H  s          
     6     -3.815731  1 Li s                 73      3.723480  5 Li s          
   149     -3.441911  8 H  s                 98     -2.839490  6 Li s          
    13      2.634687  1 Li pz                12      2.516364  1 Li py         
 
 Vector   57  Occ=0.000000D+00  E= 2.644377D-01
              MO Center=  1.2D-01,  1.4D-01,  2.0D-01, r^2= 1.8D+01
   Bfn.  Coefficient  Atom+Function         Bfn.  Coefficient  Atom+Function  
  ----- ------------  ---------------      ----- ------------  ---------------
    14     44.308523  1 Li s                 73    -22.618250  5 Li s          
   102    -12.570318  6 Li s                  6     -9.695935  1 Li s          
   131     -9.119998  7 Li s                 10      6.022724  1 Li s          
     7     -5.022548  1 Li px                65      4.949312  5 Li s          
     8     -4.792582  1 Li py                15      4.374830  1 Li px         
 
 Vector   58  Occ=0.000000D+00  E= 2.644441D-01
              MO Center= -2.0D-01, -4.2D-02,  2.3D-02, r^2= 1.8D+01
   Bfn.  Coefficient  Atom+Function         Bfn.  Coefficient  Atom+Function  
  ----- ------------  ---------------      ----- ------------  ---------------
    73     37.871554  5 Li s                102    -32.665294  6 Li s          
   131    -12.663875  7 Li s                 65     -8.285215  5 Li s          
    14      7.457591  1 Li s                 94      7.146262  6 Li s          
    68     -5.307936  5 Li pz                69      5.143398  5 Li s          
    97     -4.993299  6 Li pz                98     -4.436475  6 Li s          
 
 Vector   59  Occ=0.000000D+00  E= 2.644480D-01
              MO Center=  8.1D-02, -9.4D-02, -2.2D-01, r^2= 1.8D+01
   Bfn.  Coefficient  Atom+Function         Bfn.  Coefficient  Atom+Function  
  ----- ------------  ---------------      ----- ------------  ---------------
   131     42.365509  7 Li s                102    -28.513470  6 Li s          
    73     -9.588316  5 Li s                123     -9.267024  7 Li s          
    94      6.236973  6 Li s                127      5.751348  7 Li s          
   124     -5.097419  7 Li px               125      4.742806  7 Li py         
   132      4.324736  7 Li px                14     -4.263702  1 Li s          
 
 Vector   60  Occ=0.000000D+00  E= 2.977741D-01
              MO Center= -8.3D-06, -2.1D-05, -3.0D-05, r^2= 1.2D+01
   Bfn.  Coefficient  Atom+Function         Bfn.  Coefficient  Atom+Function  
  ----- ------------  ---------------      ----- ------------  ---------------
    33     10.434953  2 H  s                 43     10.434963  3 H  s          
    53     10.434962  4 H  s                150     10.434932  8 H  s          
    10     -7.776967  1 Li s                 69     -7.776758  5 Li s          
    98     -7.776721  6 Li s                127     -7.776554  7 Li s          
    11     -1.774317  1 Li px                12     -1.774336  1 Li py         
 
 Vector   61  Occ=0.000000D+00  E= 3.999866D-01
              MO Center=  2.0D-06,  3.9D-06,  2.8D-06, r^2= 1.1D+01
   Bfn.  Coefficient  Atom+Function         Bfn.  Coefficient  Atom+Function  
  ----- ------------  ---------------      ----- ------------  ---------------
    28      0.851235  1 Li dyz               87     -0.851265  5 Li dyz        
   116     -0.851264  6 Li dyz              145      0.851286  7 Li dyz        
     7      0.693746  1 Li px                66     -0.693759  5 Li px         
    95     -0.693744  6 Li px               124      0.693796  7 Li px         
    26     -0.536330  1 Li dxz               85      0.536348  5 Li dxz        
 
 Vector   62  Occ=0.000000D+00  E= 3.999866D-01
              MO Center=  3.6D-07,  1.7D-06,  4.0D-06, r^2= 1.1D+01
   Bfn.  Coefficient  Atom+Function         Bfn.  Coefficient  Atom+Function  
  ----- ------------  ---------------      ----- ------------  ---------------
    25      0.801123  1 Li dxy               84      0.801127  5 Li dxy        
   113     -0.801133  6 Li dxy              142     -0.801137  7 Li dxy        
    26     -0.673289  1 Li dxz               85      0.673299  5 Li dxz        
   114     -0.673305  6 Li dxz              143      0.673306  7 Li dxz        
     9      0.652928  1 Li pz                68      0.652907  5 Li pz         
 
 Vector   63  Occ=0.000000D+00  E= 4.023817D-01
              MO Center=  5.7D-06,  1.2D-05,  1.9D-05, r^2= 1.2D+01
   Bfn.  Coefficient  Atom+Function         Bfn.  Coefficient  Atom+Function  
  ----- ------------  ---------------      ----- ------------  ---------------
    32      2.405109  2 H  s                 42      2.405048  3 H  s          
    52      2.404984  4 H  s                149      2.405264  8 H  s          
    33     -1.263576  2 H  s                 43     -1.263606  3 H  s          
    53     -1.263644  4 H  s                150     -1.263478  8 H  s          
     6     -1.217331  1 Li s                 65     -1.217873  5 Li s          
 
 Vector   64  Occ=0.000000D+00  E= 4.239111D-01
              MO Center= -2.1D-01, -2.4D-01, -3.3D-01, r^2= 1.4D+01
   Bfn.  Coefficient  Atom+Function         Bfn.  Coefficient  Atom+Function  
  ----- ------------  ---------------      ----- ------------  ---------------
    14     44.441157  1 Li s                 73    -21.675821  5 Li s          
   102    -13.343976  6 Li s                  6    -11.565162  1 Li s          
   131     -9.421343  7 Li s                 65      5.640612  5 Li s          
    10      5.597420  1 Li s                  7     -5.512998  1 Li px         
     8     -5.417482  1 Li py                 9     -5.214745  1 Li pz         
 
 Vector   65  Occ=0.000000D+00  E= 4.239175D-01
              MO Center=  3.6D-01,  6.4D-02, -3.9D-02, r^2= 1.4D+01
   Bfn.  Coefficient  Atom+Function         Bfn.  Coefficient  Atom+Function  
  ----- ------------  ---------------      ----- ------------  ---------------
    73     38.039656  5 Li s                102    -33.264858  6 Li s          
   131    -11.006333  7 Li s                 65     -9.896056  5 Li s          
    94      8.653855  6 Li s                 14      6.231542  1 Li s          
    68     -5.065470  5 Li pz                69      4.790366  5 Li s          
    67      4.645678  5 Li py                97     -4.564680  6 Li pz         
 
 Vector   66  Occ=0.000000D+00  E= 4.239212D-01
              MO Center= -1.5D-01,  1.8D-01,  3.7D-01, r^2= 1.4D+01
   Bfn.  Coefficient  Atom+Function         Bfn.  Coefficient  Atom+Function  
  ----- ------------  ---------------      ----- ------------  ---------------
   131     42.730382  7 Li s                102    -27.398685  6 Li s          
   123    -11.114334  7 Li s                 73    -10.864589  5 Li s          
    94      7.126486  6 Li s                124     -5.409919  7 Li px         
   127      5.380719  7 Li s                125      5.254237  7 Li py         
   126      4.851749  7 Li pz                14     -4.467115  1 Li s          
 
 Vector   67  Occ=0.000000D+00  E= 4.501039D-01
              MO Center=  1.4D-01, -2.0D-01, -7.6D-01, r^2= 9.7D+00
   Bfn.  Coefficient  Atom+Function         Bfn.  Coefficient  Atom+Function  
  ----- ------------  ---------------      ----- ------------  ---------------
     9      1.467029  1 Li pz                68     -1.467112  5 Li pz         
    25     -1.443917  1 Li dxy               84      1.443880  5 Li dxy        
     8     -1.026249  1 Li py                96      1.026330  6 Li py         
    26      1.010174  1 Li dxz              114     -1.010137  6 Li dxz        
    13     -0.952523  1 Li pz                72      0.952617  5 Li pz         
 
 Vector   68  Occ=0.000000D+00  E= 4.501039D-01
              MO Center= -6.6D-01, -2.1D-01,  1.1D-01, r^2= 9.9D+00
   Bfn.  Coefficient  Atom+Function         Bfn.  Coefficient  Atom+Function  
  ----- ------------  ---------------      ----- ------------  ---------------
     7      1.416575  1 Li px               124     -1.416733  7 Li px         
    28     -1.394395  1 Li dyz              145      1.394352  7 Li dyz        
     8     -1.097764  1 Li py                96      1.097801  6 Li py         
    26      1.080427  1 Li dxz              114     -1.080417  6 Li dxz        
    11     -0.919764  1 Li px               128      0.919928  7 Li px         
 
 Vector   69  Occ=0.000000D+00  E= 4.501039D-01
              MO Center=  5.2D-01,  4.2D-01,  6.5D-01, r^2= 9.5D+00
   Bfn.  Coefficient  Atom+Function         Bfn.  Coefficient  Atom+Function  
  ----- ------------  ---------------      ----- ------------  ---------------
    97      1.343922  6 Li pz               126     -1.343928  7 Li pz         
   113     -1.322929  6 Li dxy              142      1.322921  7 Li dxy        
    66      1.216799  5 Li px                95     -1.216852  6 Li px         
    87     -1.197676  5 Li dyz              116      1.197654  6 Li dyz        
    67     -1.073232  5 Li py               125      1.073267  7 Li py         
 
 Vector   70  Occ=0.000000D+00  E= 4.873334D-01
              MO Center=  9.6D-02,  1.1D-01,  1.4D-01, r^2= 1.2D+01
   Bfn.  Coefficient  Atom+Function         Bfn.  Coefficient  Atom+Function  
  ----- ------------  ---------------      ----- ------------  ---------------
    97      4.675466  6 Li pz               126     -4.675828  7 Li pz         
    67     -4.140016  5 Li py               125      4.140854  7 Li py         
    66      3.849804  5 Li px                95     -3.850353  6 Li px         
   101     -2.284541  6 Li pz               130      2.284361  7 Li pz         
   113     -2.082752  6 Li dxy              142      2.082660  7 Li dxy        
 
 Vector   71  Occ=0.000000D+00  E= 4.873337D-01
              MO Center= -1.6D-01, -2.6D-02,  1.7D-02, r^2= 1.2D+01
   Bfn.  Coefficient  Atom+Function         Bfn.  Coefficient  Atom+Function  
  ----- ------------  ---------------      ----- ------------  ---------------
     7      5.095850  1 Li px               124     -5.097474  7 Li px         
     8     -3.431989  1 Li py                96      3.432273  6 Li py         
    67      2.788285  5 Li py               125     -2.787955  7 Li py         
    11     -2.489873  1 Li px               128      2.489309  7 Li px         
    97      2.306129  6 Li pz               126     -2.305905  7 Li pz         
 
 Vector   72  Occ=0.000000D+00  E= 4.873338D-01
              MO Center=  6.7D-02, -8.2D-02, -1.6D-01, r^2= 1.2D+01
   Bfn.  Coefficient  Atom+Function         Bfn.  Coefficient  Atom+Function  
  ----- ------------  ---------------      ----- ------------  ---------------
     9      4.958908  1 Li pz                68     -4.960000  5 Li pz         
     8     -3.870719  1 Li py                96      3.871815  6 Li py         
    66     -3.369017  5 Li px                95      3.369711  6 Li px         
    13     -2.422446  1 Li pz                72      2.421965  5 Li pz         
    25     -2.207361  1 Li dxy               84      2.207089  5 Li dxy        
 
 Vector   73  Occ=0.000000D+00  E= 4.966759D-01
              MO Center= -1.3D-05, -4.0D-05, -5.6D-05, r^2= 9.1D+00
   Bfn.  Coefficient  Atom+Function         Bfn.  Coefficient  Atom+Function  
  ----- ------------  ---------------      ----- ------------  ---------------
    29      0.695220  1 Li dzz               88      0.695220  5 Li dzz        
   117      0.695153  6 Li dzz              146      0.695136  7 Li dzz        
    27     -0.605561  1 Li dyy               86     -0.605562  5 Li dyy        
   115     -0.605581  6 Li dyy              144     -0.605477  7 Li dyy        
    13      0.322250  1 Li pz                72      0.322078  5 Li pz         
 
 Vector   74  Occ=0.000000D+00  E= 4.966759D-01
              MO Center= -1.5D-05, -2.4D-05, -4.4D-05, r^2= 9.1D+00
   Bfn.  Coefficient  Atom+Function         Bfn.  Coefficient  Atom+Function  
  ----- ------------  ---------------      ----- ------------  ---------------
    24      0.750939  1 Li dxx               83      0.750951  5 Li dxx        
   112      0.750979  6 Li dxx              141      0.751032  7 Li dxx        
    27     -0.453066  1 Li dyy               86     -0.453030  5 Li dyy        
   115     -0.453183  6 Li dyy              144     -0.453185  7 Li dyy        
    11      0.348285  1 Li px                70     -0.348263  5 Li px         
 
 Vector   75  Occ=0.000000D+00  E= 5.052965D-01
              MO Center=  8.3D-02, -1.0D-01, -1.9D-01, r^2= 1.1D+01
   Bfn.  Coefficient  Atom+Function         Bfn.  Coefficient  Atom+Function  
  ----- ------------  ---------------      ----- ------------  ---------------
   127     12.838103  7 Li s                 98     -7.904983  6 Li s          
   123      7.899514  7 Li s                 52      7.149368  4 H  s          
    94     -4.864026  6 Li s                 42     -4.402130  3 H  s          
   126     -4.079397  7 Li pz               125     -3.901978  7 Li py         
   124      3.815371  7 Li px                69     -3.521998  5 Li s          
 

 center of mass
 --------------
 x =   0.00000001 y =   0.00000001 z =   0.00000001

 moments of inertia (a.u.)
 ------------------
         177.156912183117           0.000005814131           0.000003581878
           0.000005814131         177.156910468633           0.000001253392
           0.000003581878           0.000001253392         177.156909761350
 
     Multipole analysis of the density
     ---------------------------------
 
     L   x y z        total         alpha         beta         nuclear
     -   - - -        -----         -----         ----         -------
     0   0 0 0     -0.000000     -8.000000     -8.000000     16.000000
 
     1   1 0 0      0.000000      0.000000      0.000000     -0.000000
     1   0 1 0      0.000000      0.000000      0.000000     -0.000000
     1   0 0 1      0.000000      0.000000      0.000000      0.000000
 
     2   2 0 0    -13.523166    -29.315402    -29.315402     45.107637
     2   1 1 0     -0.000002      0.000000      0.000000     -0.000002
     2   1 0 1     -0.000002     -0.000000     -0.000000     -0.000001
     2   0 2 0    -13.523166    -29.315402    -29.315402     45.107638
     2   0 1 1     -0.000001     -0.000000     -0.000000     -0.000000
     2   0 0 2    -13.523167    -29.315403    -29.315403     45.107639
 
 
 
                            NWChem DFT Gradient Module
                            --------------------------
 
 

  charge          =   0.00
  wavefunction    = closed shell



                         DFT ENERGY GRADIENTS

    atom               coordinates                        gradient
                 x          y          z           x          y          z
   1 li     -1.643140  -1.643141  -1.643141    0.008525   0.008525   0.008525
   2 h      -1.782464  -1.782464   1.782463    0.007285   0.007285  -0.007284
   3 h      -1.782464   1.782463  -1.782464    0.007285  -0.007284   0.007285
   4 h       1.782463  -1.782464  -1.782464   -0.007285   0.007285   0.007285
   5 li      1.643141   1.643141  -1.643141   -0.008525  -0.008525   0.008525
   6 li      1.643141  -1.643141   1.643141   -0.008525   0.008525  -0.008525
   7 li     -1.643141   1.643141   1.643141    0.008525  -0.008525  -0.008525
   8 h       1.782463   1.782463   1.782463   -0.007285  -0.007285  -0.007285
 
                 ----------------------------------------
                 |  Time  |  1-e(secs)   |  2-e(secs)   |
                 ----------------------------------------
                 |  CPU   |       0.01   |       7.20   |
                 ----------------------------------------
                 |  WALL  |       0.01   |       7.21   |
                 ----------------------------------------

@ Step       Energy      Delta E   Gmax     Grms     Xrms     Xmax   Walltime
@ ---- ---------------- -------- -------- -------- -------- -------- --------
@    0     -32.11959867  0.0D+00  0.00852  0.00793  0.00000  0.00000     32.7
                                                                    

 
                                 NWChem DFT Module
                                 -----------------
 
 


 Summary of "ao basis" -> "ao basis" (cartesian)
 ------------------------------------------------------------------------------
       Tag                 Description            Shells   Functions and Types
 ---------------- ------------------------------  ------  ---------------------
 li                     6-311++G(2d,2p)             11       29   5s4p2d
 h                      6-311++G(2d,2p)              6       10   4s2p


  Caching 1-el integrals 
 
            General Information
            -------------------
          SCF calculation type: DFT
          Wavefunction type:  closed shell.
          No. of atoms     :     8
          No. of electrons :    16
           Alpha electrons :     8
            Beta electrons :     8
          Charge           :     0
          Spin multiplicity:     1
          Use of symmetry is: off; symmetry adaption is: off
          Maximum number of iterations: ***
          This is a Direct SCF calculation.
          AO basis - number of functions:   156
                     number of shells:    68
          Convergence on energy requested: 1.00D-06
          Convergence on density requested: 1.00D-05
          Convergence on gradient requested: 5.00D-04
 
              XC Information
              --------------
                          VS98 Exchange Functional  1.000          
 
             Grid Information
             ----------------
          Grid used for XC integration:  medium    
          Radial quadrature: Mura-Knowles        
          Angular quadrature: Lebedev. 
          Tag              B.-S. Rad. Rad. Pts. Rad. Cut. Ang. Pts.
          ---              ---------- --------- --------- ---------
          li                  1.45       49          22.0       434
          h                   0.35       45          17.0       434
          Grid pruning is: on 
          Number of quadrature shells:   376
          Spatial weights used:  Erf1
 
          Convergence Information
          -----------------------
          Convergence aids based upon iterative change in 
          total energy or number of iterations. 
          Levelshifting, if invoked, occurs when the 
          HOMO/LUMO gap drops below (HL_TOL): 1.00D-02
          DIIS, if invoked, will attempt to extrapolate 
          using up to (NFOCK): 10 stored Fock matrices.

                    Damping( 0%)  Levelshifting(0.5)       DIIS
                  --------------- ------------------- ---------------
          dE  on:    start            ASAP                start   
          dE off:    2 iters        *** iters           *** iters 

 
      Screening Tolerance Information
      -------------------------------
          Density screening/tol_rho: 1.00D-10
          AO Gaussian exp screening on grid/accAOfunc:  14
          CD Gaussian exp screening on grid/accCDfunc:  20
          XC Gaussian exp screening on grid/accXCfunc:  20
          Schwarz screening/accCoul: 1.00D-08


 Loading old vectors from job with title :



   Time after variat. SCF:     31.2
   Time prior to 1st pass:     31.2

 Grid_pts file          = /home/d3y133/nwchem-dev/nwchem-trunk-nonwad/QA/scratchdir/metagga_dat.gridpts.0
 Record size in doubles =  12289        No. of grid_pts per rec  =   3070
 Max. records in memory =     16        Max. recs in file   = 253312716

 Grid integrated density:      16.000121214129
 Requested integration accuracy:   0.10E-05

           Memory utilization after 1st SCF pass: 
           Heap Space remaining (MW):       12.88            12882468
          Stack Space remaining (MW):       13.11            13106180

   convergence    iter        energy       DeltaE   RMS-Dens  Diis-err    time
 ---------------- ----- ----------------- --------- --------- ---------  ------
 d= 0,ls=0.0,diis     1    -32.1217615929 -5.73D+01  9.63D-04  2.46D-04    34.4
 Grid integrated density:      16.000122524446
 Requested integration accuracy:   0.10E-05
 d= 0,ls=0.0,diis     2    -32.1217990177 -3.74D-05  3.35D-04  1.18D-05    38.2
 Grid integrated density:      16.000121870937
 Requested integration accuracy:   0.10E-05
 d= 0,ls=0.0,diis     3    -32.1218009710 -1.95D-06  1.09D-04  3.08D-06    41.7
 Grid integrated density:      16.000122066483
 Requested integration accuracy:   0.10E-05
 d= 0,ls=0.0,diis     4    -32.1218018003 -8.29D-07  3.41D-05  4.13D-08    45.4
 Grid integrated density:      16.000122059362
 Requested integration accuracy:   0.10E-05
 d= 0,ls=0.0,diis     5    -32.1218018117 -1.14D-08  1.26D-06  7.26D-10    48.8


         Total DFT energy =      -32.121801811746
      One electron energy =      -92.595812803421
           Coulomb energy =       43.982154016348
    Exchange-Corr. energy =       -8.696892685309
 Nuclear repulsion energy =       25.188749660637

 Numeric. integr. density =       16.000122059362

     Total iterative time =     17.6s


 
                       DFT Final Molecular Orbital Analysis
                       ------------------------------------
 
 Vector    1  Occ=2.000000D+00  E=-1.815092D+00
              MO Center=  4.9D-06,  6.8D-06,  8.1D-06, r^2= 2.4D+00
   Bfn.  Coefficient  Atom+Function         Bfn.  Coefficient  Atom+Function  
  ----- ------------  ---------------      ----- ------------  ---------------
     1      0.310220  1 Li s                 60      0.310224  5 Li s          
    89      0.310224  6 Li s                118      0.310225  7 Li s          
     2      0.211353  1 Li s                 61      0.211356  5 Li s          
    90      0.211357  6 Li s                119      0.211357  7 Li s          
 
 Vector    2  Occ=2.000000D+00  E=-1.812040D+00
              MO Center= -2.8D-01,  3.7D-01,  7.7D-01, r^2= 1.6D+00
   Bfn.  Coefficient  Atom+Function         Bfn.  Coefficient  Atom+Function  
  ----- ------------  ---------------      ----- ------------  ---------------
   118      0.504836  7 Li s                119      0.344209  7 Li s          
    89     -0.334396  6 Li s                 90     -0.227998  6 Li s          
 
 Vector    3  Occ=2.000000D+00  E=-1.812040D+00
              MO Center=  8.1D-01,  2.1D-01, -1.5D-01, r^2= 1.7D+00
   Bfn.  Coefficient  Atom+Function         Bfn.  Coefficient  Atom+Function  
  ----- ------------  ---------------      ----- ------------  ---------------
    60      0.475477  5 Li s                 89     -0.383896  6 Li s          
    61      0.324191  5 Li s                 90     -0.261749  6 Li s          
 
 Vector    4  Occ=2.000000D+00  E=-1.812040D+00
              MO Center= -5.3D-01, -5.7D-01, -6.3D-01, r^2= 1.4D+00
   Bfn.  Coefficient  Atom+Function         Bfn.  Coefficient  Atom+Function  
  ----- ------------  ---------------      ----- ------------  ---------------
     1      0.538137  1 Li s                  2      0.366914  1 Li s          
    60     -0.210540  5 Li s                 89     -0.178332  6 Li s          
 
 Vector    5  Occ=2.000000D+00  E=-2.367336D-01
              MO Center=  5.7D-08,  3.3D-08,  5.3D-08, r^2= 3.1D+00
   Bfn.  Coefficient  Atom+Function         Bfn.  Coefficient  Atom+Function  
  ----- ------------  ---------------      ----- ------------  ---------------
     6      0.253543  1 Li s                 65      0.253543  5 Li s          
    94      0.253544  6 Li s                123      0.253542  7 Li s          
    31      0.157075  2 H  s                 41      0.157075  3 H  s          
    51      0.157075  4 H  s                148      0.157075  8 H  s          
 
 Vector    6  Occ=2.000000D+00  E=-1.633513D-01
              MO Center=  5.8D-01,  5.6D-01,  6.1D-01, r^2= 3.0D+00
   Bfn.  Coefficient  Atom+Function         Bfn.  Coefficient  Atom+Function  
  ----- ------------  ---------------      ----- ------------  ---------------
    14      0.804829  1 Li s                148     -0.324032  8 H  s          
    73     -0.292127  5 Li s                131     -0.264945  7 Li s          
   102     -0.247757  6 Li s                149     -0.232059  8 H  s          
[...]


              11           12           13           14           15           16           17           18           19           20
   ----- ----- ----- ----- -----
   11    1.92382D+01
   12    2.50095D+00  1.92383D+01
   13    4.80668D-01 -1.97275D-01  3.52499D+00
   14   -3.10699D+00  2.11040D-01  6.37357D-01  3.52499D+00
   15   -4.79373D-01 -2.10897D+00 -6.36513D-01 -6.36580D-01  3.52627D+00
   16   -1.97267D-01  4.80462D-01  3.65866D-01 -8.86914D-02  8.91733D-02  3.52493D+00
   17   -2.10877D+00 -4.79494D-01  8.94169D-02 -4.95442D-01  9.52163D-01 -6.36450D-01  3.52635D+00
   18    2.10870D-01 -3.10712D+00 -8.87437D-02  9.53536D-01 -4.95400D-01  6.37330D-01 -6.36561D-01  3.52485D+00
   19   -3.68820D-01 -3.68868D-01 -4.95452D-01  8.94416D-02  9.52158D-01 -4.95451D-01  9.52155D-01  8.94636D-02  3.52641D+00
   20   -3.29437D-01  3.68846D-01 -8.86695D-02  3.65838D-01  8.91690D-02  9.53695D-01 -4.95306D-01 -8.87874D-02 -6.36465D-01  3.52490D+00
   21    3.68871D-01 -3.29577D-01  9.53591D-01 -8.87949D-02 -4.95442D-01 -8.86995D-02  8.93348D-02  3.65773D-01 -6.36547D-01  6.37341D-01
   22    1.12111D+00  1.12098D+00 -2.10990D+00  1.92515D-01  2.18330D-01 -2.11004D+00  2.18291D-01  1.92472D-01 -3.10465D+00 -4.84655D-01
   23   -1.22142D+00 -3.28104D+00  1.92535D-01 -2.10986D+00  2.18237D-01 -4.84678D-01 -3.10471D+00 -4.84852D-01  2.18287D-01 -2.11013D+00
   24   -3.28096D+00 -1.22103D+00 -4.84763D-01 -4.84946D-01 -3.10478D+00  1.93259D-01  2.18231D-01 -2.10927D+00  2.18228D-01  1.93249D-01


              21           22           23           24
   ----- ----- ----- ----- -----
   21    3.52474D+00
   22   -4.84854D-01  1.92275D+01
   23    1.92488D-01  2.48318D+00  1.92276D+01
   24   -2.10937D+00  2.48299D+00  2.48275D+00  1.92278D+01

 center of mass
 --------------
 x =  -0.00000004 y =  -0.00000008 z =  -0.00000008

 moments of inertia (a.u.)
 ------------------
         209.773116615459           0.000003161003           0.000003428796
           0.000003161003         209.773124659516           0.000000786366
           0.000003428796           0.000000786366         209.773129223326

 Rotational Constants
 --------------------
 A=   0.286978 cm-1  (  0.412887 K)
 B=   0.286978 cm-1  (  0.412887 K)
 C=   0.286978 cm-1  (  0.412887 K)


 Temperature                      =   298.15K
 frequency scaling parameter      =   1.0000

 Zero-Point correction to Energy  =   15.358 kcal/mol  (  0.024474 au)
 Thermal correction to Energy     =   19.396 kcal/mol  (  0.030910 au)
 Thermal correction to Enthalpy   =   19.988 kcal/mol  (  0.031853 au)

 Total Entropy                    =   71.135 cal/mol-K
   - Translational                =   36.314 cal/mol-K (mol. weight =  32.0953)
   - Rotational                   =   23.728 cal/mol-K (symmetry #  =        1)
   - Vibrational                  =   11.093 cal/mol-K

 Cv (constant volume heat capacity) =   25.126 cal/mol-K
   - Translational                  =    2.979 cal/mol-K
   - Rotational                     =    2.979 cal/mol-K
   - Vibrational                    =   19.167 cal/mol-K



          -------------------------------------------------
          NORMAL MODE EIGENVECTORS IN CARTESIAN COORDINATES
          -------------------------------------------------
             (Projected Frequencies expressed in cm-1)

                    1           2           3           4           5           6
 
 P.Frequency       -0.00       -0.00        0.00        0.00        0.00        0.00
 
           1     0.04777     0.07367    -0.22629    -0.02402     0.03026    -0.03164
           2    -0.09414    -0.18546     0.00811    -0.04200     0.12776     0.00019
           3    -0.11757     0.04434     0.05389    -0.08157    -0.17077    -0.08306
           4    -0.09960     0.17152    -0.07722     0.01304     0.05326    -0.14248
           5    -0.01679    -0.20838     0.01285     0.00364    -0.07039    -0.14062
           6    -0.12131     0.04834     0.06209    -0.07716    -0.18011    -0.09647
           7    -0.04572    -0.11693    -0.20496     0.08982    -0.02921     0.04377
           8    -0.10397    -0.19468     0.00951    -0.03791     0.13505     0.01161
           9    -0.20848     0.06203     0.05875    -0.11872     0.02533     0.05575
          10     0.06134     0.07889    -0.23589    -0.03252     0.03232    -0.02964
          11     0.00309     0.00114    -0.02141    -0.16025     0.19657    -0.06180
          12     0.03963    -0.04429    -0.09657    -0.12272    -0.20105     0.01637
          13    -0.04845    -0.10233    -0.19850     0.08594    -0.02503     0.03435
          14     0.00208    -0.00947    -0.01968    -0.15196     0.18305    -0.06579
          15    -0.05128    -0.02660    -0.09171    -0.15987    -0.00495     0.15518
          16    -0.09688     0.15692    -0.08369     0.01692     0.04908    -0.13305
          17     0.08043    -0.02178    -0.01668    -0.11461    -0.00159    -0.20261
          18     0.02708    -0.03891    -0.08871    -0.12252    -0.18960     0.01836
          19    -0.19310    -0.01908    -0.05589     0.12688    -0.00621    -0.06707
          20    -0.01579    -0.19777     0.01112    -0.00465    -0.05688    -0.13663
          21    -0.19592     0.05665     0.05089    -0.11892     0.01387     0.05376
          22    -0.20666    -0.02430    -0.04630     0.13538    -0.00827    -0.06907
          23     0.09027    -0.01256    -0.01807    -0.11870    -0.00887    -0.21403
          24    -0.04754    -0.03059    -0.09991    -0.16427     0.00439     0.16860

                    7           8           9          10          11          12
 
 P.Frequency      302.75      302.76      347.02      347.03      347.04      443.55
 
           1     0.04108     0.14862    -0.15416     0.01341    -0.10514    -0.10807
           2     0.10816    -0.10987    -0.16198     0.06589     0.06653    -0.10806
           3    -0.14921    -0.03873    -0.14985    -0.10891     0.02645    -0.10809
           4    -0.00044    -0.00193     0.01626     0.06588    -0.01397    -0.02908
           5    -0.00131     0.00148     0.01672     0.06286    -0.02387    -0.02907
           6    -0.00151    -0.00039    -0.02512    -0.06243     0.01793     0.02883
           7    -0.00062    -0.00186     0.02431    -0.05058    -0.04063    -0.02914
           8     0.00110    -0.00112    -0.03261     0.04454     0.04251     0.02869
           9     0.00188     0.00061     0.02411    -0.04342    -0.04825    -0.02912
          10     0.00042     0.00152    -0.02783     0.01243    -0.06264     0.02873
          11    -0.00146     0.00132     0.01956    -0.01868     0.06376    -0.02916
          12     0.00194     0.00038     0.01889    -0.00843     0.06610    -0.02906
          13    -0.04098    -0.14857     0.00991    -0.18283    -0.03775     0.10840
          14    -0.10807     0.10987     0.00210    -0.13035     0.13400     0.10840
          15    -0.14915    -0.03871     0.14314     0.11628    -0.02903    -0.10878
          16    -0.04114    -0.14855    -0.01537     0.18062     0.04563     0.10839
          17     0.10808    -0.10979     0.15626    -0.07223    -0.07228    -0.10882
          18     0.14917     0.03876    -0.01100     0.05835     0.17727     0.10839
          19     0.04103     0.14848     0.14783    -0.01562     0.11297    -0.10882
          20    -0.10819     0.10981    -0.00693     0.12396    -0.13973     0.10839
          21     0.14921     0.03869     0.00524    -0.05078    -0.17983     0.10840
          22     0.00068     0.00246     0.06933     0.00304     0.00788     0.03012
          23     0.00178    -0.00182     0.06980    -0.00010    -0.00244     0.03015
          24    -0.00251    -0.00065     0.06896     0.01025     0.00000     0.02987

                   13          14          15          16          17          18
 
 P.Frequency      493.35      493.35      493.36      754.88      754.88      771.28
 
           1     0.04508    -0.05623    -0.01337    -0.00008    -0.00004    -0.01150
           2    -0.04617     0.02307    -0.05205     0.00012     0.00026    -0.01193
           3     0.00108     0.03311     0.06529    -0.00004    -0.00026    -0.01331
           4    -0.35939    -0.25904    -0.11973     0.38796     0.13415     0.21665
           5     0.35261     0.05180    -0.28912    -0.30739     0.27178     0.21796
           6    -0.00678    -0.20727    -0.40887     0.07834     0.39491     0.01644
           7     0.35866     0.25982     0.11991     0.39154     0.13092     0.22363
           8     0.28887    -0.14437     0.32550     0.30025    -0.26629     0.00561
           9    -0.07009    -0.40441     0.20549    -0.07553    -0.40192     0.22876
          10    -0.28205     0.35180     0.08345    -0.37850    -0.12866     0.00212
          11    -0.35189    -0.05222     0.28988    -0.31254     0.26776     0.22680
          12     0.07005     0.40379    -0.20654    -0.08427    -0.40271     0.23075
          13    -0.05725    -0.04157    -0.01907    -0.00157    -0.00030    -0.03221
          14     0.05617     0.00843    -0.04631     0.00141    -0.00055    -0.03265
          15    -0.00109    -0.03324    -0.06558    -0.00004    -0.00027    -0.05248
          16     0.05744     0.04135     0.01907    -0.00125    -0.00066    -0.03156
          17     0.04632    -0.02316     0.05219    -0.00008     0.00022    -0.05173
          18    -0.01127    -0.06444     0.03306     0.00067     0.00127    -0.03339
          19    -0.04524     0.05642     0.01336     0.00014     0.00004    -0.05148
          20    -0.05635    -0.00833     0.04614     0.00092    -0.00096    -0.03181
          21     0.01128     0.06460    -0.03273    -0.00015     0.00123    -0.03319
          22     0.28255    -0.35240    -0.08356    -0.38181    -0.12971     0.43995
          23    -0.28935     0.14471    -0.32607     0.30315    -0.26605     0.44155
          24     0.00680     0.20767     0.40965     0.07849     0.39593     0.44553

                   19          20          21          22          23          24
 
 P.Frequency      771.62      771.64      809.26      809.40      809.82      924.89
 
           1     0.05729     0.01718    -0.00852    -0.02466    -0.02791     0.01130
           2    -0.04328     0.04117    -0.01803     0.01392    -0.03066     0.01128
           3    -0.01379    -0.05783     0.02037     0.00260    -0.03222     0.01126
           4    -0.22464    -0.34839    -0.33206     0.32843     0.14016    -0.28691
           5     0.04342    -0.41206    -0.14849    -0.42148     0.19472    -0.28673
           6     0.11189     0.46210     0.06529     0.05167     0.48095     0.28479
           7    -0.37607     0.16114     0.46648     0.09038     0.10662    -0.28716
           8     0.34666    -0.32660     0.01030     0.06880     0.48357     0.28477
           9    -0.18756     0.36361    -0.09103    -0.43934     0.19191    -0.28669
          10    -0.45759    -0.13469     0.02395     0.01012     0.48841     0.28478
          11     0.40719    -0.02592     0.45259     0.14988     0.10181    -0.28711
          12     0.32741     0.24042    -0.28834     0.36988     0.13248    -0.28697
          13     0.05099    -0.00971    -0.02066    -0.02680    -0.01727    -0.01094
          14    -0.04961     0.01428    -0.03014     0.01163    -0.02001    -0.01096
          15    -0.00697    -0.02997     0.03443     0.00731    -0.01482     0.01113
          16     0.03714     0.03678     0.00123    -0.03336    -0.01821    -0.01096
          17    -0.02266     0.02261    -0.02589     0.02518    -0.01234     0.01114
          18    -0.03392    -0.03827     0.03000    -0.00619    -0.02249    -0.01096
          19     0.03087     0.00987    -0.01096    -0.03567    -0.00794     0.01115
          20    -0.01631     0.04950    -0.01366     0.02735    -0.02259    -0.01096
          21     0.01319    -0.04951     0.02460     0.01606    -0.02414    -0.01098
          22    -0.16905    -0.05479     0.11248     0.40987    -0.23865     0.28547
          23     0.12070    -0.12348     0.29627    -0.34078    -0.18411     0.28561
          24     0.03709     0.15614    -0.44744    -0.11994    -0.15325     0.28572



 ----------------------------------------------------------------------------
 Normal Eigenvalue ||    Projected Derivative Dipole Moments (debye/angs)
  Mode   [cm**-1]  ||      [d/dqX]             [d/dqY]           [d/dqZ]
 ------ ---------- || ------------------ ------------------ -----------------
    1       -0.000 ||      -0.001              -0.000            -0.001
    2       -0.000 ||       0.000              -0.001             0.000
    3        0.000 ||       0.001               0.000             0.000
    4        0.000 ||      -0.000               0.001             0.001
    5        0.000 ||       0.000               0.000            -0.001
    6        0.000 ||      -0.000              -0.001             0.000
    7      302.755 ||      -0.000              -0.000             0.001
    8      302.764 ||      -0.001               0.000             0.000
    9      347.018 ||      -0.455              -0.407            -0.482
   10      347.028 ||      -0.171              -0.492             0.577
   11      347.037 ||       0.607              -0.444            -0.198
   12      443.550 ||      -0.002              -0.002            -0.002
   13      493.349 ||       0.001              -0.001             0.000
   14      493.354 ||      -0.001               0.000             0.001
   15      493.360 ||      -0.000              -0.001             0.001
   16      754.883 ||      -0.068               0.059             0.010
   17      754.885 ||      -0.024              -0.025             0.048
   18      771.282 ||      -3.159              -3.193            -3.299
   19      771.617 ||       4.393              -3.285            -1.033
   20      771.640 ||       1.349               3.179            -4.375
   21      809.256 ||      -0.810              -1.826             2.277
   22      809.402 ||      -2.506               1.623             0.411
   23      809.820 ||      -1.486              -1.782            -1.949
   24      924.895 ||       0.013               0.012             0.011
 ----------------------------------------------------------------------------



  
  
 ----------------------------------------------------------------------------
 Normal Eigenvalue ||           Projected Infra Red Intensities
  Mode   [cm**-1]  || [atomic units] [(debye/angs)**2] [(KM/mol)] [arbitrary]
 ------ ---------- || -------------- ----------------- ---------- -----------
    1       -0.000 ||    0.000000           0.000         0.000       0.000
    2       -0.000 ||    0.000000           0.000         0.000       0.000
    3        0.000 ||    0.000000           0.000         0.000       0.000
    4        0.000 ||    0.000000           0.000         0.000       0.000
    5        0.000 ||    0.000000           0.000         0.000       0.000
    6        0.000 ||    0.000000           0.000         0.000       0.000
    7      302.755 ||    0.000000           0.000         0.000       0.000
    8      302.764 ||    0.000000           0.000         0.000       0.000
    9      347.018 ||    0.026231           0.605        25.572       1.185
   10      347.028 ||    0.026183           0.604        25.524       1.183
   11      347.037 ||    0.026190           0.604        25.531       1.183
   12      443.550 ||    0.000001           0.000         0.001       0.000
   13      493.349 ||    0.000000           0.000         0.000       0.000
   14      493.354 ||    0.000000           0.000         0.000       0.000
   15      493.360 ||    0.000000           0.000         0.000       0.000
   16      754.883 ||    0.000359           0.008         0.350       0.016
   17      754.885 ||    0.000154           0.004         0.150       0.007
   18      771.282 ||    1.346098          31.056      1312.243      60.820
   19      771.617 ||    1.350382          31.154      1316.419      61.014
   20      771.640 ||    1.346738          31.070      1312.867      60.849
   21      809.256 ||    0.397615           9.173       387.614      17.965
   22      809.402 ||    0.393839           9.086       383.934      17.795
   23      809.820 ||    0.397986           9.182       387.976      17.982
   24      924.895 ||    0.000018           0.000         0.017       0.001
 ----------------------------------------------------------------------------



 vib:animation  F

 Task  times  cpu:     1055.8s     wall:     1240.2s
 
 
                                NWChem Input Module
                                -------------------
 
 
 Summary of allocated global arrays
-----------------------------------
  No active global arrays



                         GA Statistics for process    0
                         ------------------------------

       create   destroy   get      put      acc     scatter   gather  read&inc
calls: 5702     5702     1.63e+06 6.57e+04 3.45e+05    0        0     4.90e+04 
number of processes/call 1.09e+00 1.60e+00 1.02e+00 0.00e+00 0.00e+00
bytes total:             8.16e+09 2.88e+08 1.65e+09 0.00e+00 0.00e+00 3.92e+05
bytes remote:            5.51e+09 9.28e+07 1.11e+09 0.00e+00 0.00e+00 0.00e+00
Max memory consumed for GA by this process: 2387456 bytes
 
MA_summarize_allocated_blocks: starting scan ...
MA_summarize_allocated_blocks: scan completed: 0 heap blocks, 0 stack blocks
MA usage statistics:

	allocation statistics:
					      heap	     stack
					      ----	     -----
	current number of blocks	         0	         0
	maximum number of blocks	        24	        54
	current total bytes		         0	         0
	maximum total bytes		   1797624	  33547048
	maximum total K-bytes		      1798	     33548
	maximum total M-bytes		         2	        34
 
 
                                     CITATION
                                     --------
                Please cite the following reference when publishing
                           results obtained with NWChem:
 
                 M. Valiev, E.J. Bylaska, N. Govind, K. Kowalski,
              T.P. Straatsma, H.J.J. van Dam, D. Wang, J. Nieplocha,
                        E. Apra, T.L. Windus, W.A. de Jong
                 "NWChem: a comprehensive and scalable open-source
                  solution for large scale molecular simulations"
                      Comput. Phys. Commun. 181, 1477 (2010)
                           doi:10.1016/j.cpc.2010.04.018
 
                                      AUTHORS
                                      -------
          E. Apra, E. J. Bylaska, W. A. de Jong, N. Govind, K. Kowalski,
       T. P. Straatsma, M. Valiev, H. J. J. van Dam, D. Wang, T. L. Windus,
        J. Hammond, J. Autschbach, K. Bhaskaran-Nair, J. Brabec, K. Lopata,
        S. Krishnamoorthy, W. Ma, M. Klemm, O. Villa, Y. Chen, V. Anisimov,
    F. Aquino, S. Hirata, M. T. Hackler, T. Risthaus, M. Malagoli, A. Marenich,
   A. Otero-de-la-Roza, J. Mullin, P. Nichols, R. Peverati, J. Pittner, Y. Zhao,
         P.-D. Fan, A. Fonari, R. J. Harrison, M. Dupuis, D. Silverstein,
    D. M. A. Smith, J. Nieplocha, V. Tipparaju, M. Krishnan, B. E. Van Kuiken,
        A. Vazquez-Mayagoitia, L. Jensen, M. Swart, Q. Wu, T. Van Voorhis,
     A. A. Auer, M. Nooijen, L. D. Crosby, E. Brown, G. Cisneros, G. I. Fann,
   H. Fruchtl, J. Garza, K. Hirao, R. A. Kendall, J. A. Nichols, K. Tsemekhman,
    K. Wolinski, J. Anchell, D. E. Bernholdt, P. Borowski, T. Clark, D. Clerc,
   H. Dachsel, M. J. O. Deegan, K. Dyall, D. Elwood, E. Glendening, M. Gutowski,
   A. C. Hess, J. Jaffe, B. G. Johnson, J. Ju, R. Kobayashi, R. Kutteh, Z. Lin,
   R. Littlefield, X. Long, B. Meng, T. Nakajima, S. Niu, L. Pollack, M. Rosing,
   K. Glaesemann, G. Sandrone, M. Stave, H. Taylor, G. Thomas, J. H. van Lenthe,
                               A. T. Wong, Z. Zhang.

 Total times  cpu:     1345.2s     wall:     1586.4s
