 argument  1 = h2o_selci.nw
 argument  2 = -master
 argument  3 = cowboys.emsl.pnl.gov
 argument  4 = 41893
 argument  5 = 1
 argument  6 = 2
 argument  7 = 0
 argument  8 = 0
 


============================== echo of input deck ==============================
# $Id$
echo

# Selected CI with perturbation correction (1 frozen core) geometry
# optimization of the second 1A1 state of H2O in a 6-31g* basis in C2v.
# (the final geometry is linear, one component of a linear 1PI state)

# There are two tasks.  The first defines the CI+PT wavefunction at the
# initial geometry.  The second performs the optimization.

# Because only totally symmetric modes have non-zero gradients and the
# CI+PT also uses symmetry, the speed-up from using symmetry with numerical
# derivatives is proportional to the square of the number of irreducible
# representations.

# There is no print control in the CI so you'll get LOTS of output

start h2o_selcis

title  "Water CI+PT geometry optimization"

geometry
 symmetry c2v
 O 0       0        0.738
 H 0       1.430   -0.369
end

set "ao basis" 6-31g*

basis 6-31g* nosegment noprint
  O library 6-31g*
  H library 6-31g*
end

scf; thresh 1e-6; end

# First form initial CI reference space starting from all
# single excitations from the SCF and then perturbation selecting
# using a threshold of 0.0001 three times -- after this the
# reference should be self consistent.  Compute the first three
# roots to have some confidence that we have the real second root.

set fourindex:occ_frozen  1
set selci:exci 1
set selci:mode select
set "selci:selection thresholds" 0.0001 0.0001 0.0001
set selci:nroot 3

title  "case c2: energy with selected CI module"
task selci

# Now optimize using the CI+PT energy of the second root
# Need to lock the SCF orbitals and CI reference space
# and force regeneration of the MO integrals at each step

set selci:nroot 2
set selci:update  .false.
set "selci:moints:force" true
scf; print low; lock; end

title  "case c3: optimization with selected CI+PT energy"
task selci optimize      # This will be with numerical derivatives
================================================================================


                                         
                                         
 
 
              Northwest Computational Chemistry Package (NWChem) 4.5
              ------------------------------------------------------
 
 
                    Environmental Molecular Sciences Laboratory
                       Pacific Northwest National Laboratory
                                Richland, WA 99352
 
                                         
                                         
 
 
                     COPYRIGHT (C) 1994, 1995, 1996, 1997, 1998,
                            1999, 2000, 2001, 2002, 2003
                        Pacific Northwest National Laboratory,
                             Battelle Memorial Institute.
 
                            >>> All Rights Reserved <<<
 
 
                                    DISCLAIMER
                                    ----------

            This material was prepared as an account of work sponsored
            by an agency of the United States Government.  Neither the
            United States Government nor the United States Department
            of Energy, nor Battelle, nor any of their employees, MAKES
            ANY WARRANTY, EXPRESS OR IMPLIED, OR ASSUMES ANY LEGAL
            LIABILITY OR RESPONSIBILITY FOR THE ACCURACY, COMPLETENESS,
            OR USEFULNESS OF ANY INFORMATION, APPARATUS, PRODUCT,
            SOFTWARE, OR PROCESS DISCLOSED, OR REPRESENTS THAT ITS USE
            WOULD NOT INFRINGE PRIVATELY OWNED RIGHTS.


                                    LIMITED USE
                                    -----------

            This software (including any documentation) is being made
            available to you for your internal use only, solely for use
            in performance of work directly for the U.S. Federal
            Government or work under contracts with the U.S. Department
            of Energy or other U.S. Federal Government agencies.  This
            software is a version which has not yet been evaluated and
            cleared for commercialization.  Adherence to this notice
            may be necessary for the author, Battelle Memorial
            Institute, to successfully assert copyright in and
            commercialize this software. This software is not intended
            for duplication or distribution to third parties without
            the permission of the Manager of Software Products at
            Pacific Northwest National Laboratory, Richland,
            Washington, 99352.


                                  ACKNOWLEDGMENT
                                  --------------

            This software and its documentation were produced with
            Government support under Contract Number DE-AC06-76RLO-1830
            awarded by the United States Department of Energy.  The
            Government retains a paid-up non-exclusive, irrevocable
            worldwide license to reproduce, prepare derivative works,
            perform publicly and display publicly by or for the
            Government, including the right to distribute to other
            Government contractors.


           Job information
           ---------------

    hostname      = cowboys
    program       = /files0/edo/nwchem/bin/SOLARIS64_ULTRA/nwchem
    date          = Wed Apr 16 12:57:56 2003

    compiled      = Wed Apr 16 12:57:24 PDT 2003
    source        = /files0/edo/nwchem
    nwchem branch = Development
    input         = h2o_selci.nw
    prefix        = h2o_selcis.
    data base     = ./h2o_selcis.db
    status        = startup
    nproc         =    2
    time left     =     -1s



           Memory information
           ------------------

    heap      =    6553596 doubles =     50.0 Mbytes
    stack     =    6553593 doubles =     50.0 Mbytes
    global    =   13107200 doubles =    100.0 Mbytes (distinct from heap & stack)
    total     =   26214389 doubles =    200.0 Mbytes
    verify    = yes
    hardfail  = no 


           Directory information
           ---------------------
 
  0 permanent = .
  0 scratch   = .
 
 
 
 
                                NWChem Input Module
                                -------------------
 
 
                                                                                                                Water CI+PT geometry optimization
                                                                                                                ---------------------------------
 

 Scaling coordinates for geometry "geometry" by  1.889725989
 (inverse scale =  0.529177249)

 Turning off AUTOSYM since
 SYMMETRY directive was detected!
 

          ------
          auto-z
          ------
     1 autoz failed with cvr_scaling = 1.2 changing to 1.3
     2 autoz failed with cvr_scaling = 1.3 changing to 1.4
     3 autoz failed with cvr_scaling = 1.4 changing to 1.5
     4 autoz failed with cvr_scaling = 1.5 changing to 1.6
     5 autoz failed with cvr_scaling = 1.6 changing to 1.7

 AUTOZ failed to generate good internal coordinates.
 Cartesian coordinates will be used in optimizations.

 
 
                             Geometry "geometry" -> ""
                             -------------------------
 
 Output coordinates in angstroms (scale by  1.889725989 to convert to a.u.)
 
  No.       Tag          Charge          X              Y              Z
 ---- ---------------- ---------- -------------- -------------- --------------
    1 O                    8.0000     0.00000000     0.00000000     0.22140000
    2 H                    1.0000     0.00000000     1.43000000    -0.88560000
    3 H                    1.0000     0.00000000    -1.43000000    -0.88560000
 
      Atomic Mass 
      ----------- 
 
      O                 15.994910
      H                  1.007825
 

 Effective nuclear repulsion energy (a.u.)       4.8669481691

            Nuclear Dipole moment (a.u.) 
            ----------------------------
        X                 Y               Z
 ---------------- ---------------- ----------------
     0.0000000000     0.0000000000     0.0000000000
 
      Symmetry information
      --------------------
 
 Group name             C2v       
 Group number             16
 Group order               4
 No. of unique centers     2
 
      Symmetry unique atoms
 
     1    2
 
  library name resolved from: .nwchemrc
  library file name is: </msrc/home/edo/nwchem/src/basis/library>
  
                                                                                                             case c2: energy with selected CI module
                                                                                                             ---------------------------------------
 
                                 NWChem SCF Module
                                 -----------------
 
 
                      case c2: energy with selected CI module
 
 

  ao basis        = "6-31g*"
  functions       =    19
  atoms           =     3
  closed shells   =     5
  open shells     =     0
  charge          =   0.00
  wavefunction    = RHF 
  input vectors   = atomic
  output vectors  = ./h2o_selcis.movecs
  use symmetry    = T
  symmetry adapt  = T


 Summary of "ao basis" -> "6-31g*" (cartesian)
 ------------------------------------------------------------------------------
       Tag                 Description            Shells   Functions and Types
 ---------------- ------------------------------  ------  ---------------------
 O                           6-31g*                  4       15   3s2p1d
 H                           6-31g*                  2        2   2s


      Symmetry analysis of basis
      --------------------------
 
        a1         10
        a2          1
        b1          3
        b2          5
 

 Forming initial guess at       1.7s

 
      Superposition of Atomic Density Guess
      -------------------------------------
 
 Sum of atomic energies:         -75.75081731
 
      Non-variational initial energy
      ------------------------------

 Total energy =     -75.035159
 1-e energy   =    -113.907687
 2-e energy   =      34.005579
 HOMO         =      -0.374386
 LUMO         =      -0.130126
 
 
      Symmetry analysis of molecular orbitals - initial
      -------------------------------------------------
 
  Numbering of irreducible representations: 
 
     1 a1          2 a2          3 b1          4 b2      
 
  Orbital symmetries:
 
     1 a1          2 a1          3 b2          4 a1          5 b1      
     6 a1          7 b2          8 a1          9 a1         10 b2      
    11 b1         12 a1         13 b2         14 a1         15 a2      
 

 Starting SCF solution at       2.1s



 ----------------------------------------------
         Quadratically convergent ROHF

 Convergence threshold     :          1.000E-06
 Maximum no. of iterations :           20
 Final Fock-matrix accuracy:          1.000E-08
 ----------------------------------------------


 #quartets = 4.220D+02 #integrals = 6.015D+03 #direct =  0.0% #cached =100.0%


 Integral file          = ./h2o_selcis.aoints.0
 Record size in doubles =  65536        No. of integs per rec  =  43688
 Max. records in memory =      2        Max. records in file   =   1915
 No. of bits per label  =      8        No. of bits per value  =     64


File balance: exchanges=     0  moved=     0  time=   0.0


              iter       energy          gnorm     gmax       time
             ----- ------------------- --------- --------- --------
                 1      -75.4349298207  1.49D+00  7.34D-01      1.6
                 2      -75.5825607840  4.84D-01  2.86D-01      1.6
                 3      -75.6119426710  5.72D-01  3.76D-01      1.7
                 4      -75.6328009078  1.21D-01  6.25D-02      1.8
                 5      -75.6337169332  3.99D-03  2.72D-03      1.9
                 6      -75.6337337584  4.88D-05  2.75D-05      2.2
                 7      -75.6337337587  4.92D-08  2.30D-08      2.4


       Final RHF  results 
       ------------------ 

         Total SCF energy =    -75.633733758652
      One-electron energy =   -114.490176403171
      Two-electron energy =     33.989494475430
 Nuclear repulsion energy =      4.866948169088

        Time for solution =      1.4s


 
       Symmetry analysis of molecular orbitals - final
       -----------------------------------------------
 
  Numbering of irreducible representations: 
 
     1 a1          2 a2          3 b1          4 b2      
 
  Orbital symmetries:
 
     1 a1          2 a1          3 b1          4 b2          5 a1      
     6 a1          7 b2          8 a1          9 b2         10 a1      
    11 b1         12 a1         13 b2         14 a1         15 a2      
 
             Final eigenvalues
             -----------------

              1      
    1  -20.6698
    2   -1.1982
    3   -0.5058
    4   -0.4468
    5   -0.4350
    6   -0.0029
    7    0.0353
    8    0.9365
    9    1.0067
   10    1.0561
   11    1.1592
   12    1.2709
   13    1.2897
   14    2.1018
   15    2.1135
 
                       ROHF Final Molecular Orbital Analysis
                       -------------------------------------
 
 Vector    2  Occ=2.000000D+00  E=-1.198165D+00  Symmetry=a1
   Bfn.  Coefficient  Atom+Function         Bfn.  Coefficient  Atom+Function  
  ----- ------------  ---------------      ----- ------------  ---------------
     2      0.535792  1 O  ls                 6      0.535255  1 O  ls         
     1     -0.229478  1 O  s          
 
 Vector    3  Occ=2.000000D+00  E=-5.058106D-01  Symmetry=b1
   Bfn.  Coefficient  Atom+Function         Bfn.  Coefficient  Atom+Function  
  ----- ------------  ---------------      ----- ------------  ---------------
     3      0.677157  1 O  lx                 7      0.470788  1 O  lx         
 
 Vector    4  Occ=2.000000D+00  E=-4.468020D-01  Symmetry=b2
   Bfn.  Coefficient  Atom+Function         Bfn.  Coefficient  Atom+Function  
  ----- ------------  ---------------      ----- ------------  ---------------
     4      0.443134  1 O  ly                 8      0.356535  1 O  ly         
    19     -0.281670  3 H  s                 17      0.281670  2 H  s          
    16      0.163071  2 H  s                 18     -0.163071  3 H  s          
 
 Vector    5  Occ=2.000000D+00  E=-4.350474D-01  Symmetry=a1
   Bfn.  Coefficient  Atom+Function         Bfn.  Coefficient  Atom+Function  
  ----- ------------  ---------------      ----- ------------  ---------------
     5      0.472791  1 O  lz                 9      0.378197  1 O  lz         
    17     -0.270605  2 H  s                 19     -0.270605  3 H  s          
 
 Vector    6  Occ=0.000000D+00  E=-2.883318D-03  Symmetry=a1
   Bfn.  Coefficient  Atom+Function         Bfn.  Coefficient  Atom+Function  
  ----- ------------  ---------------      ----- ------------  ---------------
    17      0.508335  2 H  s                 19      0.508335  3 H  s          
     9      0.424666  1 O  lz                 5      0.404102  1 O  lz         
     6     -0.258592  1 O  ls                18      0.173242  3 H  s          
    16      0.173242  2 H  s          
 
 Vector    7  Occ=0.000000D+00  E= 3.533271D-02  Symmetry=b2
   Bfn.  Coefficient  Atom+Function         Bfn.  Coefficient  Atom+Function  
  ----- ------------  ---------------      ----- ------------  ---------------
    17      0.522939  2 H  s                 19     -0.522939  3 H  s          
     8     -0.476404  1 O  ly                 4     -0.435196  1 O  ly         
    16      0.181290  2 H  s                 18     -0.181290  3 H  s          
 
 Vector    8  Occ=0.000000D+00  E= 9.365083D-01  Symmetry=a1
   Bfn.  Coefficient  Atom+Function         Bfn.  Coefficient  Atom+Function  
  ----- ------------  ---------------      ----- ------------  ---------------
    16      0.878639  2 H  s                 18      0.878639  3 H  s          
    17     -0.803637  2 H  s                 19     -0.803637  3 H  s          
     9     -0.328854  1 O  lz                 5      0.213462  1 O  lz         
 
 Vector    9  Occ=0.000000D+00  E= 1.006662D+00  Symmetry=b2
   Bfn.  Coefficient  Atom+Function         Bfn.  Coefficient  Atom+Function  
  ----- ------------  ---------------      ----- ------------  ---------------
    17      0.947044  2 H  s                 19     -0.947044  3 H  s          
    16     -0.913131  2 H  s                 18      0.913131  3 H  s          
     8     -0.393809  1 O  ly                 4      0.186567  1 O  ly         
 
 Vector   10  Occ=0.000000D+00  E= 1.056141D+00  Symmetry=a1
   Bfn.  Coefficient  Atom+Function         Bfn.  Coefficient  Atom+Function  
  ----- ------------  ---------------      ----- ------------  ---------------
     6      2.467496  1 O  ls                 2     -1.312372  1 O  ls         
    10     -0.461546  1 O  dxx               15     -0.457837  1 O  dzz        
    13     -0.455842  1 O  dyy               19     -0.414568  3 H  s          
    17     -0.414568  2 H  s                  5     -0.251225  1 O  lz         
    18      0.193485  3 H  s                 16      0.193485  2 H  s          
 
 Vector   11  Occ=0.000000D+00  E= 1.159166D+00  Symmetry=b1
   Bfn.  Coefficient  Atom+Function         Bfn.  Coefficient  Atom+Function  
  ----- ------------  ---------------      ----- ------------  ---------------
     7      1.055619  1 O  lx                 3     -0.936752  1 O  lx         
 
 Vector   12  Occ=0.000000D+00  E= 1.270911D+00  Symmetry=a1
   Bfn.  Coefficient  Atom+Function         Bfn.  Coefficient  Atom+Function  
  ----- ------------  ---------------      ----- ------------  ---------------
     9      1.049998  1 O  lz                 5     -0.928143  1 O  lz         
     6     -0.872594  1 O  ls                 2      0.485683  1 O  ls         
    13      0.179410  1 O  dyy               16      0.166788  2 H  s          
    18      0.166788  3 H  s          
 
 Vector   13  Occ=0.000000D+00  E= 1.289738D+00  Symmetry=b2
   Bfn.  Coefficient  Atom+Function         Bfn.  Coefficient  Atom+Function  
  ----- ------------  ---------------      ----- ------------  ---------------
     8      1.104096  1 O  ly                 4     -0.974377  1 O  ly         
    18      0.192115  3 H  s                 16     -0.192115  2 H  s          
 
 Vector   14  Occ=0.000000D+00  E= 2.101777D+00  Symmetry=a1
   Bfn.  Coefficient  Atom+Function         Bfn.  Coefficient  Atom+Function  
  ----- ------------  ---------------      ----- ------------  ---------------
    15      0.896373  1 O  dzz               13     -0.831739  1 O  dyy        
 
 Vector   15  Occ=0.000000D+00  E= 2.113460D+00  Symmetry=a2
   Bfn.  Coefficient  Atom+Function         Bfn.  Coefficient  Atom+Function  
  ----- ------------  ---------------      ----- ------------  ---------------
    11      1.732051  1 O  dxy        
 

 center of mass
 --------------
 x =   0.00000000 y =   0.00000000 z =   0.18426757

 moments of inertia (a.u.)
 ------------------
          22.552844630886           0.000000000000           0.000000000000
           0.000000000000           7.833622161729           0.000000000000
           0.000000000000           0.000000000000          14.719222469158
 
  Mulliken analysis of the total density
  --------------------------------------

    Atom       Charge   Shell Charges
 -----------   ------   -------------------------------------------------------
    1 O    8     8.40   2.00  3.47  2.92  0.01
    2 H    1     0.80   0.25  0.55
    3 H    1     0.80   0.25  0.55

 Parallel integral file used       2 records with       0 large values

 
 
                   Four-Index Transformation
                   -------------------------
 
            case c2: energy with selected CI module
 
          Twofold algorithm used
          Number of basis functions:             19
          Number of shells:                       8
          Number of MOs:                         19
          Number of active MOs:                  18
          Active MO range:                        2- 19
          Block length:                          10
          Number of operator matrices in core:  171
          Number of passes:                       1
          Use symmetry:                           T
          Symmetry block MOs:                     F
          File format:                        nwchem    
          MO integrals file:                  ./h2o_selcis.moints
          MO coefficients read from:          ./h2o_selcis.movecs

          case c2: energy with selected CI module

 
           Symmetry of input active orbitals 
 
 1 3 4 1 1 4 1 4 1 3 1 4 1 2 3 4 1 1
 
 
           Map from input to output MO order
 
 2-> 1   3-> 2   4-> 3   5-> 4   6-> 5   7-> 6   8-> 7   9-> 8  10-> 9  11->10
12->11  13->12  14->13  15->14  16->15  17->16  18->17  19->18
 
           Map from output to input MO order
 
 1-> 2   2-> 3   3-> 4   4-> 5   5-> 6   6-> 7   7-> 8   8-> 9   9->10  10->11
11->12  12->13  13->14  14->15  15->16  16->17  17->18  18->19

 #quartets = 4.220D+02 #integrals = 6.015D+03 #direct =  0.0% #cached =100.0%


 Integral file          = ./h2o_selcis.aoints.0
 Record size in doubles =  65536        No. of integs per rec  =  43688
 Max. records in memory =      2        Max. records in file   =   1887
 No. of bits per label  =      8        No. of bits per value  =     64


File balance: exchanges=     0  moved=     0  time=   0.0


 Parallel integral file used       2 records with       0 large values


          Time for two-index transform:          0.7s
          Effective frozen-core energy:        -55.4049097982

     Pass:    1     Index range:    2  -   19     Time:      0.44
 hamiltonian matrices changed to permanant


             Configuration Generator v1.0 8/31/89
             -----------------------


 case c2: energy with selected CI module                                         

 state multiplicity            1
 state symmetry                1
 no. of electrons              8
 no. of orbitals              18
 fullci dimension          0.59784000000000D+06
 no. of input references       1
 no. of refgen sets            0
 no. of symmetry types         4
 no. of orbitals per sym       9    1    3    5
    1(1)    2(3)    3(4)    4(1)    5(1)    6(4)    7(1)    8(4)    9(1)
   10(3)   11(1)   12(4)   13(1)   14(2)   15(3)   16(4)   17(1)   18(1)


 Input reference functions 


   1(2)  2(2)  3(2)  4(2)


 Apply reference generators 

 After excit   1 no. of references    21

 no. of spin functions        1    1

 no. of references after symmetry screen    21
 dimension of the CI is      21


 Final list of reference functions


   1(2)  2(2)  3(2)  4(2)
   1(1)  2(2)  3(2)  4(2) 18(1)
   1(1)  2(2)  3(2)  4(2) 17(1)
   1(1)  2(2)  3(2)  4(2) 13(1)
   1(1)  2(2)  3(2)  4(2) 11(1)
   1(1)  2(2)  3(2)  4(2)  9(1)
   1(1)  2(2)  3(2)  4(2)  7(1)
   1(1)  2(2)  3(2)  4(2)  5(1)
   1(2)  2(1)  3(2)  4(2) 15(1)
   1(2)  2(1)  3(2)  4(2) 10(1)
   1(2)  2(2)  3(1)  4(2) 16(1)
   1(2)  2(2)  3(1)  4(2) 12(1)
   1(2)  2(2)  3(1)  4(2)  8(1)
   1(2)  2(2)  3(1)  4(2)  6(1)
   1(2)  2(2)  3(2)  4(1) 18(1)
   1(2)  2(2)  3(2)  4(1) 17(1)
   1(2)  2(2)  3(2)  4(1) 13(1)
   1(2)  2(2)  3(2)  4(1) 11(1)
   1(2)  2(2)  3(2)  4(1)  9(1)
   1(2)  2(2)  3(2)  4(1)  7(1)
   1(2)  2(2)  3(2)  4(1)  5(1)

 minimal core high water =   9830448 real numbers (spare =   3276761)

 CONF: Total cpu       0.0 : Total wall85899345.9

                Configuration Driven CI Program v1.0 18/8/89
                --------------------------------------------


 state multiplicity            1
 no. of electrons              8
 state symmetry                1
 no. of orbitals              18
 no. of configurations        21
 no. of orbital conf.         21
 no. ints per occ.             1
 no. bits per int.            64
 max no. open shells           4
 nfmax                         2
 nfmax2                        1
 no. of spin functions         1    1    2
 no. of symmetry types         4
 no. of orbitals per sym       9    1    3    5
 symmetry of the orbitals

  1  3  4  1  1  4  1  4  1  3  1  4  1  2  3  4  1  1
 no. of integrals            4349
 nuclear replusion energy is     -55.404909798232

 total no. of hamiltonian records          2
 total no. of hamiltonian elements       210


 minimal core high water =      5147 real numbers (spare =  13102062)

 CI: Total cpu       0.0 : Total wall**********


 Davidson CI diagonalisation 
 ---------------------------

 case c2: energy with selected CI module                                         

 state multiplicity            1
 no. of electrons              8
 state symmetry                1
 no. of orbitals              18
 no. of configurations        21
 no. of orbital conf.         21
 no. of roots sought           3
 convergence            0.10D-05

 
  Guess vector  1
 
     coeff.      conf  spin     conf norm
 ------------  ------  ----  ------------
     1.000000       1     1      1.000000      1(2)  2(2)  3(2)  4(2)

 Analysis of CI Coefficients by Size 
 ----------------------------------- 

         Value            Count 
     -------------        ----- 
      1.0000000000            1
      0.3162277660            0
      0.1000000000            0
      0.0316227766            0
      0.0100000000            0
      0.0031622777            0
      0.0010000000            0
      0.0003162278            0
      0.0001000000            0
      0.0000316228            0
      0.0000100000            0
      0.0000031623            0
      0.0000010000            0
      0.0000003162            0
      0.0000001000            0
      0.0000000316            0
      0.0000000100            0
      0.0000000032            0
      0.0000000010            0
      0.0000000003            0
      0.0000000001            0

                      ---------
                              1
 
  Guess vector  2
 
     coeff.      conf  spin     conf norm
 ------------  ------  ----  ------------
     1.000000      21     1      1.000000      1(2)  2(2)  3(2)  4(1)  5(1)

 Analysis of CI Coefficients by Size 
 ----------------------------------- 

         Value            Count 
     -------------        ----- 
      1.0000000000            1
      0.3162277660            0
      0.1000000000            0
      0.0316227766            0
      0.0100000000            0
      0.0031622777            0
      0.0010000000            0
      0.0003162278            0
      0.0001000000            0
      0.0000316228            0
      0.0000100000            0
      0.0000031623            0
      0.0000010000            0
      0.0000003162            0
      0.0000001000            0
      0.0000000316            0
      0.0000000100            0
      0.0000000032            0
      0.0000000010            0
      0.0000000003            0
      0.0000000001            0

                      ---------
                              1
 
  Guess vector  3
 
     coeff.      conf  spin     conf norm
 ------------  ------  ----  ------------
     1.000000      14     1      1.000000      1(2)  2(2)  3(1)  4(2)  6(1)

 Analysis of CI Coefficients by Size 
 ----------------------------------- 

         Value            Count 
     -------------        ----- 
      1.0000000000            1
      0.3162277660            0
      0.1000000000            0
      0.0316227766            0
      0.0100000000            0
      0.0031622777            0
      0.0010000000            0
      0.0003162278            0
      0.0001000000            0
      0.0000316228            0
      0.0000100000            0
      0.0000031623            0
      0.0000010000            0
      0.0000003162            0
      0.0000001000            0
      0.0000000316            0
      0.0000000100            0
      0.0000000032            0
      0.0000000010            0
      0.0000000003            0
      0.0000000001            0

                      ---------
                              1
 iter= 1  nvec= 1  root=   -75.63373376  de=   -75.63373376  conv=   0.00000001
                   root=   -75.49825913  de=   -75.49825913  conv=   0.07555969
                   root=   -75.13548563  de=   -75.13548563  conv=   0.37208550
 iter= 2  nvec= 2  root=   -75.63373376  de=     0.00000000  conv=   0.00000000
                   root=   -75.50540858  de=    -0.00714945  conv=   0.00415986
                   root=   -75.21669365  de=    -0.08120802  conv=   0.04162112
 iter= 3  nvec= 3  root=   -75.63373376  de=     0.00000000  conv=   0.00000000
                   root=   -75.50542981  de=    -0.00002123  conv=   0.00019807
                   root=   -75.21848799  de=    -0.00179434  conv=   0.00282685
 iter= 4  nvec= 4  root=   -75.63373376  de=     0.00000000  conv=   0.00000000
                   root=   -75.50542988  de=    -0.00000007  conv=   0.00001400
                   root=   -75.21849889  de=    -0.00001089  conv=   0.00024686
 iter= 5  nvec= 5  root=   -75.63373376  de=     0.00000000  conv=   0.00000000
                   root=   -75.50542988  de=     0.00000000  conv=   0.00000022
                   root=   -75.21849894  de=    -0.00000006  conv=   0.00000501
 iter= 6  nvec= 6  root=   -75.63373376  de=     0.00000000  conv=   0.00000000
                   root=   -75.50542988  de=     0.00000000  conv=   0.00000000
                   root=   -75.21849894  de=     0.00000000  conv=   0.00000006


 Root  1 final energy =      -75.6337337587

     coeff.      conf  spin     conf norm
 ------------  ------  ----  ------------
     1.000000       1     1      1.000000      1(2)  2(2)  3(2)  4(2)
     0.000000      21     1      0.000000      1(2)  2(2)  3(2)  4(1)  5(1)
     0.000000      14     1      0.000000      1(2)  2(2)  3(1)  4(2)  6(1)
     0.000000       8     1      0.000000      1(1)  2(2)  3(2)  4(2)  5(1)
     0.000000      10     1      0.000000      1(2)  2(1)  3(2)  4(2) 10(1)
     0.000000       5     1      0.000000      1(1)  2(2)  3(2)  4(2) 11(1)
     0.000000      19     1      0.000000      1(2)  2(2)  3(2)  4(1)  9(1)
     0.000000      20     1      0.000000      1(2)  2(2)  3(2)  4(1)  7(1)
     0.000000       9     1      0.000000      1(2)  2(1)  3(2)  4(2) 15(1)
     0.000000       2     1      0.000000      1(1)  2(2)  3(2)  4(2) 18(1)
     0.000000      11     1      0.000000      1(2)  2(2)  3(1)  4(2) 16(1)
     0.000000      13     1      0.000000      1(2)  2(2)  3(1)  4(2)  8(1)
     0.000000      17     1      0.000000      1(2)  2(2)  3(2)  4(1) 13(1)
     0.000000       7     1      0.000000      1(1)  2(2)  3(2)  4(2)  7(1)
     0.000000      16     1      0.000000      1(2)  2(2)  3(2)  4(1) 17(1)
     0.000000      18     1      0.000000      1(2)  2(2)  3(2)  4(1) 11(1)
     0.000000      12     1      0.000000      1(2)  2(2)  3(1)  4(2) 12(1)
     0.000000      15     1      0.000000      1(2)  2(2)  3(2)  4(1) 18(1)
     0.000000       4     1      0.000000      1(1)  2(2)  3(2)  4(2) 13(1)
     0.000000       6     1      0.000000      1(1)  2(2)  3(2)  4(2)  9(1)

 Analysis of CI Coefficients by Size 
 ----------------------------------- 

         Value            Count 
     -------------        ----- 
      1.0000000000            1
      0.3162277660            0
      0.1000000000            0
      0.0316227766            0
      0.0100000000            0
      0.0031622777            0
      0.0010000000            0
      0.0003162278            0
      0.0001000000            0
      0.0000316228            0
      0.0000100000            0
      0.0000031623            0
      0.0000010000            0
      0.0000003162            0
      0.0000001000            0
      0.0000000316            0
      0.0000000100            4
      0.0000000032            5
      0.0000000010            5
      0.0000000003            4
      0.0000000001            2

                      ---------
                             21


 Root  2 final energy =      -75.5054298757

     coeff.      conf  spin     conf norm
 ------------  ------  ----  ------------
     0.779753      21     1      0.779753      1(2)  2(2)  3(2)  4(1)  5(1)
     0.620955      14     1      0.620955      1(2)  2(2)  3(1)  4(2)  6(1)
    -0.048481      18     1      0.048481      1(2)  2(2)  3(2)  4(1) 11(1)
     0.044358      12     1      0.044358      1(2)  2(2)  3(1)  4(2) 12(1)
     0.025295       8     1      0.025295      1(1)  2(2)  3(2)  4(2)  5(1)
    -0.024093      13     1      0.024093      1(2)  2(2)  3(1)  4(2)  8(1)
     0.016423      20     1      0.016423      1(2)  2(2)  3(2)  4(1)  7(1)
     0.013995      10     1      0.013995      1(2)  2(1)  3(2)  4(2) 10(1)
     0.012665      19     1      0.012665      1(2)  2(2)  3(2)  4(1)  9(1)
    -0.007507       5     1      0.007507      1(1)  2(2)  3(2)  4(2) 11(1)
     0.006995       6     1      0.006995      1(1)  2(2)  3(2)  4(2)  9(1)
    -0.006327      17     1      0.006327      1(2)  2(2)  3(2)  4(1) 13(1)
    -0.006040      11     1      0.006040      1(2)  2(2)  3(1)  4(2) 16(1)
    -0.006015      16     1      0.006015      1(2)  2(2)  3(2)  4(1) 17(1)
     0.003143       4     1      0.003143      1(1)  2(2)  3(2)  4(2) 13(1)
    -0.001859       2     1      0.001859      1(1)  2(2)  3(2)  4(2) 18(1)
    -0.001517      15     1      0.001517      1(2)  2(2)  3(2)  4(1) 18(1)
     0.001266       7     1      0.001266      1(1)  2(2)  3(2)  4(2)  7(1)
     0.000958       9     1      0.000958      1(2)  2(1)  3(2)  4(2) 15(1)
    -0.000716       3     1      0.000716      1(1)  2(2)  3(2)  4(2) 17(1)

 Analysis of CI Coefficients by Size 
 ----------------------------------- 

         Value            Count 
     -------------        ----- 
      1.0000000000            2
      0.3162277660            0
      0.1000000000            0
      0.0316227766            4
      0.0100000000            8
      0.0031622777            2
      0.0010000000            4
      0.0003162278            0
      0.0001000000            0
      0.0000316228            0
      0.0000100000            0
      0.0000031623            0
      0.0000010000            0
      0.0000003162            0
      0.0000001000            0
      0.0000000316            0
      0.0000000100            1
      0.0000000032            0
      0.0000000010            0
      0.0000000003            0
      0.0000000001            0

                      ---------
                             21


 Root  3 final energy =      -75.2184989429

     coeff.      conf  spin     conf norm
 ------------  ------  ----  ------------
    -0.759399      14     1      0.759399      1(2)  2(2)  3(1)  4(2)  6(1)
     0.598656      21     1      0.598656      1(2)  2(2)  3(2)  4(1)  5(1)
     0.202355      10     1      0.202355      1(2)  2(1)  3(2)  4(2) 10(1)
     0.079752       6     1      0.079752      1(1)  2(2)  3(2)  4(2)  9(1)
     0.072072      19     1      0.072072      1(2)  2(2)  3(2)  4(1)  9(1)
     0.058162       8     1      0.058162      1(1)  2(2)  3(2)  4(2)  5(1)
     0.052315      18     1      0.052315      1(2)  2(2)  3(2)  4(1) 11(1)
    -0.050772      20     1      0.050772      1(2)  2(2)  3(2)  4(1)  7(1)
     0.032906      12     1      0.032906      1(2)  2(2)  3(1)  4(2) 12(1)
    -0.031999       5     1      0.031999      1(1)  2(2)  3(2)  4(2) 11(1)
    -0.022761      13     1      0.022761      1(2)  2(2)  3(1)  4(2)  8(1)
    -0.017551       2     1      0.017551      1(1)  2(2)  3(2)  4(2) 18(1)
    -0.017469       7     1      0.017469      1(1)  2(2)  3(2)  4(2)  7(1)
    -0.014499       9     1      0.014499      1(2)  2(1)  3(2)  4(2) 15(1)
    -0.013763      17     1      0.013763      1(2)  2(2)  3(2)  4(1) 13(1)
    -0.007090       3     1      0.007090      1(1)  2(2)  3(2)  4(2) 17(1)
    -0.004034      15     1      0.004034      1(2)  2(2)  3(2)  4(1) 18(1)
    -0.003287      11     1      0.003287      1(2)  2(2)  3(1)  4(2) 16(1)
    -0.002774       4     1      0.002774      1(1)  2(2)  3(2)  4(2) 13(1)
     0.001457      16     1      0.001457      1(2)  2(2)  3(2)  4(1) 17(1)

 Analysis of CI Coefficients by Size 
 ----------------------------------- 

         Value            Count 
     -------------        ----- 
      1.0000000000            2
      0.3162277660            1
      0.1000000000            3
      0.0316227766            5
      0.0100000000            5
      0.0031622777            3
      0.0010000000            1
      0.0003162278            0
      0.0001000000            0
      0.0000316228            0
      0.0000100000            0
      0.0000031623            0
      0.0000010000            0
      0.0000003162            0
      0.0000001000            0
      0.0000000316            1
      0.0000000100            0
      0.0000000032            0
      0.0000000010            0
      0.0000000003            0
      0.0000000001            0

                      ---------
                             21

 minimal core high water =      3223 real numbers (spare =  13103986)

 DAVIDS: Total cpu       0.1 : Total wall**********

                Perturbation Selection Program v1.0 9/28/89
                -------------------------------------------


 state multiplicity            1
 no. of electrons              8
 state symmetry                1
 no. of orbitals              18
 no. of configurations        21
 no. of orbital conf.         21
 no. ints per occ.             1
 no. bits per int.            64
 max no. open shells           8
 nfmax                        14
 nfmax2                        5
 no. of spin functions         1    1    2    5   14
 no. of symmetry types         4
 no. of orbitals per sym       9    1    3    5
 no. of roots sought           3
 symmetry of the orbitals

  1  3  4  1  1  4  1  4  1  3  1  4  1  2  3  4  1  1

  EN| Selection threshold    0.0001000000
 no. of integrals            4349
 nuclear replusion energy is     -55.404909798232

 Average occupancy of each orbital 
 1.67 1.90 1.81 1.67 0.10 0.05 0.10 0.05 0.10 0.05 0.10 0.05 0.10 0.00 0.05
 0.05 0.10 0.10
 
  Orbitals sorted by occupation number 
   2   3   1   4   5   7   9  11  13  17  18  12   6  15  16  10   8  14
 

 time in initialisation: cpu=  0.04, wall=******


 time in select: cpu=     0.09, wall=*********

 Analysis of PT Interactions by Size 
 ----------------------------------- 

      Interaction         Count 
     -------------        ----- 
      1.0000000000            0
      0.3162277660            2
      0.1000000000            3
      0.0316227766           10
      0.0100000000           24
      0.0031622777          139
      0.0010000000          181
      0.0003162278          221
      0.0001000000          289
      0.0000316228          388
      0.0000100000          515
      0.0000031623          415
      0.0000010000          504
      0.0000003162          568
      0.0000001000          520
      0.0000000316          441
      0.0000000100          373
      0.0000000032          287
      0.0000000010          197
      0.0000000003          128
      0.0000000001          223

                      ---------
                           5428

       Total Perturbation Corrections for CI energies 
       ---------------------------------------------- 

 EN|   ci energy      pt correction     ci+pt energy    PT norm 
 EN| ---------------  ---------------  ---------------  ---------
 EN:   -75.63373376      -0.45332916     -76.08706292   0.795988
 EN:   -75.50542988      -0.32696875     -75.83239863   0.851874
 EN:   -75.21849894      -0.89038119     -76.10888014   4.762997

  Selection based on EN pt 

 No. of CSF in new ci                737
 No. of orbital conf in new ci       378



           Predicted New CI Energies 
           ------------------------- 

   ci energy      pt correction     ci+pt energy
 ---------------  ---------------  ---------------
   -75.63373376      -0.45029583     -76.08402958  *********
    -0.32038776     -75.82581764     -75.21849894  -0.879861
   -76.09835958

 minimal core high water =    112376 real numbers (spare =  12994833)

 SELECT: Total cpu       0.1 : Total wall**********

                Configuration Driven CI Program v1.0 18/8/89
                --------------------------------------------


 state multiplicity            1
 no. of electrons              8
 state symmetry                1
 no. of orbitals              18
 no. of configurations       737
 no. of orbital conf.        378
 no. ints per occ.             1
 no. bits per int.            64
 max no. open shells           8
 nfmax                        14
 nfmax2                        5
 no. of spin functions         1    1    2    5   14
 no. of symmetry types         4
 no. of orbitals per sym       9    1    3    5
 symmetry of the orbitals

  1  3  4  1  1  4  1  4  1  3  1  4  1  2  3  4  1  1
 no. of integrals            4349
 nuclear replusion energy is     -55.404909798232

 total no. of hamiltonian records          4
 total no. of hamiltonian elements     44514


 minimal core high water =      9713 real numbers (spare =  13097496)

 CI: Total cpu       0.2 : Total wall**********


 Davidson CI diagonalisation 
 ---------------------------

 case c2: energy with selected CI module                                         

 state multiplicity            1
 no. of electrons              8
 state symmetry                1
 no. of orbitals              18
 no. of configurations       737
 no. of orbital conf.        378
 no. of roots sought           3
 convergence            0.10D-05


 Using trial vectors from disk 

 Eigenvalues from disk 

        -75.63373376       -75.50542988       -75.21849894
 
  Guess vector  1
 
     coeff.      conf  spin     conf norm
 ------------  ------  ----  ------------
     1.000000       1     1      1.000000      1(2)  2(2)  3(2)  4(2)
     0.000000      21     1      0.000000      1(2)  2(2)  3(2)  4(1)  5(1)
     0.000000      14     1      0.000000      1(2)  2(2)  3(1)  4(2)  6(1)
     0.000000       8     1      0.000000      1(1)  2(2)  3(2)  4(2)  5(1)
     0.000000      10     1      0.000000      1(2)  2(1)  3(2)  4(2) 10(1)
     0.000000       5     1      0.000000      1(1)  2(2)  3(2)  4(2) 11(1)
     0.000000      19     1      0.000000      1(2)  2(2)  3(2)  4(1)  9(1)
     0.000000      20     1      0.000000      1(2)  2(2)  3(2)  4(1)  7(1)
     0.000000       9     1      0.000000      1(2)  2(1)  3(2)  4(2) 15(1)
     0.000000       2     1      0.000000      1(1)  2(2)  3(2)  4(2) 18(1)
     0.000000      11     1      0.000000      1(2)  2(2)  3(1)  4(2) 16(1)
     0.000000      13     1      0.000000      1(2)  2(2)  3(1)  4(2)  8(1)
     0.000000      17     1      0.000000      1(2)  2(2)  3(2)  4(1) 13(1)
     0.000000       7     1      0.000000      1(1)  2(2)  3(2)  4(2)  7(1)
     0.000000      16     1      0.000000      1(2)  2(2)  3(2)  4(1) 17(1)
     0.000000      18     1      0.000000      1(2)  2(2)  3(2)  4(1) 11(1)
     0.000000      12     1      0.000000      1(2)  2(2)  3(1)  4(2) 12(1)
     0.000000      15     1      0.000000      1(2)  2(2)  3(2)  4(1) 18(1)
     0.000000       4     1      0.000000      1(1)  2(2)  3(2)  4(2) 13(1)
     0.000000       6     1      0.000000      1(1)  2(2)  3(2)  4(2)  9(1)

 Analysis of CI Coefficients by Size 
 ----------------------------------- 

         Value            Count 
     -------------        ----- 
      1.0000000000            1
      0.3162277660            0
      0.1000000000            0
      0.0316227766            0
      0.0100000000            0
      0.0031622777            0
      0.0010000000            0
      0.0003162278            0
      0.0001000000            0
      0.0000316228            0
      0.0000100000            0
      0.0000031623            0
      0.0000010000            0
      0.0000003162            0
      0.0000001000            0
      0.0000000316            0
      0.0000000100            4
      0.0000000032            5
      0.0000000010            5
      0.0000000003            4
      0.0000000001            2

                      ---------
                             21
 
  Guess vector  2
 
     coeff.      conf  spin     conf norm
 ------------  ------  ----  ------------
     0.779753      21     1      0.779753      1(2)  2(2)  3(2)  4(1)  5(1)
     0.620955      14     1      0.620955      1(2)  2(2)  3(1)  4(2)  6(1)
    -0.048481      18     1      0.048481      1(2)  2(2)  3(2)  4(1) 11(1)
     0.044358      12     1      0.044358      1(2)  2(2)  3(1)  4(2) 12(1)
     0.025295       8     1      0.025295      1(1)  2(2)  3(2)  4(2)  5(1)
    -0.024093      13     1      0.024093      1(2)  2(2)  3(1)  4(2)  8(1)
     0.016423      20     1      0.016423      1(2)  2(2)  3(2)  4(1)  7(1)
     0.013995      10     1      0.013995      1(2)  2(1)  3(2)  4(2) 10(1)
     0.012665      19     1      0.012665      1(2)  2(2)  3(2)  4(1)  9(1)
    -0.007507       5     1      0.007507      1(1)  2(2)  3(2)  4(2) 11(1)
     0.006995       6     1      0.006995      1(1)  2(2)  3(2)  4(2)  9(1)
    -0.006327      17     1      0.006327      1(2)  2(2)  3(2)  4(1) 13(1)
    -0.006040      11     1      0.006040      1(2)  2(2)  3(1)  4(2) 16(1)
    -0.006015      16     1      0.006015      1(2)  2(2)  3(2)  4(1) 17(1)
     0.003143       4     1      0.003143      1(1)  2(2)  3(2)  4(2) 13(1)
    -0.001859       2     1      0.001859      1(1)  2(2)  3(2)  4(2) 18(1)
    -0.001517      15     1      0.001517      1(2)  2(2)  3(2)  4(1) 18(1)
     0.001266       7     1      0.001266      1(1)  2(2)  3(2)  4(2)  7(1)
     0.000958       9     1      0.000958      1(2)  2(1)  3(2)  4(2) 15(1)
    -0.000716       3     1      0.000716      1(1)  2(2)  3(2)  4(2) 17(1)

 Analysis of CI Coefficients by Size 
 ----------------------------------- 

         Value            Count 
     -------------        ----- 
      1.0000000000            2
      0.3162277660            0
      0.1000000000            0
      0.0316227766            4
      0.0100000000            8
      0.0031622777            2
      0.0010000000            4
      0.0003162278            0
      0.0001000000            0
      0.0000316228            0
      0.0000100000            0
      0.0000031623            0
      0.0000010000            0
      0.0000003162            0
      0.0000001000            0
      0.0000000316            0
      0.0000000100            1
      0.0000000032            0
      0.0000000010            0
      0.0000000003            0
      0.0000000001            0

                      ---------
                             21
 
  Guess vector  3
 
     coeff.      conf  spin     conf norm
 ------------  ------  ----  ------------
    -0.759399      14     1      0.759399      1(2)  2(2)  3(1)  4(2)  6(1)
     0.598656      21     1      0.598656      1(2)  2(2)  3(2)  4(1)  5(1)
     0.202355      10     1      0.202355      1(2)  2(1)  3(2)  4(2) 10(1)
     0.079752       6     1      0.079752      1(1)  2(2)  3(2)  4(2)  9(1)
     0.072072      19     1      0.072072      1(2)  2(2)  3(2)  4(1)  9(1)
     0.058162       8     1      0.058162      1(1)  2(2)  3(2)  4(2)  5(1)
     0.052315      18     1      0.052315      1(2)  2(2)  3(2)  4(1) 11(1)
    -0.050772      20     1      0.050772      1(2)  2(2)  3(2)  4(1)  7(1)
     0.032906      12     1      0.032906      1(2)  2(2)  3(1)  4(2) 12(1)
    -0.031999       5     1      0.031999      1(1)  2(2)  3(2)  4(2) 11(1)
    -0.022761      13     1      0.022761      1(2)  2(2)  3(1)  4(2)  8(1)
    -0.017551       2     1      0.017551      1(1)  2(2)  3(2)  4(2) 18(1)
    -0.017469       7     1      0.017469      1(1)  2(2)  3(2)  4(2)  7(1)
    -0.014499       9     1      0.014499      1(2)  2(1)  3(2)  4(2) 15(1)
    -0.013763      17     1      0.013763      1(2)  2(2)  3(2)  4(1) 13(1)
    -0.007090       3     1      0.007090      1(1)  2(2)  3(2)  4(2) 17(1)
    -0.004034      15     1      0.004034      1(2)  2(2)  3(2)  4(1) 18(1)
    -0.003287      11     1      0.003287      1(2)  2(2)  3(1)  4(2) 16(1)
    -0.002774       4     1      0.002774      1(1)  2(2)  3(2)  4(2) 13(1)
     0.001457      16     1      0.001457      1(2)  2(2)  3(2)  4(1) 17(1)

 Analysis of CI Coefficients by Size 
 ----------------------------------- 

         Value            Count 
     -------------        ----- 
      1.0000000000            2
      0.3162277660            1
      0.1000000000            3
      0.0316227766            5
      0.0100000000            5
      0.0031622777            3
      0.0010000000            1
      0.0003162278            0
      0.0001000000            0
      0.0000316228            0
      0.0000100000            0
      0.0000031623            0
      0.0000010000            0
      0.0000003162            0
      0.0000001000            0
      0.0000000316            1
      0.0000000100            0
      0.0000000032            0
      0.0000000010            0
      0.0000000003            0
      0.0000000001            0

                      ---------
                             21
 iter= 1  nvec= 1  root=   -75.63373376  de=   -75.63373376  conv=   0.79546504
                   root=   -75.50542988  de=   -75.50542988  conv=   0.85071154
                   root=   -75.21849894  de=   -75.21849894  conv=   1.55380600
 iter= 2  nvec= 2  root=   -75.86937965  de=    -0.23564589  conv=   0.16865763
                   root=   -75.69838070  de=    -0.19295082  conv=   0.18552379
                   root=   -75.42491328  de=    -0.20641434  conv=   0.83174993
 iter= 3  nvec= 3  root=   -75.90603372  de=    -0.03665408  conv=   0.04643089
                   root=   -75.72918576  de=    -0.03080506  conv=   0.04260796
                   root=   -75.50439670  de=    -0.07948341  conv=   0.17955510
 iter= 4  nvec= 4  root=   -75.90969398  de=    -0.00366026  conv=   0.02523633
                   root=   -75.73189326  de=    -0.00270750  conv=   0.02415996
                   root=   -75.52305306  de=    -0.01865637  conv=   0.13406230
 iter= 5  nvec= 5  root=   -75.91083970  de=    -0.00114572  conv=   0.01003793
                   root=   -75.73269711  de=    -0.00080385  conv=   0.01324936
                   root=   -75.60681439  de=    -0.08376133  conv=   0.25929753
 iter= 6  nvec= 6  root=   -75.91105784  de=    -0.00021814  conv=   0.00400371
                   root=   -75.73304338  de=    -0.00034628  conv=   0.00802412
                   root=   -75.67179673  de=    -0.06498234  conv=   0.09591247
 iter= 7  nvec= 7  root=   -75.91108209  de=    -0.00002424  conv=   0.00093100
                   root=   -75.73314158  de=    -0.00009819  conv=   0.00335291
                   root=   -75.68192390  de=    -0.01012717  conv=   0.02637789
 iter= 8  nvec= 8  root=   -75.91108379  de=    -0.00000170  conv=   0.00031670
                   root=   -75.73316172  de=    -0.00002014  conv=   0.00158104
                   root=   -75.68288944  de=    -0.00096554  conv=   0.01113724
 iter= 9  nvec= 9  root=   -75.91108398  de=    -0.00000019  conv=   0.00008842
                   root=   -75.73316579  de=    -0.00000408  conv=   0.00047081
                   root=   -75.68306510  de=    -0.00017566  conv=   0.00380437
 iter=10  nvec=10  root=   -75.91108400  de=    -0.00000002  conv=   0.00002319
                   root=   -75.73316624  de=    -0.00000045  conv=   0.00012128
                   root=   -75.68309256  de=    -0.00002746  conv=   0.00110762
 iter=11  nvec= 2  root=   -75.91108400  de=     0.00000000  conv=   0.00000906
                   root=   -75.73316627  de=    -0.00000003  conv=   0.00004943
                   root=   -75.68309468  de=    -0.00000213  conv=   0.00049363
 iter=12  nvec= 3  root=   -75.91108400  de=     0.00000000  conv=   0.00000274
                   root=   -75.73316627  de=     0.00000000  conv=   0.00002248
                   root=   -75.68309503  de=    -0.00000035  conv=   0.00024438
 iter=13  nvec= 4  root=   -75.91108400  de=     0.00000000  conv=   0.00000086
                   root=   -75.73316627  de=     0.00000000  conv=   0.00000881
                   root=   -75.68309508  de=    -0.00000005  conv=   0.00009832
 iter=14  nvec= 5  root=   -75.91108400  de=     0.00000000  conv=   0.00000036
                   root=   -75.73316627  de=     0.00000000  conv=   0.00000357
                   root=   -75.68309509  de=    -0.00000001  conv=   0.00004065
 iter=15  nvec= 6  root=   -75.91108400  de=     0.00000000  conv=   0.00000011
                   root=   -75.73316627  de=     0.00000000  conv=   0.00000147
                   root=   -75.68309510  de=     0.00000000  conv=   0.00001834
 iter=16  nvec= 7  root=   -75.91108400  de=     0.00000000  conv=   0.00000003
                   root=   -75.73316627  de=     0.00000000  conv=   0.00000059
                   root=   -75.68309510  de=     0.00000000  conv=   0.00000710
 iter=17  nvec= 8  root=   -75.91108400  de=     0.00000000  conv=   0.00000001
                   root=   -75.73316627  de=     0.00000000  conv=   0.00000031
                   root=   -75.68309510  de=     0.00000000  conv=   0.00000451
 iter=18  nvec= 9  root=   -75.91108400  de=     0.00000000  conv=   0.00000000
                   root=   -75.73316627  de=     0.00000000  conv=   0.00000015
                   root=   -75.68309510  de=     0.00000000  conv=   0.00000211
 iter=19  nvec=10  root=   -75.91108400  de=     0.00000000  conv=   0.00000000
                   root=   -75.73316627  de=     0.00000000  conv=   0.00000006
                   root=   -75.68309510  de=     0.00000000  conv=   0.00000085


 Root  1 final energy =      -75.9110839989

     coeff.      conf  spin     conf norm
 ------------  ------  ----  ------------
     0.892075       1     1      0.892075      1(2)  2(2)  3(2)  4(2)
    -0.261900     271     1      0.262716      1(2)  2(2)  3(1)  4(1)  5(1)  6(1)
    -0.203972     283     1      0.203972      1(2)  2(2)  3(2)  5(2)
    -0.180243      71     1      0.180243      1(2)  2(2)  4(2)  6(2)
    -0.075139     261     1      0.075139      1(2)  2(2)  4(2)  5(2)
    -0.066950      89     1      0.066950      1(2)  2(2)  3(2)  6(2)
    -0.062280      21     1      0.062280      1(2)  2(2)  3(2)  4(1)  5(1)
    -0.042093     246     1      0.042093      1(2)  3(2)  4(2) 10(2)
    -0.041256     273     1      0.041448      1(2)  2(2)  3(1)  4(1)  6(1)  7(1)
    -0.038190      87     1      0.038190      1(2)  2(2)  3(2)  5(1)  7(1)
    -0.037026      12     1      0.037026      1(2)  2(2)  3(1)  4(2) 12(1)
     0.036441      78     1      0.036859      1(2)  2(2)  3(1)  4(1)  5(1)  8(1)
    -0.036048      18     1      0.036048      1(2)  2(2)  3(2)  4(1) 11(1)
    -0.035421      72     1      0.035421      1(2)  2(2)  4(2)  6(1) 12(1)
     0.034978      88     1      0.034978      1(2)  2(2)  3(2)  5(1) 11(1)
     0.032818     263     1      0.032818      1(2)  2(2)  4(2)  6(1)  8(1)
     0.029396     252     1      0.038810      1(2)  2(1)  3(1)  4(2)  6(1) 10(1)
     0.028510      31     1      0.032054      1(1)  2(1)  3(2)  4(2)  9(1) 10(1)
    -0.028263      42     1      0.028263      1(1)  2(2)  3(2)  4(1)  5(2)
     0.027566     253     1      0.038066      1(2)  2(1)  3(1)  4(2) 10(1) 12(1)

 Analysis of CI Coefficients by Size 
 ----------------------------------- 

         Value            Count 
     -------------        ----- 
      1.0000000000            1
      0.3162277660            3
      0.1000000000            3
      0.0316227766           40
      0.0100000000          141
      0.0031622777          172
      0.0010000000          192
      0.0003162278          120
      0.0001000000           39
      0.0000316228           15
      0.0000100000           10
      0.0000031623            1
      0.0000010000            0
      0.0000003162            0
      0.0000001000            0
      0.0000000316            0
      0.0000000100            0
      0.0000000032            0
      0.0000000010            0
      0.0000000003            0
      0.0000000001            0

                      ---------
                            737


 Root  2 final energy =      -75.7331662702

     coeff.      conf  spin     conf norm
 ------------  ------  ----  ------------
     0.698833      21     1      0.698833      1(2)  2(2)  3(2)  4(1)  5(1)
     0.520361      14     1      0.520361      1(2)  2(2)  3(1)  4(2)  6(1)
    -0.314284     261     1      0.314284      1(2)  2(2)  4(2)  5(2)
     0.166454      89     1      0.166454      1(2)  2(2)  3(2)  6(2)
     0.141775     283     1      0.141775      1(2)  2(2)  3(2)  5(2)
     0.094686     196     1      0.094686      1(2)  2(2)  3(1)  5(2)  6(1)
     0.080992      55     1      0.080992      1(2)  3(2)  4(2)  5(2)
     0.079110     271     2      0.084929      1(2)  2(2)  3(1)  4(1)  5(1)  6(1)
    -0.077368     244     1      0.077368      1(2)  3(2)  4(2)  6(2)
     0.074490       1     1      0.074490      1(2)  2(2)  3(2)  4(2)
    -0.056461      69     1      0.056461      1(2)  2(2)  4(2)  5(1)  7(1)
    -0.053560     189     1      0.053560      1(2)  3(1)  4(2)  5(2)  6(1)
    -0.050038     375     1      0.050038      1(2)  3(2)  4(1)  5(1)  6(2)
    -0.042583     211     1      0.042583      2(2)  3(2)  4(2)  6(2)
     0.040912      22     1      0.040912      2(2)  3(2)  4(2)  5(2)
     0.039380     193     1      0.039380      1(2)  2(2)  4(1)  5(1)  6(2)
     0.037929      35     2      0.050250      1(1)  2(2)  3(1)  4(2)  5(1)  6(1)
    -0.036225     148     1      0.036225      2(2)  3(2)  4(1)  5(1)  6(2)
     0.035120     170     1      0.035120      1(2)  2(1)  3(2)  5(2) 10(1)
    -0.034609     165     1      0.034609      1(2)  2(1)  4(2)  6(2) 10(1)

 Analysis of CI Coefficients by Size 
 ----------------------------------- 

         Value            Count 
     -------------        ----- 
      1.0000000000            1
      0.3162277660            2
      0.1000000000            8
      0.0316227766           38
      0.0100000000          202
      0.0031622777          230
      0.0010000000          139
      0.0003162278           77
      0.0001000000           26
      0.0000316228           13
      0.0000100000            1
      0.0000031623            0
      0.0000010000            0
      0.0000003162            0
      0.0000001000            0
      0.0000000316            0
      0.0000000100            0
      0.0000000032            0
      0.0000000010            0
      0.0000000003            0
      0.0000000001            0

                      ---------
                            737


 Root  3 final energy =      -75.6830950963

     coeff.      conf  spin     conf norm
 ------------  ------  ----  ------------
     0.516893     271     2      0.517051      1(2)  2(2)  3(1)  4(1)  5(1)  6(1)
     0.474974     283     1      0.474974      1(2)  2(2)  3(2)  5(2)
    -0.426027      89     1      0.426027      1(2)  2(2)  3(2)  6(2)
     0.355915      71     1      0.355915      1(2)  2(2)  4(2)  6(2)
    -0.317184     261     1      0.317184      1(2)  2(2)  4(2)  5(2)
     0.136531       1     1      0.136531      1(2)  2(2)  3(2)  4(2)
    -0.126319      14     1      0.126319      1(2)  2(2)  3(1)  4(2)  6(1)
    -0.102525      21     1      0.102525      1(2)  2(2)  3(2)  4(1)  5(1)
    -0.061847     193     1      0.061847      1(2)  2(2)  4(1)  5(1)  6(2)
     0.060157     286     1      0.060157      1(2)  2(2)  3(2)  6(1)  8(1)
     0.054164      87     1      0.054164      1(2)  2(2)  3(2)  5(1)  7(1)
    -0.052151      55     1      0.052151      1(2)  3(2)  4(2)  5(2)
    -0.043884     183     1      0.043884      1(2)  2(2)  3(1)  5(2) 12(1)
    -0.043763      78     2      0.043803      1(2)  2(2)  3(1)  4(1)  5(1)  8(1)
    -0.043331     196     1      0.043331      1(2)  2(2)  3(1)  5(2)  6(1)
    -0.042769     263     1      0.042769      1(2)  2(2)  4(2)  6(1)  8(1)
     0.042548     272     2      0.042562      1(2)  2(2)  3(1)  4(1)  5(1) 12(1)
    -0.042335     273     2      0.042782      1(2)  2(2)  3(1)  4(1)  6(1)  7(1)
    -0.041390      69     1      0.041390      1(2)  2(2)  4(2)  5(1)  7(1)
    -0.039216      88     1      0.039216      1(2)  2(2)  3(2)  5(1) 11(1)

 Analysis of CI Coefficients by Size 
 ----------------------------------- 

         Value            Count 
     -------------        ----- 
      1.0000000000            0
      0.3162277660            5
      0.1000000000            5
      0.0316227766           30
      0.0100000000           87
      0.0031622777          201
      0.0010000000          237
      0.0003162278          107
      0.0001000000           43
      0.0000316228           14
      0.0000100000            5
      0.0000031623            3
      0.0000010000            0
      0.0000003162            0
      0.0000001000            0
      0.0000000316            0
      0.0000000100            0
      0.0000000032            0
      0.0000000010            0
      0.0000000003            0
      0.0000000001            0

                      ---------
                            737

 minimal core high water =     49299 real numbers (spare =  13057910)

 DAVIDS: Total cpu       0.6 : Total wall**********

                Perturbation Selection Program v1.0 9/28/89
                -------------------------------------------


 state multiplicity            1
 no. of electrons              8
 state symmetry                1
 no. of orbitals              18
 no. of configurations       737
 no. of orbital conf.        378
 no. ints per occ.             1
 no. bits per int.            64
 max no. open shells           8
 nfmax                        14
 nfmax2                        5
 no. of spin functions         1    1    2    5   14
 no. of symmetry types         4
 no. of orbitals per sym       9    1    3    5
 no. of roots sought           3
 symmetry of the orbitals

  1  3  4  1  1  4  1  4  1  3  1  4  1  2  3  4  1  1

  EN| Selection threshold    0.0001000000
 no. of integrals            4349
 nuclear replusion energy is     -55.404909798232

 Average occupancy of each orbital 
 1.43 1.56 1.29 1.25 0.45 0.43 0.10 0.07 0.20 0.21 0.19 0.17 0.11 0.11 0.11
 0.11 0.11 0.11
 
  Orbitals sorted by occupation number 
   2   1   3   4   5   6  10   9  11  12  14  16  17  13  15  18   7   8
 

 time in initialisation: cpu=  0.04, wall=******

 checkpointed at iconf =    100 of    378
 checkpointed at iconf =    200 of    378
 checkpointed at iconf =    300 of    378

 time in select: cpu=     3.06, wall=*********

 Analysis of PT Interactions by Size 
 ----------------------------------- 

      Interaction         Count 
     -------------        ----- 
      1.0000000000            0
      0.3162277660            0
      0.1000000000            0
      0.0316227766            0
      0.0100000000            1
      0.0031622777            5
      0.0010000000          104
      0.0003162278          162
      0.0001000000          411
      0.0000316228          898
      0.0000100000         1750
      0.0000031623         3521
      0.0000010000         5258
      0.0000003162         7468
      0.0000001000         8154
      0.0000000316         7169
      0.0000000100         8410
      0.0000000032         9097
      0.0000000010         9162
      0.0000000003         7450
      0.0000000001        17026

                      ---------
                          86046

       Total Perturbation Corrections for CI energies 
       ---------------------------------------------- 

 EN|   ci energy      pt correction     ci+pt energy    PT norm 
 EN| ---------------  ---------------  ---------------  ---------
 EN:   -75.91108400      -0.04133706     -75.95242106   0.131201
 EN:   -75.73316627      -0.04103991     -75.77420618   0.113843
 EN:   -75.68309510      -0.08577865     -75.76887374   0.160186

  Selection based on EN pt 

 No. of CSF in new ci               1130
 No. of orbital conf in new ci       562



           Predicted New CI Energies 
           ------------------------- 

   ci energy      pt correction     ci+pt energy
 ---------------  ---------------  ---------------
   -75.91108400      -0.02891115     -75.93999515  *********
    -0.02382822     -75.75699449     -75.68309510  -0.067855
   -75.75095035

 minimal core high water =    159637 real numbers (spare =  12947572)

 SELECT: Total cpu       3.1 : Total wall**********

                Configuration Driven CI Program v1.0 18/8/89
                --------------------------------------------


 state multiplicity            1
 no. of electrons              8
 state symmetry                1
 no. of orbitals              18
 no. of configurations      1130
 no. of orbital conf.        562
 no. ints per occ.             1
 no. bits per int.            64
 max no. open shells           8
 nfmax                        14
 nfmax2                        5
 no. of spin functions         1    1    2    5   14
 no. of symmetry types         4
 no. of orbitals per sym       9    1    3    5
 symmetry of the orbitals

  1  3  4  1  1  4  1  4  1  3  1  4  1  2  3  4  1  1
 no. of integrals            4349
 nuclear replusion energy is     -55.404909798232

 total no. of hamiltonian records          4
 total no. of hamiltonian elements     76817


 minimal core high water =     10867 real numbers (spare =  13096342)

 CI: Total cpu       0.2 : Total wall**********


 Davidson CI diagonalisation 
 ---------------------------

 case c2: energy with selected CI module                                         

 state multiplicity            1
 no. of electrons              8
 state symmetry                1
 no. of orbitals              18
 no. of configurations      1130
 no. of orbital conf.        562
 no. of roots sought           3
 convergence            0.10D-05


 Using trial vectors from disk 

 Eigenvalues from disk 

        -75.91108400       -75.73316627       -75.68309510
 
  Guess vector  1
 
     coeff.      conf  spin     conf norm
 ------------  ------  ----  ------------
     0.892075       1     1      0.892075      1(2)  2(2)  3(2)  4(2)
    -0.261900     271     1      0.262716      1(2)  2(2)  3(1)  4(1)  5(1)  6(1)
    -0.203972     283     1      0.203972      1(2)  2(2)  3(2)  5(2)
    -0.180243      71     1      0.180243      1(2)  2(2)  4(2)  6(2)
    -0.075139     261     1      0.075139      1(2)  2(2)  4(2)  5(2)
    -0.066950      89     1      0.066950      1(2)  2(2)  3(2)  6(2)
    -0.062280      21     1      0.062280      1(2)  2(2)  3(2)  4(1)  5(1)
    -0.042093     246     1      0.042093      1(2)  3(2)  4(2) 10(2)
    -0.041256     273     1      0.041448      1(2)  2(2)  3(1)  4(1)  6(1)  7(1)
    -0.038190      87     1      0.038190      1(2)  2(2)  3(2)  5(1)  7(1)
    -0.037026      12     1      0.037026      1(2)  2(2)  3(1)  4(2) 12(1)
     0.036441      78     1      0.036859      1(2)  2(2)  3(1)  4(1)  5(1)  8(1)
    -0.036048      18     1      0.036048      1(2)  2(2)  3(2)  4(1) 11(1)
    -0.035421      72     1      0.035421      1(2)  2(2)  4(2)  6(1) 12(1)
     0.034978      88     1      0.034978      1(2)  2(2)  3(2)  5(1) 11(1)
     0.032818     263     1      0.032818      1(2)  2(2)  4(2)  6(1)  8(1)
     0.029396     252     1      0.038810      1(2)  2(1)  3(1)  4(2)  6(1) 10(1)
     0.028510      31     1      0.032054      1(1)  2(1)  3(2)  4(2)  9(1) 10(1)
    -0.028263      42     1      0.028263      1(1)  2(2)  3(2)  4(1)  5(2)
     0.027566     253     1      0.038066      1(2)  2(1)  3(1)  4(2) 10(1) 12(1)

 Analysis of CI Coefficients by Size 
 ----------------------------------- 

         Value            Count 
     -------------        ----- 
      1.0000000000            1
      0.3162277660            3
      0.1000000000            3
      0.0316227766           40
      0.0100000000          141
      0.0031622777          172
      0.0010000000          192
      0.0003162278          120
      0.0001000000           39
      0.0000316228           15
      0.0000100000           10
      0.0000031623            1
      0.0000010000            0
      0.0000003162            0
      0.0000001000            0
      0.0000000316            0
      0.0000000100            0
      0.0000000032            0
      0.0000000010            0
      0.0000000003            0
      0.0000000001            0

                      ---------
                            737
 
  Guess vector  2
 
     coeff.      conf  spin     conf norm
 ------------  ------  ----  ------------
     0.698833      21     1      0.698833      1(2)  2(2)  3(2)  4(1)  5(1)
     0.520361      14     1      0.520361      1(2)  2(2)  3(1)  4(2)  6(1)
    -0.314284     261     1      0.314284      1(2)  2(2)  4(2)  5(2)
     0.166454      89     1      0.166454      1(2)  2(2)  3(2)  6(2)
     0.141775     283     1      0.141775      1(2)  2(2)  3(2)  5(2)
     0.094686     196     1      0.094686      1(2)  2(2)  3(1)  5(2)  6(1)
     0.080992      55     1      0.080992      1(2)  3(2)  4(2)  5(2)
     0.079110     271     2      0.084929      1(2)  2(2)  3(1)  4(1)  5(1)  6(1)
    -0.077368     244     1      0.077368      1(2)  3(2)  4(2)  6(2)
     0.074490       1     1      0.074490      1(2)  2(2)  3(2)  4(2)
    -0.056461      69     1      0.056461      1(2)  2(2)  4(2)  5(1)  7(1)
    -0.053560     189     1      0.053560      1(2)  3(1)  4(2)  5(2)  6(1)
    -0.050038     375     1      0.050038      1(2)  3(2)  4(1)  5(1)  6(2)
    -0.042583     211     1      0.042583      2(2)  3(2)  4(2)  6(2)
     0.040912      22     1      0.040912      2(2)  3(2)  4(2)  5(2)
     0.039380     193     1      0.039380      1(2)  2(2)  4(1)  5(1)  6(2)
     0.037929      35     2      0.050250      1(1)  2(2)  3(1)  4(2)  5(1)  6(1)
    -0.036225     148     1      0.036225      2(2)  3(2)  4(1)  5(1)  6(2)
     0.035120     170     1      0.035120      1(2)  2(1)  3(2)  5(2) 10(1)
    -0.034609     165     1      0.034609      1(2)  2(1)  4(2)  6(2) 10(1)

 Analysis of CI Coefficients by Size 
 ----------------------------------- 

         Value            Count 
     -------------        ----- 
      1.0000000000            1
      0.3162277660            2
      0.1000000000            8
      0.0316227766           38
      0.0100000000          202
      0.0031622777          230
      0.0010000000          139
      0.0003162278           77
      0.0001000000           26
      0.0000316228           13
      0.0000100000            1
      0.0000031623            0
      0.0000010000            0
      0.0000003162            0
      0.0000001000            0
      0.0000000316            0
      0.0000000100            0
      0.0000000032            0
      0.0000000010            0
      0.0000000003            0
      0.0000000001            0

                      ---------
                            737
 
  Guess vector  3
 
     coeff.      conf  spin     conf norm
 ------------  ------  ----  ------------
     0.516893     271     2      0.517051      1(2)  2(2)  3(1)  4(1)  5(1)  6(1)
     0.474974     283     1      0.474974      1(2)  2(2)  3(2)  5(2)
    -0.426027      89     1      0.426027      1(2)  2(2)  3(2)  6(2)
     0.355915      71     1      0.355915      1(2)  2(2)  4(2)  6(2)
    -0.317184     261     1      0.317184      1(2)  2(2)  4(2)  5(2)
     0.136531       1     1      0.136531      1(2)  2(2)  3(2)  4(2)
    -0.126319      14     1      0.126319      1(2)  2(2)  3(1)  4(2)  6(1)
    -0.102525      21     1      0.102525      1(2)  2(2)  3(2)  4(1)  5(1)
    -0.061847     193     1      0.061847      1(2)  2(2)  4(1)  5(1)  6(2)
     0.060157     286     1      0.060157      1(2)  2(2)  3(2)  6(1)  8(1)
     0.054164      87     1      0.054164      1(2)  2(2)  3(2)  5(1)  7(1)
    -0.052151      55     1      0.052151      1(2)  3(2)  4(2)  5(2)
    -0.043884     183     1      0.043884      1(2)  2(2)  3(1)  5(2) 12(1)
    -0.043763      78     2      0.043803      1(2)  2(2)  3(1)  4(1)  5(1)  8(1)
    -0.043331     196     1      0.043331      1(2)  2(2)  3(1)  5(2)  6(1)
    -0.042769     263     1      0.042769      1(2)  2(2)  4(2)  6(1)  8(1)
     0.042548     272     2      0.042562      1(2)  2(2)  3(1)  4(1)  5(1) 12(1)
    -0.042335     273     2      0.042782      1(2)  2(2)  3(1)  4(1)  6(1)  7(1)
    -0.041390      69     1      0.041390      1(2)  2(2)  4(2)  5(1)  7(1)
    -0.039216      88     1      0.039216      1(2)  2(2)  3(2)  5(1) 11(1)

 Analysis of CI Coefficients by Size 
 ----------------------------------- 

         Value            Count 
     -------------        ----- 
      1.0000000000            0
      0.3162277660            5
      0.1000000000            5
      0.0316227766           30
      0.0100000000           87
      0.0031622777          201
      0.0010000000          237
      0.0003162278          107
      0.0001000000           43
      0.0000316228           14
      0.0000100000            5
      0.0000031623            3
      0.0000010000            0
      0.0000003162            0
      0.0000001000            0
      0.0000000316            0
      0.0000000100            0
      0.0000000032            0
      0.0000000010            0
      0.0000000003            0
      0.0000000001            0

                      ---------
                            737
 iter= 1  nvec= 1  root=   -75.91108400  de=   -75.91108400  conv=   0.12042172
                   root=   -75.73316627  de=   -75.73316627  conv=   0.09351501
                   root=   -75.68309510  de=   -75.68309510  conv=   0.14529803
 iter= 2  nvec= 2  root=   -75.93625137  de=    -0.02516737  conv=   0.10585707
                   root=   -75.75787337  de=    -0.02470710  conv=   0.07406612
                   root=   -75.74203440  de=    -0.05893931  conv=   0.08386308
 iter= 3  nvec= 3  root=   -75.94099079  de=    -0.00473942  conv=   0.03344636
                   root=   -75.76072978  de=    -0.00285641  conv=   0.03044198
                   root=   -75.74549307  de=    -0.00345866  conv=   0.03616099
 iter= 4  nvec= 4  root=   -75.94269140  de=    -0.00170061  conv=   0.01208318
                   root=   -75.76171964  de=    -0.00098986  conv=   0.02043713
                   root=   -75.74654599  de=    -0.00105292  conv=   0.01855030
 iter= 5  nvec= 5  root=   -75.94292853  de=    -0.00023713  conv=   0.00449466
                   root=   -75.76206203  de=    -0.00034239  conv=   0.01238588
                   root=   -75.74686108  de=    -0.00031508  conv=   0.01098528
 iter= 6  nvec= 6  root=   -75.94295824  de=    -0.00002970  conv=   0.00160430
                   root=   -75.76229091  de=    -0.00022888  conv=   0.00806128
                   root=   -75.74700542  de=    -0.00014435  conv=   0.00681426
 iter= 7  nvec= 7  root=   -75.94296324  de=    -0.00000501  conv=   0.00058884
                   root=   -75.76239625  de=    -0.00010534  conv=   0.00516228
                   root=   -75.74707056  de=    -0.00006514  conv=   0.00406568
 iter= 8  nvec= 8  root=   -75.94296380  de=    -0.00000056  conv=   0.00015492
                   root=   -75.76243166  de=    -0.00003541  conv=   0.00274258
                   root=   -75.74709262  de=    -0.00002206  conv=   0.00215561
 iter= 9  nvec= 9  root=   -75.94296385  de=    -0.00000005  conv=   0.00005880
                   root=   -75.76244636  de=    -0.00001470  conv=   0.00128915
                   root=   -75.74710162  de=    -0.00000900  conv=   0.00103478
 iter=10  nvec=10  root=   -75.94296385  de=     0.00000000  conv=   0.00001578
                   root=   -75.76244920  de=    -0.00000284  conv=   0.00041871
                   root=   -75.74710339  de=    -0.00000177  conv=   0.00033649
 iter=11  nvec= 2  root=   -75.94296385  de=     0.00000000  conv=   0.00000656
                   root=   -75.76244947  de=    -0.00000027  conv=   0.00020404
                   root=   -75.74710356  de=    -0.00000018  conv=   0.00016437
 iter=12  nvec= 3  root=   -75.94296385  de=     0.00000000  conv=   0.00000189
                   root=   -75.76244952  de=    -0.00000005  conv=   0.00010181
                   root=   -75.74710360  de=    -0.00000003  conv=   0.00008855
 iter=13  nvec= 4  root=   -75.94296385  de=     0.00000000  conv=   0.00000075
                   root=   -75.76244953  de=    -0.00000001  conv=   0.00011313
                   root=   -75.74710360  de=    -0.00000001  conv=   0.00010868
 iter=14  nvec= 5  root=   -75.94296385  de=     0.00000000  conv=   0.00000027
                   root=   -75.76244953  de=     0.00000000  conv=   0.00003479
                   root=   -75.74710361  de=     0.00000000  conv=   0.00003224
 iter=15  nvec= 6  root=   -75.94296385  de=     0.00000000  conv=   0.00000011
                   root=   -75.76244953  de=     0.00000000  conv=   0.00001442
                   root=   -75.74710361  de=     0.00000000  conv=   0.00001325
 iter=16  nvec= 7  root=   -75.94296385  de=     0.00000000  conv=   0.00000004
                   root=   -75.76244953  de=     0.00000000  conv=   0.00000949
                   root=   -75.74710361  de=     0.00000000  conv=   0.00000893
 iter=17  nvec= 8  root=   -75.94296385  de=     0.00000000  conv=   0.00000001
                   root=   -75.76244953  de=     0.00000000  conv=   0.00000557
                   root=   -75.74710361  de=     0.00000000  conv=   0.00000534
 iter=18  nvec= 9  root=   -75.94296385  de=     0.00000000  conv=   0.00000001
                   root=   -75.76244953  de=     0.00000000  conv=   0.00000386
                   root=   -75.74710361  de=     0.00000000  conv=   0.00000384
 iter=19  nvec=10  root=   -75.94296385  de=     0.00000000  conv=   0.00000000
                   root=   -75.76244953  de=     0.00000000  conv=   0.00000196
                   root=   -75.74710361  de=     0.00000000  conv=   0.00000206
 iter=20  nvec= 2  root=   -75.94296385  de=     0.00000000  conv=   0.00000000
                   root=   -75.76244953  de=     0.00000000  conv=   0.00000129
                   root=   -75.74710361  de=     0.00000000  conv=   0.00000140
 iter=21  nvec= 3  root=   -75.94296385  de=     0.00000000  conv=   0.00000000
                   root=   -75.76244953  de=     0.00000000  conv=   0.00000077
                   root=   -75.74710361  de=     0.00000000  conv=   0.00000088


 Root  1 final energy =      -75.9429638534

     coeff.      conf  spin     conf norm
 ------------  ------  ----  ------------
     0.840994       1     1      0.840994      1(2)  2(2)  3(2)  4(2)
    -0.311374     271     1      0.312462      1(2)  2(2)  3(1)  4(1)  5(1)  6(1)
    -0.246351     283     1      0.246351      1(2)  2(2)  3(2)  5(2)
    -0.208809      71     1      0.208809      1(2)  2(2)  4(2)  6(2)
     0.118175     452     1      0.118175      1(2)  2(2)  5(2)  6(2)
    -0.090491     261     1      0.090491      1(2)  2(2)  4(2)  5(2)
    -0.087075      89     1      0.087075      1(2)  2(2)  3(2)  6(2)
    -0.082082      21     1      0.082082      1(2)  2(2)  3(2)  4(1)  5(1)
    -0.042526      12     1      0.042526      1(2)  2(2)  3(1)  4(2) 12(1)
    -0.042520      18     1      0.042520      1(2)  2(2)  3(2)  4(1) 11(1)
[...]
 iter=11  nvec= 2  root=   -75.97587169  de=    -0.00000001  conv=   0.00003842
                   root=   -75.93066929  de=    -0.00000002  conv=   0.00005092
 iter=12  nvec= 3  root=   -75.97587169  de=     0.00000000  conv=   0.00001490
                   root=   -75.93066929  de=    -0.00000001  conv=   0.00002382
 iter=13  nvec= 4  root=   -75.97587169  de=     0.00000000  conv=   0.00000856
                   root=   -75.93066929  de=     0.00000000  conv=   0.00002172
 iter=14  nvec= 5  root=   -75.97587169  de=     0.00000000  conv=   0.00000353
                   root=   -75.93066930  de=     0.00000000  conv=   0.00000816
 iter=15  nvec= 6  root=   -75.97587169  de=     0.00000000  conv=   0.00000231
                   root=   -75.93066930  de=     0.00000000  conv=   0.00000286
 iter=16  nvec= 7  root=   -75.97587169  de=     0.00000000  conv=   0.00000100
                   root=   -75.93066930  de=     0.00000000  conv=   0.00000140
 iter=17  nvec= 8  root=   -75.97587169  de=     0.00000000  conv=   0.00000040
                   root=   -75.93066930  de=     0.00000000  conv=   0.00000047


 Root  1 final energy =      -75.9758716924

     coeff.      conf  spin     conf norm
 ------------  ------  ----  ------------
     0.963061       1     1      0.963061      1(2)  2(2)  3(2)  4(2)
    -0.128055     261     1      0.128055      1(2)  2(2)  4(2)  5(2)
    -0.064448      71     1      0.064448      1(2)  2(2)  4(2)  6(2)
    -0.052770      69     1      0.052770      1(2)  2(2)  4(2)  5(1)  7(1)
    -0.049428     246     1      0.049428      1(2)  3(2)  4(2) 10(2)
    -0.048736      35     1      0.060119      1(1)  2(2)  3(1)  4(2)  5(1)  6(1)
    -0.048042      95     1      0.048042      1(2)  2(2)  3(2) 11(2)
     0.043502     258     1      0.060280      1(2)  2(1)  3(2)  4(1) 10(1) 11(1)
     0.041728     258     2      0.060280      1(2)  2(1)  3(2)  4(1) 10(1) 11(1)
    -0.038189     224     1      0.040090      1(1)  2(2)  3(1)  4(2)  5(1)  8(1)
    -0.036615     252     2      0.049423      1(2)  2(1)  3(1)  4(2)  6(1) 10(1)
    -0.036604     259     2      0.036604      1(2)  2(1)  3(2)  4(1) 13(1) 15(1)
     0.035930     274     2      0.048720      1(2)  2(2)  3(1)  4(1)  6(1) 11(1)
    -0.035503     263     1      0.035503      1(2)  2(2)  4(2)  6(1)  8(1)
    -0.035200      35     2      0.060119      1(1)  2(2)  3(1)  4(2)  5(1)  6(1)
     0.033197     252     1      0.049423      1(2)  2(1)  3(1)  4(2)  6(1) 10(1)
     0.032982      31     1      0.036766      1(1)  2(1)  3(2)  4(2)  9(1) 10(1)
     0.032904     274     1      0.048720      1(2)  2(2)  3(1)  4(1)  6(1) 11(1)
     0.031905     240     1      0.035883      1(1)  2(2)  3(2)  4(1)  9(1) 11(1)
    -0.029380     235     1      0.033290      1(1)  2(2)  3(2)  4(1)  5(1) 11(1)

 Analysis of CI Coefficients by Size 
 ----------------------------------- 

         Value            Count 
     -------------        ----- 
      1.0000000000            1
      0.3162277660            0
      0.1000000000            2
      0.0316227766           45
      0.0100000000           88
      0.0031622777          117
      0.0010000000          192
      0.0003162278          283
      0.0001000000          232
      0.0000316228          147
      0.0000100000           54
      0.0000031623           29
      0.0000010000            7
      0.0000003162            1
      0.0000001000            0
      0.0000000316            1
      0.0000000100            0
      0.0000000032            0
      0.0000000010            0
      0.0000000003            0
      0.0000000001            0

                      ---------
                           1199


 Root  2 final energy =      -75.9306692951

     coeff.      conf  spin     conf norm
 ------------  ------  ----  ------------
    -0.927039      21     1      0.927039      1(2)  2(2)  3(2)  4(1)  5(1)
    -0.240833     271     1      0.243377      1(2)  2(2)  3(1)  4(1)  5(1)  6(1)
     0.105024      42     1      0.105024      1(1)  2(2)  3(2)  4(1)  5(2)
    -0.104571      78     1      0.106839      1(2)  2(2)  3(1)  4(1)  5(1)  8(1)
     0.078616     193     1      0.078616      1(2)  2(2)  4(1)  5(1)  6(2)
     0.066076      88     1      0.066076      1(2)  2(2)  3(2)  5(1) 11(1)
    -0.057935      20     1      0.057935      1(2)  2(2)  3(2)  4(1)  7(1)
     0.050939     348     1      0.051391      1(2)  2(2)  4(1)  5(1)  6(1)  8(1)
     0.047879     255     2      0.063552      1(2)  2(1)  3(2)  4(1)  5(1) 10(1)
     0.043330     327     1      0.043330      1(2)  3(2)  4(1)  5(1) 10(2)
    -0.041790     255     1      0.063552      1(2)  2(1)  3(2)  4(1)  5(1) 10(1)
     0.037650     272     2      0.050413      1(2)  2(2)  3(1)  4(1)  5(1) 12(1)
     0.035096     271     2      0.243377      1(2)  2(2)  3(1)  4(1)  5(1)  6(1)
    -0.033525     272     1      0.050413      1(2)  2(2)  3(1)  4(1)  5(1) 12(1)
    -0.032985     273     1      0.041415      1(2)  2(2)  3(1)  4(1)  6(1)  7(1)
    -0.031168     276     1      0.032467      1(2)  2(2)  3(1)  4(1)  7(1)  8(1)
    -0.028993      43     1      0.040318      1(1)  2(2)  3(2)  4(1)  5(1)  9(1)
     0.028884     220     1      0.032801      1(1)  2(1)  3(2)  4(2)  5(1) 15(1)
     0.028728     234     1      0.028733      1(1)  2(2)  3(2)  4(1)  5(1)  7(1)
     0.028471     332     5      0.041739      1(2)  2(1)  3(1)  4(1)  5(1)  6(1) 10(1)

 Analysis of CI Coefficients by Size 
 ----------------------------------- 

         Value            Count 
     -------------        ----- 
      1.0000000000            1
      0.3162277660            1
      0.1000000000            5
      0.0316227766           33
      0.0100000000          129
      0.0031622777          148
      0.0010000000          188
      0.0003162278          179
      0.0001000000          204
      0.0000316228          170
      0.0000100000           79
      0.0000031623           38
      0.0000010000           17
      0.0000003162            3
      0.0000001000            3
      0.0000000316            1
      0.0000000100            0
      0.0000000032            0
      0.0000000010            0
      0.0000000003            0
      0.0000000001            0

                      ---------
                           1199

 minimal core high water =     53388 real numbers (spare =  13053512)

 DAVIDS: Total cpu       0.4 : Total wall**********

                Perturbation Selection Program v1.0 9/28/89
                -------------------------------------------


 state multiplicity            1
 no. of electrons              8
 state symmetry                1
 no. of orbitals              18
 no. of configurations      1199
 no. of orbital conf.        607
 no. ints per occ.             1
 no. bits per int.            64
 max no. open shells           8
 nfmax                        14
 nfmax2                        5
 no. of spin functions         1    1    2    5   14
 no. of symmetry types         4
 no. of orbitals per sym       9    1    3    5
 no. of roots sought           2
 symmetry of the orbitals

  1  3  4  1  1  4  1  4  1  3  1  4  1  2  3  4  1  1

  EN| Selection threshold ***************
 no. of integrals            4349
 nuclear replusion energy is     -54.096866375665

 Average occupancy of each orbital 
 1.38 1.48 1.12 1.05 0.70 0.63 0.08 0.05 0.19 0.22 0.19 0.17 0.11 0.14 0.13
 0.12 0.13 0.11
 
  Orbitals sorted by occupation number 
   2   1   3   4   5   6  10  11   9  12  14  15  17  16  18  13   7   8
 

 time in initialisation: cpu=  0.04, wall=******

 checkpointed at iconf =    100 of    607
 checkpointed at iconf =    200 of    607
 checkpointed at iconf =    300 of    607
 checkpointed at iconf =    400 of    607
 checkpointed at iconf =    500 of    607
 checkpointed at iconf =    600 of    607

 time in select: cpu=     5.47, wall=*********

 Analysis of PT Interactions by Size 
 ----------------------------------- 

      Interaction         Count 
     -------------        ----- 
      1.0000000000            0
      0.3162277660            0
      0.1000000000            0
      0.0316227766            0
      0.0100000000            0
      0.0031622777            0
      0.0010000000           28
      0.0003162278          119
      0.0001000000          340
      0.0000316228          824
      0.0000100000         1778
      0.0000031623         3691
      0.0000010000         5200
      0.0000003162         6508
      0.0000001000         7717
      0.0000000316         8843
      0.0000000100         8855
      0.0000000032         9348
      0.0000000010        10358
      0.0000000003         9113
      0.0000000001        45397

                      ---------
                         118119

       Total Perturbation Corrections for CI energies 
       ---------------------------------------------- 

 EN|   ci energy      pt correction     ci+pt energy    PT norm 
 EN| ---------------  ---------------  ---------------  ---------
 EN:   -75.97587169      -0.02275284     -75.99862454   0.072883
 EN:   -75.93066930      -0.02974239     -75.96041169   0.083001

  Selection based on EN pt 

 No. of CSF in new ci               1199
 No. of orbital conf in new ci       607



           Predicted New CI Energies 
           ------------------------- 

   ci energy      pt correction     ci+pt energy
 ---------------  ---------------  ---------------
   -75.97587169       0.00000000     -75.97587169  *********
     0.00000000     -75.93066930


 !!!!!!!!!!!!!!!!!!!!!!!!!!!!!!!!!!!!!!!
 ! select: no new configurations found !
 !!!!!!!!!!!!!!!!!!!!!!!!!!!!!!!!!!!!!!!


 minimal core high water =    164119 real numbers (spare =  12942781)

 SELECT: Total cpu       5.5 : Total wall**********
 step    -2 energy         -75.96041169
            gradient         0.000001


                         SELCI ENERGY GRADIENTS

    atom               coordinates                        gradient
                 x          y          z           x          y          z
   1 O       0.000000   0.000000  -0.976232    0.000000   0.000000   0.000001
   2 H       0.000000   2.497975  -0.976233    0.000000   0.000000   0.000000
   3 H       0.000000  -2.497975  -0.976233    0.000000   0.000000   0.000000
 
 

 Deleting state for selci with suffix numg
        ./h2o_selcis.movecs
        ./h2o_selcis.civecs
        ./h2o_selcis.ciconf
 

  Step       Energy      Delta E   Gmax     Grms     Xrms     Xmax   Walltime
  ---- ---------------- -------- -------- -------- -------- -------- --------
@   16     -75.96046441 -8.0D-09  0.00000  0.00000  0.00008  0.00015   1296.9
                                     ok       ok       ok       ok  


      ----------------------
      Optimization converged
      ----------------------


  Step       Energy      Delta E   Gmax     Grms     Xrms     Xmax   Walltime
  ---- ---------------- -------- -------- -------- -------- -------- --------
@   16     -75.96046441 -8.0D-09  0.00000  0.00000  0.00008  0.00015   1296.9
                                     ok       ok       ok       ok  

 
 
                         Geometry "geometry" -> "geometry"
                         ---------------------------------
 
 Output coordinates in angstroms (scale by  1.889725989 to convert to a.u.)
 
  No.       Tag          Charge          X              Y              Z
 ---- ---------------- ---------- -------------- -------------- --------------
    1 O                    8.0000     0.00000000     0.00000000    -0.51659973
    2 H                    1.0000     0.00000000     1.32187167    -0.51660014
    3 H                    1.0000     0.00000000    -1.32187167    -0.51660014
 
      Atomic Mass 
      ----------- 
 
      O                 15.994910
      H                  1.007825
 

 Effective nuclear repulsion energy (a.u.)       6.6053496636

            Nuclear Dipole moment (a.u.) 
            ----------------------------
        X                 Y               Z
 ---------------- ---------------- ----------------
     0.0000000000     0.0000000000    -9.7623208488
 
      Symmetry information
      --------------------
 
 Group name             C2v       
 Group number             16
 Group order               4
 No. of unique centers     2
 
      Symmetry unique atoms
 
     1    2
 

 Task  times  cpu:      862.2s     wall:     1278.0s
 
 
                                NWChem Input Module
                                -------------------
 
 
 Summary of allocated global arrays
-----------------------------------
  No active global arrays



                         GA Statistics for process    0
                         ------------------------------

       create   destroy   get      put      acc     scatter   gather  read&inc
calls: 2.96e+04 2.96e+04 1.78e+05 7.41e+04 5.70e+05    0        0        0     
number of processes/call 1.14e+00 1.11e+00 1.01e+00 0.00e+00 0.00e+00
bytes total:             1.22e+08 3.23e+07 4.72e+07 0.00e+00 0.00e+00 0.00e+00
bytes remote:            3.04e+07 2.88e+06 8.36e+06 0.00e+00 0.00e+00 0.00e+00
Max memory consumed for GA by this process: 258704 bytes
 hamiltonian matrices changed to permanant
 hamiltonian matrices changed to permanant
 hamiltonian matrices changed to permanant
 hamiltonian matrices changed to permanant
 hamiltonian matrices changed to permanant
 hamiltonian matrices changed to permanant
 hamiltonian matrices changed to permanant
 hamiltonian matrices changed to permanant
 hamiltonian matrices changed to permanant
 hamiltonian matrices changed to permanant
 hamiltonian matrices changed to permanant
 hamiltonian matrices changed to permanant
 hamiltonian matrices changed to permanant
 hamiltonian matrices changed to permanant
 hamiltonian matrices changed to permanant
 hamiltonian matrices changed to permanant
 hamiltonian matrices changed to permanant
 hamiltonian matrices changed to permanant
 hamiltonian matrices changed to permanant
 hamiltonian matrices changed to permanant
 hamiltonian matrices changed to permanant
 hamiltonian matrices changed to permanant
 hamiltonian matrices changed to permanant
 hamiltonian matrices changed to permanant
 hamiltonian matrices changed to permanant
 hamiltonian matrices changed to permanant
 hamiltonian matrices changed to permanant
 hamiltonian matrices changed to permanant
 hamiltonian matrices changed to permanant
 hamiltonian matrices changed to permanant
 hamiltonian matrices changed to permanant
 hamiltonian matrices changed to permanant
 hamiltonian matrices changed to permanant
 hamiltonian matrices changed to permanant
 hamiltonian matrices changed to permanant
 hamiltonian matrices changed to permanant
 hamiltonian matrices changed to permanant
 hamiltonian matrices changed to permanant
 hamiltonian matrices changed to permanant
 hamiltonian matrices changed to permanant
 hamiltonian matrices changed to permanant
 hamiltonian matrices changed to permanant
 hamiltonian matrices changed to permanant
 hamiltonian matrices changed to permanant
 hamiltonian matrices changed to permanant
 hamiltonian matrices changed to permanant
 hamiltonian matrices changed to permanant
 hamiltonian matrices changed to permanant
 hamiltonian matrices changed to permanant
 hamiltonian matrices changed to permanant
 hamiltonian matrices changed to permanant
 hamiltonian matrices changed to permanant
 hamiltonian matrices changed to permanant
 hamiltonian matrices changed to permanant
 hamiltonian matrices changed to permanant
 hamiltonian matrices changed to permanant
 hamiltonian matrices changed to permanant
 hamiltonian matrices changed to permanant
 hamiltonian matrices changed to permanant
 hamiltonian matrices changed to permanant
 hamiltonian matrices changed to permanant
 hamiltonian matrices changed to permanant
 hamiltonian matrices changed to permanant
 hamiltonian matrices changed to permanant
 hamiltonian matrices changed to permanant
 hamiltonian matrices changed to permanant
 hamiltonian matrices changed to permanant
 hamiltonian matrices changed to permanant
 hamiltonian matrices changed to permanant
 hamiltonian matrices changed to permanant
 hamiltonian matrices changed to permanant
 hamiltonian matrices changed to permanant
 hamiltonian matrices changed to permanant
 hamiltonian matrices changed to permanant
 hamiltonian matrices changed to permanant
 hamiltonian matrices changed to permanant
 hamiltonian matrices changed to permanant
 hamiltonian matrices changed to permanant
 hamiltonian matrices changed to permanant
 hamiltonian matrices changed to permanant
 hamiltonian matrices changed to permanant
 hamiltonian matrices changed to permanant
 hamiltonian matrices changed to permanant
 hamiltonian matrices changed to permanant
 hamiltonian matrices changed to permanant
 hamiltonian matrices changed to permanant
 hamiltonian matrices changed to permanant
 hamiltonian matrices changed to permanant
 hamiltonian matrices changed to permanant
 hamiltonian matrices changed to permanant
 hamiltonian matrices changed to permanant
 hamiltonian matrices changed to permanant
 hamiltonian matrices changed to permanant
 hamiltonian matrices changed to permanant
 hamiltonian matrices changed to permanant
 hamiltonian matrices changed to permanant
 hamiltonian matrices changed to permanant
 hamiltonian matrices changed to permanant
 hamiltonian matrices changed to permanant
 hamiltonian matrices changed to permanant
 hamiltonian matrices changed to permanant
 hamiltonian matrices changed to permanant
 
MA_summarize_allocated_blocks: starting scan ...
MA_summarize_allocated_blocks: scan completed: 0 heap blocks, 0 stack blocks
MA usage statistics:

	allocation statistics:
					      heap	     stack
					      ----	     -----
	current number of blocks	         0	         0
	maximum number of blocks	        20	        27
	current total bytes		         0	         0
	maximum total bytes		   1060560	 104857768
	maximum total K-bytes		      1061	    104858
	maximum total M-bytes		         2	       105



                                  ACKNOWLEDGEMENT
                                  ---------------

            Please use the following acknowledgement where appropriate 
            for results obtained with NWChem:

            High Performance Computational Chemistry Group, "NWChem, A
            Computational Chemistry Package for Parallel Computers, 
            Version 4.5" (2003), Pacific Northwest National Laboratory,
            Richland, Washington 99352-0999, USA.


                                     CITATION
                                     --------

            Please use the following citation when publishing results
            obtained with NWChem:

            E. Apra, E. J. Bylaska,  W. de Jong, M. T. Hackler, S. Hirata,
            L. Pollack, D. M. A. Smith, T. P. Straatsma, T. L. Windus, R. J. Harrison,
            J. Nieplocha, V. Tipparaju, M. Krishnan,
            E. Brown, G. Cisneros, M. Dupuis, G. I. Fann, H. Fruchtl,
            J. Garza, K. Hirao, R. Kendall, J. A. Nichols,  K. Tsemekhman,
            M. Valiev, K. Wolinski,
            J. Anchell, D. Bernholdt, P. Borowski, T. Clark, D. Clerc,
            H. Dachsel, M. Deegan, K. Dyall, D. Elwood, E. Glendening,
            M. Gutowski, A. Hess, J. Jaffe, B. Johnson, J. Ju, R. Kobayashi,
            R. Kutteh, Z. Lin, R. Littlefield, X. Long, B. Meng, T. Nakajima,
            S. Niu, M. Rosing, G. Sandrone, M. Stave, H. Taylor, G. Thomas,
            J. van Lenthe, A. Wong, and Z. Zhang,
            "NWChem, A Computational Chemistry Package for Parallel Computers, 
            Version 4.5" (2003),
                      Pacific Northwest National Laboratory,
                      Richland, Washington 99352-0999, USA.



 Total times  cpu:      876.0s     wall:     1297.2s
 Creating: host=cowboys, user=edo,
           file=/files0/edo/nwchem/bin/SOLARIS64_ULTRA/nwchem, port=41893
