HP-MPI licensed for ISV application.
All connections between all procs tested: SUCCESS
 argument  1 = densmat_ccsd.nw



============================== echo of input deck ==============================
echo
start n2

permanent_dir .
scratch_dir .

geometry
  n  0 0   0.53879155
  n  0 0  -0.53879155
symmetry c1
end

basis
n library cc-pvdz
end

tce
ccsd
print high
densmat ./n2.densmat
end

task tce energy
================================================================================


                                         
                                         


              Northwest Computational Chemistry Package (NWChem) 6.0
              ------------------------------------------------------


                    Environmental Molecular Sciences Laboratory
                       Pacific Northwest National Laboratory
                                Richland, WA 99352

                              Copyright (c) 1994-2010
                       Pacific Northwest National Laboratory
                            Battelle Memorial Institute

             NWChem is an open-source computational chemistry package
                        distributed under the terms of the
                      Educational Community License (ECL) 2.0
             A copy of the license is included with this distribution
                              in the LICENSE.TXT file

                                  ACKNOWLEDGMENT
                                  --------------

            This software and its documentation were developed at the
            EMSL at Pacific Northwest National Laboratory, a multiprogram
            national laboratory, operated for the U.S. Department of Energy
            by Battelle under Contract Number DE-AC05-76RL01830. Support
            for this work was provided by the Department of Energy Office
            of Biological and Environmental Research, Office of Basic
            Energy Sciences, and the Office of Advanced Scientific Computing.


           Job information
           ---------------

    hostname      = cu0login1
    program       = /hptc_cluster/scicons/apps/nwchem-6.0.oct19/bin/LINUX64/nwchem
    date          = Mon Nov  1 12:59:20 2010

    compiled      = Thu_Oct_28_07:10:53_2010
    source        = /home/scicons/user/kurt/nwchem-6.0-release-pgf90-final/
    nwchem branch = 6.0
    input         = densmat_ccsd.nw
    prefix        = n2.
    data base     = ./n2.db
    status        = startup
    nproc         =        1
    time left     =     -1s



           Memory information
           ------------------

    heap     =  104857601 doubles =    800.0 Mbytes
    stack    =  104857601 doubles =    800.0 Mbytes
    global   =  209715200 doubles =   1600.0 Mbytes (distinct from heap & stack)
    total    =  419430402 doubles =   3200.0 Mbytes
    verify   = yes
    hardfail = no 


           Directory information
           ---------------------

  0 permanent = .
  0 scratch   = .




                                NWChem Input Module
                                -------------------



 Scaling coordinates for geometry "geometry" by  1.889725989
 (inverse scale =  0.529177249)

 Turning off AUTOSYM since
 SYMMETRY directive was detected!


          ------
          auto-z
          ------


                             Geometry "geometry" -> ""
                             -------------------------

 Output coordinates in angstroms (scale by  1.889725989 to convert to a.u.)

  No.       Tag          Charge          X              Y              Z
 ---- ---------------- ---------- -------------- -------------- --------------
    1 n                    7.0000     0.00000000     0.00000000     0.53879155
    2 n                    7.0000     0.00000000     0.00000000    -0.53879155

      Atomic Mass 
      ----------- 

      n                 14.003070


 Effective nuclear repulsion energy (a.u.)      24.0628172444

            Nuclear Dipole moment (a.u.) 
            ----------------------------
        X                 Y               Z
 ---------------- ---------------- ----------------
     0.0000000000     0.0000000000     0.0000000000



                                Z-matrix (autoz)
                                -------- 

 Units are Angstrom for bonds and degrees for angles

      Type          Name      I     J     K     L     M      Value
      ----------- --------  ----- ----- ----- ----- ----- ----------
    1 Stretch                  1     2                       1.07758


            XYZ format geometry
            -------------------
     2
 geometry
 n                     0.00000000     0.00000000     0.53879155
 n                     0.00000000     0.00000000    -0.53879155

 ==============================================================================
                                internuclear distances
 ------------------------------------------------------------------------------
       center one      |      center two      | atomic units |  angstroms
 ------------------------------------------------------------------------------
    2 n                |   1 n                |     2.03634  |     1.07758
 ------------------------------------------------------------------------------
                         number of included internuclear distances:          1
 ==============================================================================



                      Basis "ao basis" -> "" (cartesian)
                      -----
  n (Nitrogen)
  ------------
            Exponent  Coefficients 
       -------------- ---------------------------------------------------------
  1 S  9.04600000E+03  0.000700
  1 S  1.35700000E+03  0.005389
  1 S  3.09300000E+02  0.027406
  1 S  8.77300000E+01  0.103207
  1 S  2.85600000E+01  0.278723
  1 S  1.02100000E+01  0.448540
  1 S  3.83800000E+00  0.278238
  1 S  7.46600000E-01  0.015440

  2 S  9.04600000E+03 -0.000153
  2 S  1.35700000E+03 -0.001208
  2 S  3.09300000E+02 -0.005992
  2 S  8.77300000E+01 -0.024544
  2 S  2.85600000E+01 -0.067459
  2 S  1.02100000E+01 -0.158078
  2 S  3.83800000E+00 -0.121831
  2 S  7.46600000E-01  0.549003

  3 S  2.24800000E-01  1.000000

  4 P  1.35500000E+01  0.039919
  4 P  2.91700000E+00  0.217169
  4 P  7.97300000E-01  0.510319

  5 P  2.18500000E-01  1.000000

  6 D  8.17000000E-01  1.000000



 Summary of "ao basis" -> "" (cartesian)
 ------------------------------------------------------------------------------
       Tag                 Description            Shells   Functions and Types
 ---------------- ------------------------------  ------  ---------------------
 n                          cc-pvdz                  6       15   3s2p1d


                                 NWChem SCF Module
                                 -----------------



  ao basis        = "ao basis"
  functions       =    30
  atoms           =     2
  closed shells   =     7
  open shells     =     0
  charge          =   0.00
  wavefunction    = RHF 
  input vectors   = atomic
  output vectors  = ./n2.movecs
  use symmetry    = F
  symmetry adapt  = F


 Summary of "ao basis" -> "ao basis" (cartesian)
 ------------------------------------------------------------------------------
       Tag                 Description            Shells   Functions and Types
 ---------------- ------------------------------  ------  ---------------------
 n                          cc-pvdz                  6       15   3s2p1d



 Forming initial guess at       0.1s


      Superposition of Atomic Density Guess
      -------------------------------------

 Sum of atomic energies:        -108.60004629

      Non-variational initial energy
      ------------------------------

 Total energy =    -109.181382
 1-e energy   =    -194.796865
 2-e energy   =      61.552665
 HOMO         =      -0.422231
 LUMO         =       0.043667


 Starting SCF solution at       0.3s



 ----------------------------------------------
         Quadratically convergent ROHF

 Convergence threshold     :          1.000E-04
 Maximum no. of iterations :           30
 Final Fock-matrix accuracy:          1.000E-07
 ----------------------------------------------


 #quartets = 3.081D+03 #integrals = 3.370D+04 #direct =  0.0% #cached =100.0%


 Integral file          = ./n2.aoints.0
 Record size in doubles =  65536        No. of integs per rec  =  43688
 Max. records in memory =      5        Max. records in file   = ******
 No. of bits per label  =      8        No. of bits per value  =     64


              iter       energy          gnorm     gmax       time
             ----- ------------------- --------- --------- --------
                 1     -108.9448513411  4.18D-01  1.88D-01      0.4
                 2     -108.9554437067  1.00D-01  4.86D-02      0.4
                 3     -108.9561229787  1.58D-03  9.45D-04      0.4
                 4     -108.9561231167  6.08D-06  4.21D-06      0.4


       Final RHF  results 
       ------------------ 

         Total SCF energy =   -108.956123116655
      One-electron energy =   -195.085335620909
      Two-electron energy =     62.066395259825
 Nuclear repulsion energy =     24.062817244429

        Time for solution =      0.2s


             Final eigenvalues
             -----------------

              1      
    1  -15.6814
    2  -15.6775
    3   -1.4865
    4   -0.7680
    5   -0.6285
    6   -0.6172
    7   -0.6172
    8    0.1860
    9    0.1860
   10    0.5990
   11    0.7980
   12    0.8659
   13    0.8659
   14    0.8823
   15    1.0554
   16    1.0554
   17    1.1346

                       ROHF Final Molecular Orbital Analysis
                       -------------------------------------

 Vector    2  Occ=2.000000D+00  E=-1.567750D+01
              MO Center= -1.2D-17, -6.0D-18,  1.1D-12, r^2= 3.1D-01
   Bfn.  Coefficient  Atom+Function         Bfn.  Coefficient  Atom+Function  
  ----- ------------  ---------------      ----- ------------  ---------------
     1      0.708337  1 N  s                 16     -0.708337  2 N  s          

 Vector    3  Occ=2.000000D+00  E=-1.486456D+00
              MO Center= -9.6D-17, -1.7D-16,  8.0D-16, r^2= 4.3D-01
   Bfn.  Coefficient  Atom+Function         Bfn.  Coefficient  Atom+Function  
  ----- ------------  ---------------      ----- ------------  ---------------
    17      0.331384  2 N  s                  2      0.331384  1 N  s          
     6     -0.222268  1 N  pz                21      0.222268  2 N  pz         
     3      0.183742  1 N  s                 18      0.183742  2 N  s          

 Vector    4  Occ=2.000000D+00  E=-7.680312D-01
              MO Center=  7.5D-16,  2.9D-16, -1.0D-14, r^2= 1.3D+00
   Bfn.  Coefficient  Atom+Function         Bfn.  Coefficient  Atom+Function  
  ----- ------------  ---------------      ----- ------------  ---------------
    18      0.434583  2 N  s                  3     -0.434583  1 N  s          
    17      0.324062  2 N  s                  2     -0.324062  1 N  s          
    21     -0.220831  2 N  pz                 6     -0.220831  1 N  pz         

 Vector    5  Occ=2.000000D+00  E=-6.285062D-01
              MO Center=  6.3D-15, -8.5D-16,  1.1D-14, r^2= 1.2D+00
   Bfn.  Coefficient  Atom+Function         Bfn.  Coefficient  Atom+Function  
  ----- ------------  ---------------      ----- ------------  ---------------
     6      0.453089  1 N  pz                21     -0.453089  2 N  pz         
     3      0.345356  1 N  s                 18      0.345356  2 N  s          
    24     -0.209617  2 N  pz                 9      0.209617  1 N  pz         

 Vector    6  Occ=2.000000D+00  E=-6.172011D-01
              MO Center= -4.9D-15,  4.3D-15, -2.4D-15, r^2= 8.9D-01
   Bfn.  Coefficient  Atom+Function         Bfn.  Coefficient  Atom+Function  
  ----- ------------  ---------------      ----- ------------  ---------------
    19      0.321864  2 N  px                 4      0.321864  1 N  px         
    20     -0.282372  2 N  py                 5     -0.282372  1 N  py         
    22      0.189622  2 N  px                 7      0.189622  1 N  px         
    23     -0.166357  2 N  py                 8     -0.166357  1 N  py         

 Vector    7  Occ=2.000000D+00  E=-6.172011D-01
              MO Center= -2.5D-15, -3.2D-15, -1.8D-15, r^2= 8.9D-01
   Bfn.  Coefficient  Atom+Function         Bfn.  Coefficient  Atom+Function  
  ----- ------------  ---------------      ----- ------------  ---------------
    20      0.321864  2 N  py                 5      0.321864  1 N  py         
     4      0.282372  1 N  px                19      0.282372  2 N  px         
    23      0.189622  2 N  py                 8      0.189622  1 N  py         
    22      0.166357  2 N  px                 7      0.166357  1 N  px         

 Vector    8  Occ=0.000000D+00  E= 1.859870D-01
              MO Center= -3.8D-16,  2.1D-16,  2.2D-15, r^2= 1.4D+00
   Bfn.  Coefficient  Atom+Function         Bfn.  Coefficient  Atom+Function  
  ----- ------------  ---------------      ----- ------------  ---------------
     7      0.578734  1 N  px                22     -0.578734  2 N  px         
    23      0.385310  2 N  py                 8     -0.385310  1 N  py         
    19     -0.353956  2 N  px                 4      0.353956  1 N  px         
     5     -0.235657  1 N  py                20      0.235657  2 N  py         

 Vector    9  Occ=0.000000D+00  E= 1.859870D-01
              MO Center= -3.4D-16, -5.0D-16,  9.4D-16, r^2= 1.4D+00
   Bfn.  Coefficient  Atom+Function         Bfn.  Coefficient  Atom+Function  
  ----- ------------  ---------------      ----- ------------  ---------------
    23      0.578734  2 N  py                 8     -0.578734  1 N  py         
     7     -0.385310  1 N  px                22      0.385310  2 N  px         
     5     -0.353956  1 N  py                20      0.353956  2 N  py         
    19      0.235657  2 N  px                 4     -0.235657  1 N  px         

 Vector   10  Occ=0.000000D+00  E= 5.989657D-01
              MO Center=  6.2D-18, -2.6D-17,  9.6D-14, r^2= 3.3D+00
   Bfn.  Coefficient  Atom+Function         Bfn.  Coefficient  Atom+Function  
  ----- ------------  ---------------      ----- ------------  ---------------
     3      4.049260  1 N  s                 18     -4.049260  2 N  s          
     9     -2.679456  1 N  pz                24     -2.679456  2 N  pz         
    17     -0.176259  2 N  s                  2      0.176259  1 N  s          

 Vector   11  Occ=0.000000D+00  E= 7.980336D-01
              MO Center=  2.3D-15, -1.0D-15, -1.6D-13, r^2= 1.8D+00
   Bfn.  Coefficient  Atom+Function         Bfn.  Coefficient  Atom+Function  
  ----- ------------  ---------------      ----- ------------  ---------------
    24      0.871304  2 N  pz                 9     -0.871304  1 N  pz         
     2     -0.522503  1 N  s                 17     -0.522503  2 N  s          
    18      0.421146  2 N  s                  3      0.421146  1 N  s          
     6      0.336772  1 N  pz                21     -0.336772  2 N  pz         
     1     -0.272862  1 N  s                 16     -0.272862  2 N  s          

 Vector   12  Occ=0.000000D+00  E= 8.659339D-01
              MO Center=  4.4D-16, -2.1D-15,  9.2D-15, r^2= 1.7D+00
   Bfn.  Coefficient  Atom+Function         Bfn.  Coefficient  Atom+Function  
  ----- ------------  ---------------      ----- ------------  ---------------
     5      0.620634  1 N  py                20      0.620634  2 N  py         
     8     -0.604593  1 N  py                23     -0.604593  2 N  py         
    14     -0.175695  1 N  dyz               29      0.175695  2 N  dyz        

 Vector   13  Occ=0.000000D+00  E= 8.659339D-01
              MO Center=  1.4D-15,  2.7D-16,  3.7D-14, r^2= 1.7D+00
   Bfn.  Coefficient  Atom+Function         Bfn.  Coefficient  Atom+Function  
  ----- ------------  ---------------      ----- ------------  ---------------
     4      0.620634  1 N  px                19      0.620634  2 N  px         
     7     -0.604593  1 N  px                22     -0.604593  2 N  px         
    27      0.175695  2 N  dxz               12     -0.175695  1 N  dxz        

 Vector   14  Occ=0.000000D+00  E= 8.822551D-01
              MO Center= -3.3D-15,  2.5D-15,  1.3D-13, r^2= 2.4D+00
   Bfn.  Coefficient  Atom+Function         Bfn.  Coefficient  Atom+Function  
  ----- ------------  ---------------      ----- ------------  ---------------
     3      1.079925  1 N  s                 18      1.079925  2 N  s          
     2     -0.709332  1 N  s                 17     -0.709332  2 N  s          
    24     -0.447009  2 N  pz                 9      0.447009  1 N  pz         
     6     -0.408309  1 N  pz                21      0.408309  2 N  pz         
     1     -0.324251  1 N  s                 16     -0.324251  2 N  s          

 Vector   15  Occ=0.000000D+00  E= 1.055369D+00
              MO Center=  6.0D-16,  4.2D-16, -2.8D-14, r^2= 1.9D+00
   Bfn.  Coefficient  Atom+Function         Bfn.  Coefficient  Atom+Function  
  ----- ------------  ---------------      ----- ------------  ---------------
    22      0.959935  2 N  px                 7     -0.959935  1 N  px         
     8     -0.669666  1 N  py                23      0.669666  2 N  py         
    19     -0.602099  2 N  px                 4      0.602099  1 N  px         
    20     -0.420034  2 N  py                 5      0.420034  1 N  py         

 Vector   16  Occ=0.000000D+00  E= 1.055369D+00
              MO Center=  9.6D-17, -1.4D-16, -1.9D-14, r^2= 1.9D+00
   Bfn.  Coefficient  Atom+Function         Bfn.  Coefficient  Atom+Function  
  ----- ------------  ---------------      ----- ------------  ---------------
    23      0.959935  2 N  py                 8     -0.959935  1 N  py         
    22     -0.669666  2 N  px                 7      0.669666  1 N  px         
    20     -0.602099  2 N  py                 5      0.602099  1 N  py         
    19      0.420034  2 N  px                 4     -0.420034  1 N  px         

 Vector   17  Occ=0.000000D+00  E= 1.134646D+00
              MO Center= -8.2D-16,  3.3D-16, -4.8D-14, r^2= 1.3D+00
   Bfn.  Coefficient  Atom+Function         Bfn.  Coefficient  Atom+Function  
  ----- ------------  ---------------      ----- ------------  ---------------
     3      2.202794  1 N  s                 18     -2.202794  2 N  s          
    21     -0.660920  2 N  pz                 6     -0.660920  1 N  pz         
     9     -0.461433  1 N  pz                24     -0.461433  2 N  pz         
    30      0.380757  2 N  dzz               15     -0.380757  1 N  dzz        
    17      0.375824  2 N  s                  2     -0.375824  1 N  s          


 center of mass
 --------------
 x =   0.00000000 y =   0.00000000 z =   0.00000000

 moments of inertia (a.u.)
 ------------------
          29.033037760134           0.000000000000           0.000000000000
           0.000000000000          29.033037760134           0.000000000000
           0.000000000000           0.000000000000           0.000000000000

  Mulliken analysis of the total density
  --------------------------------------

    Atom       Charge   Shell Charges
 -----------   ------   -------------------------------------------------------
    1 N    7     7.00   2.00  0.85  0.90  2.15  1.04  0.06
    2 N    7     7.00   2.00  0.85  0.90  2.15  1.04  0.06

       Multipole analysis of the density wrt the origin
       ------------------------------------------------

     L   x y z        total         open         nuclear
     -   - - -        -----         ----         -------
     0   0 0 0      0.000000      0.000000     14.000000

     1   1 0 0      0.000000      0.000000      0.000000
     1   0 1 0      0.000000      0.000000      0.000000
     1   0 0 1      0.000000      0.000000      0.000000

     2   2 0 0     -7.496881      0.000000      0.000000
     2   1 1 0      0.000000      0.000000      0.000000
     2   1 0 1      0.000000      0.000000      0.000000
     2   0 2 0     -7.496881      0.000000      0.000000
     2   0 1 1      0.000000      0.000000      0.000000
     2   0 0 2     -8.649493      0.000000     14.513336


 Parallel integral file used       1 records with       0 large values


 Read molecular orbitals from ./n2.movecs


 Schwarz integral screening summary 
 ---------------------------------- 

        No. of atom pairs =       3
       No. of shell pairs =      78

 Atomic screening 

   value      no.     value      no.     value      no.     value      no.   
  -------- ------    -------- ------    -------- ------    -------- ------   
  0.00D+00      0    1.00D-13      0    1.00D-12      0    1.00D-11      0
  1.00D-10      0    1.00D-09      0    1.00D-08      0    1.00D-07      0
  1.00D-06      0    1.00D-05      0    1.00D-04      0    1.00D-03      0
  1.00D-02      0    1.00D-01      0    1.00D+00      3    1.00D+01      0


 Shell screening 

   value      no.     value      no.     value      no.     value      no.   
  -------- ------    -------- ------    -------- ------    -------- ------   
  0.00D+00      0    1.00D-13      0    1.00D-12      0    1.00D-11      0
  1.00D-10      0    1.00D-09      0    1.00D-08      0    1.00D-07      0
  1.00D-06      0    1.00D-05      0    1.00D-04      0    1.00D-03      1
  1.00D-02      0    1.00D-01     27    1.00D+00     50    1.00D+01      0


                   NWChem Extensible Many-Electron Theory Module
                   ---------------------------------------------

              ======================================================
                   This portion of the program was automatically
                  generated by a Tensor Contraction Engine (TCE).
                  The development of this portion of the program
                 and TCE was supported by US Department of Energy,
                Office of Science, Office of Basic Energy Science.
                      TCE is a product of Battelle and PNNL.
              Please cite: S.Hirata, J.Phys.Chem.A 107, 9887 (2003).
              ======================================================

            General Information
            -------------------
      Number of processors :     1
         Wavefunction type : Restricted Hartree-Fock
          No. of electrons :    14
           Alpha electrons :     7
            Beta electrons :     7
           No. of orbitals :    60
            Alpha orbitals :    30
             Beta orbitals :    30
        Alpha frozen cores :     0
         Beta frozen cores :     0
     Alpha frozen virtuals :     0
      Beta frozen virtuals :     0
         Spin multiplicity : singlet 
    Number of AO functions :    30
       Number of AO shells :    12
        Use of symmetry is : off
      Symmetry adaption is : off
         Schwarz screening : 0.10D-09

          Correlation Information
          -----------------------
          Calculation type : Coupled-cluster singles & doubles                           
   Perturbative correction : none                                                        
            Max iterations :      100
        Residual threshold : 0.10D-06
     T(0) DIIS level shift : 0.00D+00
     L(0) DIIS level shift : 0.00D+00
     T(1) DIIS level shift : 0.00D+00
     L(1) DIIS level shift : 0.00D+00
     T(R) DIIS level shift : 0.00D+00
     T(I) DIIS level shift : 0.00D+00
   CC-T/L Amplitude update :  5-th order DIIS
                I/O scheme : Global Array Library

            Memory Information
            ------------------
          Available GA space size is     209714300 doubles
          Available MA space size is     209713547 doubles

 Maximum block size        76 doubles

 tile_dim =     23

 Block   Spin    Irrep     Size     Offset   Alpha
 -------------------------------------------------
   1    alpha     a      7 doubles       0       1
   2    beta      a      7 doubles       7       1
   3    alpha     a     23 doubles      14       3
   4    beta      a     23 doubles      37       3

 Global array virtual files algorithm will be used

 Parallel file system coherency ......... OK

 SCF dipole moments / hartree & Debye
 ------------------------------------
   X         0.0000000      0.0000000
   Y         0.0000000      0.0000000
   Z         0.0000000      0.0000000
 Total       0.0000000      0.0000000
 ------------------------------------

 Cpu & wall time / sec            0.0            0.0

 X   axis ( a   symmetry)

 dipole file size   =              900
 dipole file name   = ./n2.d1x            

 Y   axis ( a   symmetry)

 dipole file size   =              900
 dipole file name   = ./n2.d1y            

 Z   axis ( a   symmetry)

 dipole file size   =              900
 dipole file name   = ./n2.d1z            

 Setting fock-build task_bf   :      -1
                    maxquartet:   10000
                    maxeri    :  129600
                    maxscr    :       0
                    intacc    : 0.0D+00
                    denscreen : T
                    dentol    : 1.0D-06

   0: nuse=  16(  15.6) avail=   276877Mb (out of   276877Mb) on .

 #quartets = 3.081D+03 #integrals = 3.370D+04 #direct =  0.0% #cached =100.0%


 Integral file          = ./n2.aoints.0
 Record size in doubles =  65536        No. of integs per rec  =  43688
 Max. records in memory =      5        Max. records in file   = 526065
 No. of bits per label  =      8        No. of bits per value  =     64


 Fock matrix recomputed
 1-e file size   =              900
 1-e file name   = ./n2.f1             
 Cpu & wall time / sec            0.2            0.3

 tce_ao2e: fast2e=1
 half-transformed integrals in memory

 2-e (intermediate) file size =         2140200
 2-e (intermediate) file name = ./n2.v2i            
 Cpu & wall time / sec            1.0            1.0

 tce_mo2e: fast2e=1
 2-e integrals stored in memory

 2-e file size   =          1356121
 2-e file name   = ./n2.v2             
 Cpu & wall time / sec            0.2            0.2
 do_pt =   F
 do_lam_pt =   F
 do_cr_pt =   F
 do_lcr_pt =   F
 do_2t_pt =   F
 T1-number-of-tasks                        1

 t1 file size   =              161
 t1 file name   = ./n2.t1             
 t1 file handle =       -998
 T2-number-of-boxes                        2

 t2 file size   =            51842
 t2 file name   = ./n2.t2             
 t2 file handle =       -992

 CCSD iterations
 -----------------------------------------------------------------
 Iter          Residuum       Correlation     Cpu    Wall    V2*C2
 -----------------------------------------------------------------
    1   0.1545212495621  -0.3113644265730     0.2     0.2     0.0
    2   0.0417703097727  -0.3051401663816     0.2     0.2     0.0
    3   0.0152780478573  -0.3134841414514     0.2     0.2     0.0
    4   0.0074069046487  -0.3137841754271     0.2     0.2     0.0
    5   0.0036859159393  -0.3145246653096     0.2     0.2     0.0
 MICROCYCLE DIIS UPDATE:                        5                        5
    6   0.0006588513417  -0.3148717237609     0.2     0.2     0.0
    7   0.0002210833388  -0.3149136406059     0.2     0.2     0.0
    8   0.0001039815767  -0.3149138551845     0.2     0.2     0.0
    9   0.0000527814215  -0.3149149290653     0.2     0.2     0.0
   10   0.0000277933537  -0.3149159511800     0.2     0.2     0.0
 MICROCYCLE DIIS UPDATE:                       10                        5
   11   0.0000033504644  -0.3149176712877     0.2     0.2     0.0
   12   0.0000011217496  -0.3149175034716     0.2     0.2     0.0
   13   0.0000004519069  -0.3149176464252     0.2     0.2     0.0
   14   0.0000002123784  -0.3149176537090     0.2     0.2     0.0
   15   0.0000001000106  -0.3149176690610     0.2     0.2     0.0
 MICROCYCLE DIIS UPDATE:                       15                        5
   16   0.0000000179153  -0.3149176771894     0.2     0.2     0.0
 -----------------------------------------------------------------
 Iterations converged
 CCSD correlation energy / hartree =        -0.314917677189428
 CCSD total energy / hartree       =      -109.271040793844400

 Singles contributions

 Doubles contributions

 CCSD Lambda iterations
 ---------------------------------------------
 Iter          Residuum            Cpu    Wall
 ---------------------------------------------
    1          1.6042011181218     0.4     0.5
    2          0.0425943249093     0.4     0.5
    3          0.0026849927433     0.4     0.5
    4          0.0004232720730     0.5     0.5
    5          0.0000728675359     0.4     0.5
 MICROCYCLE DIIS UPDATE:                        5                        5
    6          0.0000091591094     0.4     0.5
    7          0.0000012643201     0.4     0.5
    8          0.0000002943174     0.4     0.5
    9          0.0000000839443     0.4     0.4
 ---------------------------------------------
 Iterations converged

 Singles contributions

 Doubles contributions

 CCSD dipole moments / hartree & Debye
 ------------------------------------
   X         0.0000000      0.0000000
   Y         0.0000000      0.0000000
   Z         0.0000000      0.0000000
 Total       0.0000000      0.0000000
 ------------------------------------
 ===================================
 Debug information of density matrix
 ===================================
    1    1  2.0060779890806190
    1    2 -0.0010076025583050
    1    3 -0.0138308937601265
    1    6 -0.0130493887683618
    1    9 -0.0041730890436474
    1   10 -0.0046868085110545
    1   13 -0.0046868085110544
    1   15 -0.0011067930971494
    1   16 -0.0017336933512293
    1   17 -0.0109639523052491
    1   18 -0.0138463736303882
    1   21  0.0077929009991196
    1   24  0.0052659497011206
    1   25 -0.0000983887089884
    1   28 -0.0000983887089884
    1   30 -0.0012165914864515
    2    1 -0.0010076025583050
    2    2  0.4487269028933034
    2    3  0.4726917747015042
    2    6  0.0729411297210721
    2    9  0.0898900416248866
    2   10 -0.0042416408909995
    2   13 -0.0042416408909993
    2   15 -0.0015102029951194
    2   16 -0.0109639523052565
    2   17  0.0263658441086157
    2   18 -0.0954184946673088
    2   21  0.2025698262147764
    2   24  0.0557095200316666
    2   25 -0.0093288501527193
    2   28 -0.0093288501527193
    2   30  0.0266739725720664
    3    1 -0.0138308937601265
    3    2  0.4726917747015042
    3    3  0.6963514403500062
    3    6  0.4156821660187370
    3    9  0.2323034634836277
    3   10  0.0019314538129638
    3   13  0.0019314538129640
    3   15 -0.0301123778596842
    3   16 -0.0138463736303972
    3   17 -0.0954184946673552
    3   18 -0.0678849949266169
    3   21 -0.0449687755917640
    3   24 -0.0364377848324089
    3   25 -0.0049440986560170
    3   28 -0.0049440986560171
    3   30  0.0077768206684997
    4    4  0.3774980642045837
    4    7  0.2067702702448489
    4   12 -0.0637768794228632
    4   19  0.3774980642045853
    4   22  0.2067702702448526
    4   27  0.0637768794228637
    5    5  0.3774980642045903
    5    8  0.2067702702448500
    5   14 -0.0637768794228637
    5   20  0.3774980642045868
    5   23  0.2067702702448541
    5   29  0.0637768794228641
    6    1 -0.0130493887683618
    6    2  0.0729411297210721
    6    3  0.4156821660187370
    6    6  0.5892078363694354
    6    9  0.2495196476101936
    6   10  0.0100512209026397
    6   13  0.0100512209026396
    6   15 -0.0489221761103110
    6   16 -0.0077929009991369
    6   17 -0.2025698262148036
    6   18  0.0449687755920696
    6   21 -0.4097776017277188
    6   24 -0.1545832189994335
    6   25  0.0067192183023041
    6   28  0.0067192183023039
    6   30 -0.0303480507537622
    7    4  0.2067702702448489
    7    7  0.1126090238208105
    7   12 -0.0345384699424297
    7   19  0.2067702702448498
    7   22  0.1126090238208125
    7   27  0.0345384699424299
    8    5  0.2067702702448500
    8    8  0.1126090238208097
    8   14 -0.0345384699424295
    8   20  0.2067702702448480
    8   23  0.1126090238208119
    8   29  0.0345384699424297
    9    1 -0.0041730890436474
    9    2  0.0898900416248866
    9    3  0.2323034634836277
    9    6  0.2495196476101936
    9    9  0.1149828055090938
    9   10  0.0032059893162816
    9   13  0.0032059893162816
    9   15 -0.0194863670861430
    9   16 -0.0052659497011305
    9   17 -0.0557095200316575
    9   18  0.0364377848326457
    9   21 -0.1545832189995839
    9   24 -0.0647970317527001
    9   25  0.0014496252195434
    9   28  0.0014496252195432
    9   30 -0.0097419667860533
   10    1 -0.0046868085110545
   10    2 -0.0042416408909995
   10    3  0.0019314538129638
   10    6  0.0100512209026397
   10    9  0.0032059893162816
   10   10  0.0003154166348319
   10   13  0.0003154166348319
   10   15 -0.0010231750211272
   10   16 -0.0000983887089898
   10   17 -0.0093288501527165
   10   18 -0.0049440986559994
   10   21 -0.0067192183023208
   10   24 -0.0014496252195480
   10   25  0.0002441128384639
   10   28  0.0002441128384639
   10   30 -0.0006746715218135
   12    4 -0.0637768794228632
   12    7 -0.0345384699424297
   12   12  0.0105342274131346
   12   19 -0.0637768794228635
   12   22 -0.0345384699424303
   12   27 -0.0105342274131347
   13    1 -0.0046868085110544
   13    2 -0.0042416408909993
   13    3  0.0019314538129640
   13    6  0.0100512209026396
   13    9  0.0032059893162816
   13   10  0.0003154166348319
   13   13  0.0003154166348319
   13   15 -0.0010231750211272
   13   16 -0.0000983887089899
   13   17 -0.0093288501527169
   13   18 -0.0049440986560001
   13   21 -0.0067192183023203
   13   24 -0.0014496252195478
   13   25  0.0002441128384639
   13   28  0.0002441128384639
   13   30 -0.0006746715218134
   14    5 -0.0637768794228637
   14    8 -0.0345384699424295
   14   14  0.0105342274131346
   14   20 -0.0637768794228630
   14   23 -0.0345384699424302
   14   29 -0.0105342274131346
   15    1 -0.0011067930971494
   15    2 -0.0015102029951194
   15    3 -0.0301123778596842
   15    6 -0.0489221761103110
   15    9 -0.0194863670861430
   15   10 -0.0010231750211272
   15   13 -0.0010231750211272
   15   15  0.0042344602083170
   15   16 -0.0012165914864500
   15   17  0.0266739725720679
   15   18  0.0077768206684789
   15   21  0.0303480507537578
   15   24  0.0097419667860409
   15   25 -0.0006746715218119
   15   28 -0.0006746715218119
   15   30  0.0024488888166837
   16    1 -0.0017336933512293
   16    2 -0.0109639523052565
   16    3 -0.0138463736303972
   16    6 -0.0077929009991369
   16    9 -0.0052659497011305
   16   10 -0.0000983887089898
   16   13 -0.0000983887089899
   16   15 -0.0012165914864500
   16   16  2.0060779890806210
   16   17 -0.0010076025583027
   16   18 -0.0138308937601329
   16   21  0.0130493887683781
   16   24  0.0041730890436575
   16   25 -0.0046868085110566
   16   28 -0.0046868085110566
   16   30 -0.0011067930971467
   17    1 -0.0109639523052491
   17    2  0.0263658441086157
   17    3 -0.0954184946673552
   17    6 -0.2025698262148036
   17    9 -0.0557095200316575
   17   10 -0.0093288501527165
   17   13 -0.0093288501527169
   17   15  0.0266739725720679
   17   16 -0.0010076025583027
   17   17  0.4487269028933030
   17   18  0.4726917747015029
   17   21 -0.0729411297210480
   17   24 -0.0898900416248639
   17   25 -0.0042416408909910
   17   28 -0.0042416408909914
   17   30 -0.0015102029951134
   18    1 -0.0138463736303882
   18    2 -0.0954184946673088
   18    3 -0.0678849949266169
   18    6  0.0449687755920696
   18    9  0.0364377848326457
   18   10 -0.0049440986559994
   18   13 -0.0049440986560001
   18   15  0.0077768206684789
   18   16 -0.0138308937601329
   18   17  0.4726917747015029
   18   18  0.6963514403503557
   18   21 -0.4156821660190292
   18   24 -0.2323034634836625
   18   25  0.0019314538129723
   18   28  0.0019314538129716
   18   30 -0.0301123778597028
   19    4  0.3774980642045853
   19    7  0.2067702702448498
   19   12 -0.0637768794228635
   19   19  0.3774980642045868
   19   22  0.2067702702448534
   19   27  0.0637768794228640
   20    5  0.3774980642045868
   20    8  0.2067702702448480
   20   14 -0.0637768794228630
   20   20  0.3774980642045834
   20   23  0.2067702702448521
   20   29  0.0637768794228634
   21    1  0.0077929009991196
   21    2  0.2025698262147764
   21    3 -0.0449687755917640
   21    6 -0.4097776017277188
   21    9 -0.1545832189995839
   21   10 -0.0067192183023208
   21   13 -0.0067192183023203
   21   15  0.0303480507537578
   21   16  0.0130493887683781
   21   17 -0.0729411297210480
   21   18 -0.4156821660190292
   21   21  0.5892078363694286
   21   24  0.2495196476100466
   21   25 -0.0100512209026311
   21   28 -0.0100512209026306
   21   30  0.0489221761103123
   22    4  0.2067702702448526
   22    7  0.1126090238208125
   22   12 -0.0345384699424303
   22   19  0.2067702702448534
   22   22  0.1126090238208144
   22   27  0.0345384699424305
   23    5  0.2067702702448541
   23    8  0.1126090238208119
   23   14 -0.0345384699424302
   23   20  0.2067702702448521
   23   23  0.1126090238208142
   23   29  0.0345384699424304
   24    1  0.0052659497011206
   24    2  0.0557095200316666
   24    3 -0.0364377848324089
   24    6 -0.1545832189994335
   24    9 -0.0647970317527001
   24   10 -0.0014496252195480
   24   13 -0.0014496252195478
   24   15  0.0097419667860409
   24   16  0.0041730890436575
   24   17 -0.0898900416248639
   24   18 -0.2323034634836625
   24   21  0.2495196476100466
   24   24  0.1149828055089653
   24   25 -0.0032059893162768
   24   28 -0.0032059893162765
   24   30  0.0194863670861325
   25    1 -0.0000983887089884
   25    2 -0.0093288501527193
   25    3 -0.0049440986560170
   25    6  0.0067192183023041
   25    9  0.0014496252195434
   25   10  0.0002441128384639
   25   13  0.0002441128384639
   25   15 -0.0006746715218119
   25   16 -0.0046868085110566
   25   17 -0.0042416408909910
   25   18  0.0019314538129723
   25   21 -0.0100512209026311
   25   24 -0.0032059893162768
   25   25  0.0003154166348315
   25   28  0.0003154166348315
   25   30 -0.0010231750211265
   27    4  0.0637768794228637
   27    7  0.0345384699424299
   27   12 -0.0105342274131347
   27   19  0.0637768794228640
   27   22  0.0345384699424305
   27   27  0.0105342274131347
   28    1 -0.0000983887089884
   28    2 -0.0093288501527193
   28    3 -0.0049440986560171
   28    6  0.0067192183023039
   28    9  0.0014496252195432
   28   10  0.0002441128384639
   28   13  0.0002441128384639
   28   15 -0.0006746715218119
   28   16 -0.0046868085110566
   28   17 -0.0042416408909914
   28   18  0.0019314538129716
   28   21 -0.0100512209026306
   28   24 -0.0032059893162765
   28   25  0.0003154166348315
   28   28  0.0003154166348315
   28   30 -0.0010231750211264
   29    5  0.0637768794228641
   29    8  0.0345384699424297
   29   14 -0.0105342274131346
   29   20  0.0637768794228634
   29   23  0.0345384699424304
   29   29  0.0105342274131347
   30    1 -0.0012165914864515
   30    2  0.0266739725720664
   30    3  0.0077768206684997
   30    6 -0.0303480507537622
   30    9 -0.0097419667860533
   30   10 -0.0006746715218135
   30   13 -0.0006746715218134
   30   15  0.0024488888166837
   30   16 -0.0011067930971467
   30   17 -0.0015102029951134
   30   18 -0.0301123778597028
   30   21  0.0489221761103123
   30   24  0.0194863670861325
   30   25 -0.0010231750211265
   30   28 -0.0010231750211264
   30   30  0.0042344602083175
 ===================================
       End of debug information     
 ===================================

 Parallel integral file used       1 records with       0 large values


 Task  times  cpu:        8.8s     wall:        9.3s


                                NWChem Input Module
                                -------------------


 Summary of allocated global arrays
-----------------------------------
  No active global arrays



                         GA Statistics for process    0
                         ------------------------------

       create   destroy   get      put      acc     scatter   gather  read&inc
calls: 1113     1113     2.18e+04 5068     6732        0        0        0     
number of processes/call 1.00e+00 1.00e+00 1.00e+00 0.00e+00 0.00e+00
bytes total:             1.85e+09 7.69e+07 5.49e+08 0.00e+00 0.00e+00 0.00e+00
bytes remote:            0.00e+00 0.00e+00 0.00e+00 0.00e+00 0.00e+00 0.00e+00
Max memory consumed for GA by this process: 28006568 bytes

MA_summarize_allocated_blocks: starting scan ...
MA_summarize_allocated_blocks: scan completed: 0 heap blocks, 0 stack blocks
MA usage statistics:

	allocation statistics:
					      heap	     stack
					      ----	     -----
	current number of blocks	         0	         0
	maximum number of blocks	        17	        39
	current total bytes		         0	         0
	maximum total bytes		   2633288	  22509576
	maximum total K-bytes		      2634	     22510
	maximum total M-bytes		         3	        23


                                     CITATION
                                     --------
                Please cite the following reference when publishing
                           results obtained with NWChem:

                 M. Valiev, E.J. Bylaska, N. Govind, K. Kowalski,
              T.P. Straatsma, H.J.J. van Dam, D. Wang, J. Nieplocha,
                        E. Apra, T.L. Windus, W.A. de Jong
                 "NWChem: a comprehensive and scalable open-source
                  solution for large scale molecular simulations"
                      Comput. Phys. Commun. 181, 1477 (2010)
                           doi:10.1016/j.cpc.2010.04.018

                              AUTHORS & CONTRIBUTORS
                              ----------------------
      E. J. Bylaska, W. A. de Jong, N. Govind, K. Kowalski, T. P. Straatsma,
     M. Valiev, H. J. J. van Dam, D. Wang, E. Apra, T. L. Windus, J. Hammond,
     J. Autschbach, P. Nichols, S. Hirata, M. T. Hackler, Y. Zhao, P.-D. Fan,
      R. J. Harrison, M. Dupuis, D. M. A. Smith, K. Glaesemann, J. Nieplocha,
      V. Tipparaju, M. Krishnan, A. Vazquez-Mayagoitia, L. Jensen, M. Swart,
      Q. Wu, T. Van Voorhis, A. A. Auer, M. Nooijen, L. D. Crosby, E. Brown,
             G. Cisneros, G. I. Fann, H. Fruchtl, J. Garza, K. Hirao,
        R. Kendall, J. A. Nichols, K. Tsemekhman, K. Wolinski, J. Anchell,
       D. Bernholdt, P. Borowski, T. Clark, D. Clerc, H. Dachsel, M. Deegan,
        K. Dyall, D. Elwood, E. Glendening, M. Gutowski, A. Hess, J. Jaffe,
        B. Johnson, J. Ju, R. Kobayashi, R. Kutteh, Z. Lin, R. Littlefield,
    X. Long, B. Meng, T. Nakajima, S. Niu, L. Pollack, M. Rosing, G. Sandrone,
       M. Stave, H. Taylor, G. Thomas, J. H. van Lenthe, A. Wong, Z. Zhang.

 Total times  cpu:        8.8s     wall:        9.5s
