 argument  1 = /home/edo/nwchem/nwchem.oct/QA/tests/dft_scanl/dft_scanl.nw
 


============================== echo of input deck ==============================
echo
title "Test SCAN-L"

start scanl

geometry
  H     -0.53613834     1.65036000     0.76488131
  N     -0.20560016     1.19352105    -0.09517494
  C      0.50994699     0.02103750     0.20703847
  H      1.50546027    -0.04117360    -0.23494242
  F     -0.24147792    -1.09742630    -0.06675439
end

basis cartesian
  C library 6-31g*
  N library 6-31g*
  F library 6-31g*
  H library 6-31g
end

dft
 xc scanl
 grid xfine
end
task dft

dft
  mult 1
  odft
  vectors input atomic
end
task dft

dft
  noio
  mult 3
  odft
  xc scanl
  tolerances tight
  grid xfine
  vectors input atomic
  convergence energy 1d-8
end
task dft optimize
================================================================================


                                         
                                         
 
 
             Northwest Computational Chemistry Package (NWChem) 7.0.0
             --------------------------------------------------------
 
 
                    Environmental Molecular Sciences Laboratory
                       Pacific Northwest National Laboratory
                                Richland, WA 99352
 
                              Copyright (c) 1994-2019
                       Pacific Northwest National Laboratory
                            Battelle Memorial Institute
 
             NWChem is an open-source computational chemistry package
                        distributed under the terms of the
                      Educational Community License (ECL) 2.0
             A copy of the license is included with this distribution
                              in the LICENSE.TXT file
 
                                  ACKNOWLEDGMENT
                                  --------------

            This software and its documentation were developed at the
            EMSL at Pacific Northwest National Laboratory, a multiprogram
            national laboratory, operated for the U.S. Department of Energy
            by Battelle under Contract Number DE-AC05-76RL01830. Support
            for this work was provided by the Department of Energy Office
            of Biological and Environmental Research, Office of Basic
            Energy Sciences, and the Office of Advanced Scientific Computing.


           Job information
           ---------------

    hostname        = durian
    program         = /home/edo/nwchem/nwchem.oct/bin/LINUX64/nwchem
    date            = Sat Nov  2 11:09:27 2019

    compiled        = Mon_Oct_28_20:58:44_2019
    source          = /home/edo/nwchem/nwchem.oct
    nwchem branch   = 7.0.0
    nwchem revision = nwchem_on_git-1317-gaa6968800
    ga revision     = 5.7.0
    use scalapack   = T
    input           = /home/edo/nwchem/nwchem.oct/QA/tests/dft_scanl/dft_scanl.nw
    prefix          = scanl.
    data base       = ./scanl.db
    status          = startup
    nproc           =        3
    time left       =     -1s



           Memory information
           ------------------

    heap     =  324651512 doubles =   2476.9 Mbytes
    stack    =  324651509 doubles =   2476.9 Mbytes
    global   =  185515150 doubles =   1415.4 Mbytes (distinct from heap & stack)
    total    =  834818171 doubles =   6369.2 Mbytes
    verify   = yes
    hardfail = no 


           Directory information
           ---------------------
 
  0 permanent = .
  0 scratch   = .
 
 
 
 
                                NWChem Input Module
                                -------------------
 
 
                                    Test SCAN-L
                                    -----------

 Scaling coordinates for geometry "geometry" by  1.889725989
 (inverse scale =  0.529177249)

 C1  symmetry detected

          ------
          auto-z
          ------
  no constraints, skipping     0.000000000000000     
  no constraints, skipping     0.000000000000000     
 
 
                             Geometry "geometry" -> ""
                             -------------------------
 
 Output coordinates in angstroms (scale by  1.889725989 to convert to a.u.)
 
  No.       Tag          Charge          X              Y              Z
 ---- ---------------- ---------- -------------- -------------- --------------
    1 H                    1.0000    -0.46151227     1.64900039     0.78859912
    2 N                    7.0000    -0.26850335     1.17628502    -0.10411685
    3 C                    6.0000     0.51633303     0.02722821     0.10023253
    4 H                    1.0000     1.42498181    -0.02627119    -0.50123170
    5 F                    9.0000    -0.24243825    -1.11334373    -0.01777163
 
      Atomic Mass 
      ----------- 
 
      H                  1.007825
      N                 14.003070
      C                 12.000000
      F                 18.998400
 

 Effective nuclear repulsion energy (a.u.)      65.1361364159

            Nuclear Dipole moment (a.u.) 
            ----------------------------
        X                 Y               Z
 ---------------- ---------------- ----------------
     0.0000000000     0.0000000000    -0.0000000000
 


                                Z-matrix (autoz)
                                -------- 

 Units are Angstrom for bonds and degrees for angles
 
      Type          Name      I     J     K     L     M      Value
      ----------- --------  ----- ----- ----- ----- ----- ----------
    1 Stretch                  1     2                       1.02842
    2 Stretch                  2     3                       1.40643
    3 Stretch                  3     4                       1.09099
    4 Stretch                  3     5                       1.37498
    5 Bend                     1     2     3               110.74073
    6 Bend                     2     3     4               115.13341
    7 Bend                     2     3     5               110.93460
    8 Bend                     4     3     5               111.81548
    9 Torsion                  1     2     3     4        -126.78514
   10 Torsion                  1     2     3     5         104.97404
 
 
            XYZ format geometry
            -------------------
     5
 geometry
 H                    -0.46151227     1.64900039     0.78859912
 N                    -0.26850335     1.17628502    -0.10411685
 C                     0.51633303     0.02722821     0.10023253
 H                     1.42498181    -0.02627119    -0.50123170
 F                    -0.24243825    -1.11334373    -0.01777163
 
 ==============================================================================
                                internuclear distances
 ------------------------------------------------------------------------------
       center one      |      center two      | atomic units |  angstroms
 ------------------------------------------------------------------------------
    2 N                |   1 H                |     1.94344  |     1.02842
    3 C                |   2 N                |     2.65778  |     1.40643
    4 H                |   3 C                |     2.06168  |     1.09099
    5 F                |   3 C                |     2.59833  |     1.37498
 ------------------------------------------------------------------------------
                         number of included internuclear distances:          4
 ==============================================================================



 ==============================================================================
                                 internuclear angles
 ------------------------------------------------------------------------------
        center 1       |       center 2       |       center 3       |  degrees
 ------------------------------------------------------------------------------
    1 H                |   2 N                |   3 C                |   110.74
    2 N                |   3 C                |   4 H                |   115.13
    2 N                |   3 C                |   5 F                |   110.93
    4 H                |   3 C                |   5 F                |   111.82
 ------------------------------------------------------------------------------
                            number of included internuclear angles:          4
 ==============================================================================



                      Basis "ao basis" -> "" (cartesian)
                      -----
  C (Carbon)
  ----------
            Exponent  Coefficients 
       -------------- ---------------------------------------------------------
  1 S  3.04752490E+03  0.001835
  1 S  4.57369510E+02  0.014037
  1 S  1.03948690E+02  0.068843
  1 S  2.92101550E+01  0.232184
  1 S  9.28666300E+00  0.467941
  1 S  3.16392700E+00  0.362312
 
  2 S  7.86827240E+00 -0.119332
  2 S  1.88128850E+00 -0.160854
  2 S  5.44249300E-01  1.143456
 
  3 P  7.86827240E+00  0.068999
  3 P  1.88128850E+00  0.316424
  3 P  5.44249300E-01  0.744308
 
  4 S  1.68714400E-01  1.000000
 
  5 P  1.68714400E-01  1.000000
 
  6 D  8.00000000E-01  1.000000
 
  N (Nitrogen)
  ------------
            Exponent  Coefficients 
       -------------- ---------------------------------------------------------
  1 S  4.17351100E+03  0.001835
  1 S  6.27457900E+02  0.013995
  1 S  1.42902100E+02  0.068587
  1 S  4.02343300E+01  0.232241
  1 S  1.28202100E+01  0.469070
  1 S  4.39043700E+00  0.360455
 
  2 S  1.16263580E+01 -0.114961
  2 S  2.71628000E+00 -0.169118
  2 S  7.72218000E-01  1.145852
 
  3 P  1.16263580E+01  0.067580
  3 P  2.71628000E+00  0.323907
  3 P  7.72218000E-01  0.740895
 
  4 S  2.12031300E-01  1.000000
 
  5 P  2.12031300E-01  1.000000
 
  6 D  8.00000000E-01  1.000000
 
  F (Fluorine)
  ------------
            Exponent  Coefficients 
       -------------- ---------------------------------------------------------
  1 S  7.00171309E+03  0.001820
  1 S  1.05136609E+03  0.013916
  1 S  2.39285690E+02  0.068405
  1 S  6.73974453E+01  0.233186
  1 S  2.15199573E+01  0.471267
  1 S  7.40310130E+00  0.356619
 
  2 S  2.08479528E+01 -0.108507
  2 S  4.80830834E+00 -0.146452
  2 S  1.34406986E+00  1.128689
 
  3 P  2.08479528E+01  0.071629
  3 P  4.80830834E+00  0.345912
  3 P  1.34406986E+00  0.722470
 
  4 S  3.58151393E-01  1.000000
 
  5 P  3.58151393E-01  1.000000
 
  6 D  8.00000000E-01  1.000000
 
  H (Hydrogen)
  ------------
            Exponent  Coefficients 
       -------------- ---------------------------------------------------------
  1 S  1.87311370E+01  0.033495
  1 S  2.82539370E+00  0.234727
  1 S  6.40121700E-01  0.813757
 
  2 S  1.61277800E-01  1.000000
 


 Summary of "ao basis" -> "" (cartesian)
 ------------------------------------------------------------------------------
       Tag                 Description            Shells   Functions and Types
 ---------------- ------------------------------  ------  ---------------------
 C                           6-31g*                  6       15   3s2p1d
 N                           6-31g*                  6       15   3s2p1d
 F                           6-31g*                  6       15   3s2p1d
 H                           6-31g                   2        2   2s


 
                                 NWChem DFT Module
                                 -----------------
 
 
                                    Test SCAN-L
 
 


 Summary of "ao basis" -> "ao basis" (cartesian)
 ------------------------------------------------------------------------------
       Tag                 Description            Shells   Functions and Types
 ---------------- ------------------------------  ------  ---------------------
 C                           6-31g*                  6       15   3s2p1d
 N                           6-31g*                  6       15   3s2p1d
 F                           6-31g*                  6       15   3s2p1d
 H                           6-31g                   2        2   2s


  Caching 1-el integrals 
 
            General Information
            -------------------
          SCF calculation type: DFT
          Wavefunction type:  closed shell.
          No. of atoms     :     5
          No. of electrons :    24
           Alpha electrons :    12
            Beta electrons :    12
          Charge           :     0
          Spin multiplicity:     1
          Use of symmetry is: off; symmetry adaption is: off
          Maximum number of iterations:  30
          AO basis - number of functions:    49
                     number of shells:    22
          Convergence on energy requested:  1.00D-06
          Convergence on density requested:  1.00D-05
          Convergence on gradient requested:  5.00D-04
 
              XC Information
              --------------
                       SCAN-L Method XC Functional
                SCAN-L metaGGA Exchange Functional  1.000          
                      SCAN-L Correlation Potential  1.000          
 
             Grid Information
             ----------------
          Grid used for XC integration:  xfine     
          Radial quadrature: Mura-Knowles        
          Angular quadrature: Lebedev. 
          Tag              B.-S. Rad. Rad. Pts. Rad. Cut. Ang. Pts.
          ---              ---------- --------- --------- ---------
          H                   0.35      100           8.0      1202
          N                   0.65      100           7.0      1454
          C                   0.70      100           7.0      1454
          F                   0.50      100           8.0      1454
          Grid pruning is: on 
          Number of quadrature shells:   500
          Spatial weights used:  Erf1
 
          Convergence Information
          -----------------------
          Convergence aids based upon iterative change in 
          total energy or number of iterations. 
          Levelshifting, if invoked, occurs when the 
          HOMO/LUMO gap drops below (HL_TOL):  1.00D-02
          DIIS, if invoked, will attempt to extrapolate 
          using up to (NFOCK): 10 stored Fock matrices.

                    Damping( 0%)  Levelshifting(0.5)       DIIS
                  --------------- ------------------- ---------------
          dE  on:    start            ASAP                start   
          dE off:    2 iters         30 iters            30 iters 

 
      Screening Tolerance Information
      -------------------------------
          Density screening/tol_rho:  1.00D-10
          AO Gaussian exp screening on grid/accAOfunc:  14
          CD Gaussian exp screening on grid/accCDfunc:  20
          XC Gaussian exp screening on grid/accXCfunc:  20
          Schwarz screening/accCoul:  1.00D-08

 
      Superposition of Atomic Density Guess
      -------------------------------------
 
 Sum of atomic energies:        -192.32278949
 
      Non-variational initial energy
      ------------------------------

 Total energy =    -193.031125
 1-e energy   =    -393.731922
 2-e energy   =     135.564660
 HOMO         =      -0.274590
 LUMO         =      -0.074195
 
   Time after variat. SCF:      1.3
   Time prior to 1st pass:      1.3

 Grid_pts file          = ./scanl.gridpts.0
 Record size in doubles =  12289        No. of grid_pts per rec  =   3070
 Max. records in memory =     88        Max. recs in file   = 337750284


           Memory utilization after 1st SCF pass: 
           Heap Space remaining (MW):      193.77           193771488
          Stack Space remaining (MW):      324.65           324651092

   convergence    iter        energy       DeltaE   RMS-Dens  Diis-err    time
 ---------------- ----- ----------------- --------- --------- ---------  ------
 d= 0,ls=0.0,diis     1   -193.6194171261 -2.59D+02  6.18D-02  1.18D+00     3.3
 d= 0,ls=0.0,diis     2   -192.2944026844  1.33D+00  5.74D-02  1.04D+01     5.8
 d= 0,ls=0.0,diis     3   -193.7329016346 -1.44D+00  1.57D-02  5.69D-01     8.5
 d= 0,ls=0.0,diis     4   -193.7395326135 -6.63D-03  9.32D-03  4.55D-01    10.4
 d= 0,ls=0.0,diis     5   -193.7900743369 -5.05D-02  1.88D-03  1.06D-02    12.5
  Resetting Diis
 d= 0,ls=0.0,diis     6   -193.7914051310 -1.33D-03  4.30D-04  8.41D-04    14.3
 d= 0,ls=0.0,diis     7   -193.7915275889 -1.22D-04  1.03D-04  1.10D-05    16.2
 d= 0,ls=0.0,diis     8   -193.7915249140  2.67D-06  1.19D-04  3.47D-05    17.9
 d= 0,ls=0.0,diis     9   -193.7915269776 -2.06D-06  6.36D-05  1.97D-05    19.6
 d= 0,ls=0.0,diis    10   -193.7915290645 -2.09D-06  6.18D-06  1.22D-07    21.8
 d= 0,ls=0.0,diis    11   -193.7915290950 -3.05D-08  1.83D-06  2.90D-08    24.0


         Total DFT energy =     -193.791529094952
      One electron energy =     -395.249344234065
           Coulomb energy =      159.758507168752
    Exchange-Corr. energy =      -23.436828445548
 Nuclear repulsion energy =       65.136136415909

 Numeric. integr. density =       24.000000018548

     Total iterative time =     22.7s


 
                       DFT Final Molecular Orbital Analysis
                       ------------------------------------
 
 Vector    1  Occ=2.000000D+00  E=-2.440232D+01
              MO Center= -2.4D-01, -1.1D+00, -1.8D-02, r^2= 1.2D-02
   Bfn.  Coefficient  Atom+Function         Bfn.  Coefficient  Atom+Function  
  ----- ------------  ---------------      ----- ------------  ---------------
    35      0.993396  5 F  s          
 
 Vector    2  Occ=2.000000D+00  E=-1.407590D+01
              MO Center= -2.7D-01,  1.2D+00, -1.0D-01, r^2= 2.0D-02
   Bfn.  Coefficient  Atom+Function         Bfn.  Coefficient  Atom+Function  
  ----- ------------  ---------------      ----- ------------  ---------------
     3      0.993816  2 N  s                  4      0.030367  2 N  s          
 
 Vector    3  Occ=2.000000D+00  E=-1.013437D+01
              MO Center=  5.2D-01,  2.7D-02,  1.0D-01, r^2= 2.8D-02
   Bfn.  Coefficient  Atom+Function         Bfn.  Coefficient  Atom+Function  
  ----- ------------  ---------------      ----- ------------  ---------------
    18      0.994656  3 C  s                 19      0.035164  3 C  s          
 
 Vector    4  Occ=2.000000D+00  E=-1.132356D+00
              MO Center= -1.4D-01, -9.6D-01, -3.7D-03, r^2= 4.2D-01
   Bfn.  Coefficient  Atom+Function         Bfn.  Coefficient  Atom+Function  
  ----- ------------  ---------------      ----- ------------  ---------------
    36      0.509063  5 F  s                 40      0.442026  5 F  s          
    35     -0.220450  5 F  s                 19      0.119414  3 C  s          
    21     -0.083421  3 C  py                38      0.077386  5 F  py         
    18     -0.061608  3 C  s                 37      0.056273  5 F  px         
    20     -0.055822  3 C  px                42      0.035960  5 F  py         
 
 Vector    5  Occ=2.000000D+00  E=-7.804934D-01
              MO Center= -2.3D-02,  8.0D-01,  6.4D-02, r^2= 9.8D-01
   Bfn.  Coefficient  Atom+Function         Bfn.  Coefficient  Atom+Function  
  ----- ------------  ---------------      ----- ------------  ---------------
     4      0.374738  2 N  s                  8      0.350056  2 N  s          
    19      0.242857  3 C  s                  3     -0.174232  2 N  s          
    40     -0.135888  5 F  s                 21      0.134950  3 C  py         
    23      0.127834  3 C  s                  1      0.121635  1 H  s          
    18     -0.112364  3 C  s                 36     -0.103159  5 F  s          
 
 Vector    6  Occ=2.000000D+00  E=-5.939786D-01
              MO Center=  3.0D-01,  1.6D-02, -2.0D-02, r^2= 1.9D+00
   Bfn.  Coefficient  Atom+Function         Bfn.  Coefficient  Atom+Function  
  ----- ------------  ---------------      ----- ------------  ---------------
    19      0.311592  3 C  s                 23      0.272153  3 C  s          
     8     -0.233310  2 N  s                 40     -0.230831  5 F  s          
    37      0.188895  5 F  px                 4     -0.185021  2 N  s          
    38      0.183615  5 F  py                33      0.182544  4 H  s          
    18     -0.138399  3 C  s                  1     -0.133458  1 H  s          
 
 Vector    7  Occ=2.000000D+00  E=-4.753448D-01
              MO Center=  2.4D-01, -5.8D-01, -9.0D-02, r^2= 1.4D+00
   Bfn.  Coefficient  Atom+Function         Bfn.  Coefficient  Atom+Function  
  ----- ------------  ---------------      ----- ------------  ---------------
    38      0.420048  5 F  py                20     -0.309826  3 C  px         
    42      0.249067  5 F  py                40     -0.186664  5 F  s          
    21     -0.183801  3 C  py                33     -0.180936  4 H  s          
    39      0.155858  5 F  pz                37      0.149970  5 F  px         
    22      0.134517  3 C  pz                34     -0.120753  4 H  s          
 
 Vector    8  Occ=2.000000D+00  E=-4.403527D-01
              MO Center= -8.7D-02,  3.0D-01,  9.3D-02, r^2= 1.9D+00
   Bfn.  Coefficient  Atom+Function         Bfn.  Coefficient  Atom+Function  
  ----- ------------  ---------------      ----- ------------  ---------------
    37      0.304606  5 F  px                 6      0.287864  2 N  py         
    21     -0.230685  3 C  py                20      0.216993  3 C  px         
     1      0.195781  1 H  s                 41      0.188918  5 F  px         
     7      0.171905  2 N  pz                 5     -0.133402  2 N  px         
    39      0.131779  5 F  pz                 2      0.123288  1 H  s          
 
 Vector    9  Occ=2.000000D+00  E=-4.024159D-01
              MO Center= -8.6D-02, -6.3D-01,  8.2D-02, r^2= 1.3D+00
   Bfn.  Coefficient  Atom+Function         Bfn.  Coefficient  Atom+Function  
  ----- ------------  ---------------      ----- ------------  ---------------
    39      0.515310  5 F  pz                43      0.341063  5 F  pz         
    22      0.220278  3 C  pz                26      0.154227  3 C  pz         
    38     -0.148790  5 F  py                37     -0.136495  5 F  px         
    21      0.135156  3 C  py                23      0.111487  3 C  s          
    19      0.106422  3 C  s                  5      0.100472  2 N  px         
 
 Vector   10  Occ=2.000000D+00  E=-3.324656D-01
              MO Center= -6.6D-02, -4.8D-01, -2.6D-02, r^2= 1.7D+00
   Bfn.  Coefficient  Atom+Function         Bfn.  Coefficient  Atom+Function  
  ----- ------------  ---------------      ----- ------------  ---------------
    37      0.479651  5 F  px                41      0.329252  5 F  px         
    38     -0.302780  5 F  py                42     -0.208316  5 F  py         
     8      0.198042  2 N  s                 20     -0.167419  3 C  px         
     7     -0.160371  2 N  pz                 6     -0.158691  2 N  py         
    34     -0.144456  4 H  s                 33     -0.137569  4 H  s          
 
 Vector   11  Occ=2.000000D+00  E=-2.902834D-01
              MO Center= -1.1D-01,  5.1D-01, -1.1D-01, r^2= 1.8D+00
   Bfn.  Coefficient  Atom+Function         Bfn.  Coefficient  Atom+Function  
  ----- ------------  ---------------      ----- ------------  ---------------
     7      0.354631  2 N  pz                39     -0.317427  5 F  pz         
     8     -0.305423  2 N  s                 22      0.239064  3 C  pz         
    43     -0.232901  5 F  pz                11      0.231509  2 N  pz         
     4     -0.157126  2 N  s                 23      0.151463  3 C  s          
     5      0.136085  2 N  px                 6     -0.131764  2 N  py         
 
 Vector   12  Occ=2.000000D+00  E=-1.766784D-01
              MO Center= -1.9D-01,  9.7D-01, -8.0D-02, r^2= 1.2D+00
   Bfn.  Coefficient  Atom+Function         Bfn.  Coefficient  Atom+Function  
  ----- ------------  ---------------      ----- ------------  ---------------
     5      0.486441  2 N  px                 9      0.381978  2 N  px         
     6      0.323157  2 N  py                10      0.270173  2 N  py         
    38      0.187446  5 F  py                42      0.154155  5 F  py         
    40      0.143870  5 F  s                 25      0.132630  3 C  py         
    34     -0.116944  4 H  s                 21      0.073176  3 C  py         
 
 Vector   13  Occ=0.000000D+00  E=-1.481297D-01
              MO Center=  2.6D-01,  3.1D-01,  1.3D-01, r^2= 1.8D+00
   Bfn.  Coefficient  Atom+Function         Bfn.  Coefficient  Atom+Function  
  ----- ------------  ---------------      ----- ------------  ---------------
    22      0.488653  3 C  pz                23      0.359954  3 C  s          
    26      0.346412  3 C  pz                 7     -0.291421  2 N  pz         
     8      0.254548  2 N  s                 11     -0.251992  2 N  pz         
    39     -0.235742  5 F  pz                43     -0.195581  5 F  pz         
    34     -0.178375  4 H  s                  2     -0.143336  1 H  s          
 
 Vector   14  Occ=0.000000D+00  E= 8.828448D-02
              MO Center=  4.5D-01,  5.7D-01,  1.1D-01, r^2= 3.7D+00
   Bfn.  Coefficient  Atom+Function         Bfn.  Coefficient  Atom+Function  
  ----- ------------  ---------------      ----- ------------  ---------------
    23      1.274419  3 C  s                 34     -1.151721  4 H  s          
     2      1.048640  1 H  s                  8     -0.896838  2 N  s          
    40     -0.441693  5 F  s                 11     -0.369184  2 N  pz         
    26     -0.344068  3 C  pz                25     -0.244473  3 C  py         
    42     -0.231553  5 F  py                22     -0.211500  3 C  pz         
 
 Vector   15  Occ=0.000000D+00  E= 1.120673D-01
              MO Center=  3.7D-01,  9.0D-01,  3.1D-01, r^2= 3.8D+00
   Bfn.  Coefficient  Atom+Function         Bfn.  Coefficient  Atom+Function  
  ----- ------------  ---------------      ----- ------------  ---------------
    34      1.251373  4 H  s                  2      1.239078  1 H  s          
     8     -0.994518  2 N  s                 23     -0.699043  3 C  s          
    11     -0.619401  2 N  pz                24     -0.497154  3 C  px         
    26      0.460311  3 C  pz                25      0.365750  3 C  py         
     7     -0.261045  2 N  pz                40      0.195289  5 F  s          
 
 Vector   16  Occ=0.000000D+00  E= 1.231089D-01
              MO Center=  6.1D-01, -4.7D-02, -3.4D-02, r^2= 2.2D+00
   Bfn.  Coefficient  Atom+Function         Bfn.  Coefficient  Atom+Function  
  ----- ------------  ---------------      ----- ------------  ---------------
    34      1.040305  4 H  s                 25     -0.848491  3 C  py         
    40     -0.684875  5 F  s                 24     -0.679223  3 C  px         
    23     -0.481590  3 C  s                  8      0.475834  2 N  s          
     9      0.416672  2 N  px                20     -0.404632  3 C  px         
    21     -0.399265  3 C  py                42     -0.304227  5 F  py         
 
 Vector   17  Occ=0.000000D+00  E= 2.435930D-01
              MO Center=  2.1D-01,  4.1D-01,  7.2D-02, r^2= 2.2D+00
   Bfn.  Coefficient  Atom+Function         Bfn.  Coefficient  Atom+Function  
  ----- ------------  ---------------      ----- ------------  ---------------
    23      1.633608  3 C  s                  8     -1.432741  2 N  s          
    10      1.182763  2 N  py                24     -1.141202  3 C  px         
    25      1.132247  3 C  py                 9     -0.655990  2 N  px         
     2     -0.606653  1 H  s                  6      0.367111  2 N  py         
    20     -0.328311  3 C  px                26     -0.276191  3 C  pz         
 
 Vector   18  Occ=0.000000D+00  E= 4.808332D-01
              MO Center=  5.7D-01, -1.7D-01,  1.2D-01, r^2= 2.1D+00
   Bfn.  Coefficient  Atom+Function         Bfn.  Coefficient  Atom+Function  
  ----- ------------  ---------------      ----- ------------  ---------------
    25      1.428264  3 C  py                21     -0.890116  3 C  py         
    40      0.770340  5 F  s                 23     -0.607084  3 C  s          
    24      0.467448  3 C  px                19      0.273253  3 C  s          
     8     -0.258648  2 N  s                 38     -0.239307  5 F  py         
    42      0.183671  5 F  py                20     -0.179785  3 C  px         
 
 Vector   19  Occ=0.000000D+00  E= 4.887933D-01
              MO Center=  7.2D-01,  1.1D-02,  1.9D-01, r^2= 1.9D+00
   Bfn.  Coefficient  Atom+Function         Bfn.  Coefficient  Atom+Function  
  ----- ------------  ---------------      ----- ------------  ---------------
    24      1.112541  3 C  px                26      0.933749  3 C  pz         
    22     -0.775628  3 C  pz                 8      0.638561  2 N  s          
    20     -0.584495  3 C  px                23     -0.431107  3 C  s          
    40      0.405262  5 F  s                 10     -0.300600  2 N  py         
    25     -0.264821  3 C  py                42      0.162835  5 F  py         
 
 Vector   20  Occ=0.000000D+00  E= 5.432473D-01
              MO Center=  3.0D-02,  1.6D-01,  6.2D-01, r^2= 1.7D+00
   Bfn.  Coefficient  Atom+Function         Bfn.  Coefficient  Atom+Function  
  ----- ------------  ---------------      ----- ------------  ---------------
    24      1.502782  3 C  px                23     -1.106014  3 C  s          
    26     -0.831775  3 C  pz                 8      0.728909  2 N  s          
    19      0.724826  3 C  s                 25     -0.637859  3 C  py         
    34     -0.608497  4 H  s                 22      0.547819  3 C  pz         
    20     -0.534009  3 C  px                21      0.309276  3 C  py         
 
 Vector   21  Occ=0.000000D+00  E= 6.347591D-01
              MO Center=  5.1D-01,  4.5D-01, -3.8D-01, r^2= 2.0D+00
   Bfn.  Coefficient  Atom+Function         Bfn.  Coefficient  Atom+Function  
  ----- ------------  ---------------      ----- ------------  ---------------
    23      1.292370  3 C  s                 33     -0.688963  4 H  s          
    19     -0.584618  3 C  s                 24      0.492136  3 C  px         
     7      0.478464  2 N  pz                11     -0.443165  2 N  pz         
    26     -0.411594  3 C  pz                 4     -0.302642  2 N  s          
     5     -0.240463  2 N  px                34     -0.213211  4 H  s          
 
 Vector   22  Occ=0.000000D+00  E= 6.761829D-01
              MO Center= -5.0D-01,  1.5D+00, -2.0D-01, r^2= 1.5D+00
   Bfn.  Coefficient  Atom+Function         Bfn.  Coefficient  Atom+Function  
  ----- ------------  ---------------      ----- ------------  ---------------
    10      0.965572  2 N  py                 9     -0.740213  2 N  px         
    23      0.584572  3 C  s                  7      0.518150  2 N  pz         
     1     -0.477827  1 H  s                  6     -0.477752  2 N  py         
     5      0.434333  2 N  px                11     -0.414038  2 N  pz         
    25      0.299060  3 C  py                28     -0.191579  3 C  dxy        
 
 Vector   23  Occ=0.000000D+00  E= 7.252799D-01
              MO Center= -3.1D-01,  1.1D+00, -1.0D-01, r^2= 1.8D+00
   Bfn.  Coefficient  Atom+Function         Bfn.  Coefficient  Atom+Function  
  ----- ------------  ---------------      ----- ------------  ---------------
     9      0.921244  2 N  px                10      0.881959  2 N  py         
    24     -0.870302  3 C  px                 5     -0.739352  2 N  px         
     6     -0.547539  2 N  py                40     -0.442255  5 F  s          
    34      0.380442  4 H  s                 25     -0.323931  3 C  py         
     8     -0.319039  2 N  s                 26      0.170352  3 C  pz         
 
 Vector   24  Occ=0.000000D+00  E= 8.053779D-01
              MO Center=  1.3D+00,  2.5D-02, -4.3D-01, r^2= 1.8D+00
   Bfn.  Coefficient  Atom+Function         Bfn.  Coefficient  Atom+Function  
  ----- ------------  ---------------      ----- ------------  ---------------
    23      2.250427  3 C  s                 34     -2.197206  4 H  s          
    19     -1.079782  3 C  s                 24      1.034659  3 C  px         
    33      0.818539  4 H  s                 26     -0.712134  3 C  pz         
    20     -0.545767  3 C  px                22      0.334616  3 C  pz         
    29     -0.189170  3 C  dxz                9      0.144879  2 N  px         
 
 Vector   25  Occ=0.000000D+00  E= 8.353788D-01
              MO Center= -2.1D-01,  1.0D+00,  2.4D-01, r^2= 2.5D+00
   Bfn.  Coefficient  Atom+Function         Bfn.  Coefficient  Atom+Function  
  ----- ------------  ---------------      ----- ------------  ---------------
     1      0.983736  1 H  s                  2     -0.792575  1 H  s          
    26      0.736364  3 C  pz                11     -0.662540  2 N  pz         
    23     -0.560160  3 C  s                 24     -0.555267  3 C  px         
    40     -0.474954  5 F  s                 34      0.467166  4 H  s          
     8      0.318094  2 N  s                 19      0.304663  3 C  s          
 
 Vector   26  Occ=0.000000D+00  E= 8.943886D-01
              MO Center= -2.5D-01,  1.1D+00,  1.2D-01, r^2= 2.6D+00
   Bfn.  Coefficient  Atom+Function         Bfn.  Coefficient  Atom+Function  
  ----- ------------  ---------------      ----- ------------  ---------------
    23      2.359500  3 C  s                  2     -1.585097  1 H  s          
    10      1.374688  2 N  py                11      1.322704  2 N  pz         
     9     -0.907470  2 N  px                25      0.720652  3 C  py         
     7     -0.699016  2 N  pz                19     -0.681166  3 C  s          
    26     -0.617373  3 C  pz                 6     -0.488457  2 N  py         
 
 Vector   27  Occ=0.000000D+00  E= 1.054116D+00
              MO Center= -4.2D-01, -1.2D+00,  3.6D-02, r^2= 1.8D+00
   Bfn.  Coefficient  Atom+Function         Bfn.  Coefficient  Atom+Function  
  ----- ------------  ---------------      ----- ------------  ---------------
    40      2.288511  5 F  s                 36     -1.102156  5 F  s          
     8     -1.012971  2 N  s                 42     -0.657509  5 F  py         
    49     -0.520852  5 F  dzz               38      0.508611  5 F  py         
    44     -0.509649  5 F  dxx               47     -0.478877  5 F  dyy        
    25      0.453400  3 C  py                11     -0.435318  2 N  pz         
 
 Vector   28  Occ=0.000000D+00  E= 1.077382D+00
              MO Center=  5.3D-02,  6.4D-01,  7.5D-02, r^2= 2.2D+00
   Bfn.  Coefficient  Atom+Function         Bfn.  Coefficient  Atom+Function  
  ----- ------------  ---------------      ----- ------------  ---------------
     8      4.479092  2 N  s                 23     -3.243378  3 C  s          
     4     -1.418785  2 N  s                 40      1.234106  5 F  s          
    25     -1.195627  3 C  py                10     -1.165526  2 N  py         
    24      1.040626  3 C  px                 9      0.930817  2 N  px         
    19      0.629513  3 C  s                 11      0.583888  2 N  pz         
 
 Vector   29  Occ=0.000000D+00  E= 1.161928D+00
              MO Center= -1.4D-01, -6.0D-01, -2.8D-02, r^2= 1.7D+00
   Bfn.  Coefficient  Atom+Function         Bfn.  Coefficient  Atom+Function  
  ----- ------------  ---------------      ----- ------------  ---------------
    43      0.717825  5 F  pz                39     -0.581866  5 F  pz         
    41      0.562620  5 F  px                37     -0.496816  5 F  px         
    26     -0.416148  3 C  pz                23      0.406386  3 C  s          
    42     -0.366170  5 F  py                34     -0.304352  4 H  s          
     8      0.292257  2 N  s                 29     -0.291319  3 C  dxz        
 
 Vector   30  Occ=0.000000D+00  E= 1.209097D+00
              MO Center= -1.4D-01, -5.0D-01, -3.1D-02, r^2= 2.0D+00
   Bfn.  Coefficient  Atom+Function         Bfn.  Coefficient  Atom+Function  
  ----- ------------  ---------------      ----- ------------  ---------------
    23      0.890830  3 C  s                 43      0.746379  5 F  pz         
    26     -0.696914  3 C  pz                39     -0.557703  5 F  pz         
    41     -0.510913  5 F  px                34     -0.484573  4 H  s          
    42      0.483241  5 F  py                24      0.446706  3 C  px         
    31     -0.418489  3 C  dyz               37      0.390155  5 F  px         
 
 Vector   31  Occ=0.000000D+00  E= 1.365652D+00
              MO Center= -4.1D-02, -3.4D-01,  8.0D-04, r^2= 1.8D+00
   Bfn.  Coefficient  Atom+Function         Bfn.  Coefficient  Atom+Function  
  ----- ------------  ---------------      ----- ------------  ---------------
    31      0.868658  3 C  dyz               41     -0.452852  5 F  px         
    14      0.438250  2 N  dxz               48     -0.439356  5 F  dyz        
    43      0.412259  5 F  pz                40     -0.383822  5 F  s          
    46     -0.378246  5 F  dxz               23      0.311202  3 C  s          
    45      0.269922  5 F  dxy               44      0.267497  5 F  dxx        
 
 Vector   32  Occ=0.000000D+00  E= 1.374498D+00
              MO Center=  2.3D-02, -4.3D-01,  1.9D-02, r^2= 1.8D+00
   Bfn.  Coefficient  Atom+Function         Bfn.  Coefficient  Atom+Function  
  ----- ------------  ---------------      ----- ------------  ---------------
     8      0.871136  2 N  s                 29     -0.534821  3 C  dxz        
    25     -0.521450  3 C  py                41     -0.463819  5 F  px         
    48      0.426613  5 F  dyz               40     -0.399596  5 F  s          
    27     -0.391366  3 C  dxx               31     -0.388872  3 C  dyz        
    43     -0.379388  5 F  pz                23     -0.368611  3 C  s          
 
 Vector   33  Occ=0.000000D+00  E= 1.584553D+00
              MO Center=  5.3D-02, -3.5D-01,  7.8D-02, r^2= 1.8D+00
   Bfn.  Coefficient  Atom+Function         Bfn.  Coefficient  Atom+Function  
  ----- ------------  ---------------      ----- ------------  ---------------
    40      2.753355  5 F  s                 36     -1.230720  5 F  s          
     8     -1.020074  2 N  s                 25      0.939159  3 C  py         
    42      0.671828  5 F  py                47     -0.660572  5 F  dyy        
    14      0.553154  2 N  dxz               41      0.550665  5 F  px         
    45     -0.534630  5 F  dxy               32     -0.429983  3 C  dzz        
 
 Vector   34  Occ=0.000000D+00  E= 1.626407D+00
              MO Center= -1.0D-01,  8.2D-01, -8.5D-02, r^2= 1.3D+00
   Bfn.  Coefficient  Atom+Function         Bfn.  Coefficient  Atom+Function  
  ----- ------------  ---------------      ----- ------------  ---------------
    14      1.067848  2 N  dxz               16      0.933962  2 N  dyz        
    23     -0.765965  3 C  s                  8      0.492129  2 N  s          
    29      0.383705  3 C  dxz               33      0.366717  4 H  s          
    46      0.344521  5 F  dxz               26      0.288977  3 C  pz         
    24     -0.276377  3 C  px                34      0.273211  4 H  s          
 
 Vector   35  Occ=0.000000D+00  E= 1.724571D+00
              MO Center= -8.5D-02, -6.5D-01,  3.4D-02, r^2= 1.4D+00
   Bfn.  Coefficient  Atom+Function         Bfn.  Coefficient  Atom+Function  
  ----- ------------  ---------------      ----- ------------  ---------------
    46      0.910865  5 F  dxz               48     -0.667436  5 F  dyz        
    28     -0.523418  3 C  dxy               25      0.445477  3 C  py         
    44      0.439426  5 F  dxx               49     -0.404001  5 F  dzz        
    24     -0.349686  3 C  px                14     -0.318848  2 N  dxz        
    29      0.310460  3 C  dxz               45     -0.257947  5 F  dxy        
 
 Vector   36  Occ=0.000000D+00  E= 1.746590D+00
              MO Center= -1.9D-01, -5.7D-01, -1.1D-01, r^2= 1.5D+00
   Bfn.  Coefficient  Atom+Function         Bfn.  Coefficient  Atom+Function  
  ----- ------------  ---------------      ----- ------------  ---------------
    40      1.468501  5 F  s                 23     -1.302384  3 C  s          
    48     -0.812873  5 F  dyz               36     -0.677161  5 F  s          
    44     -0.640529  5 F  dxx               46      0.489763  5 F  dxz        
    16     -0.453753  2 N  dyz               42      0.438297  5 F  py         
     8      0.408677  2 N  s                 19      0.365333  3 C  s          
 
 Vector   37  Occ=0.000000D+00  E= 1.819852D+00
              MO Center=  3.2D-02, -1.0D-01, -1.4D-01, r^2= 2.0D+00
   Bfn.  Coefficient  Atom+Function         Bfn.  Coefficient  Atom+Function  
  ----- ------------  ---------------      ----- ------------  ---------------
    23      1.578016  3 C  s                 40     -1.325582  5 F  s          
    46      0.893109  5 F  dxz               26     -0.662967  3 C  pz         
    14      0.657775  2 N  dxz               36      0.576394  5 F  s          
    33     -0.550976  4 H  s                 19     -0.410219  3 C  s          
    12     -0.405891  2 N  dxx               16     -0.403535  2 N  dyz        
 
 Vector   38  Occ=0.000000D+00  E= 1.874138D+00
              MO Center= -1.3D-01, -2.1D-01, -3.5D-02, r^2= 1.8D+00
   Bfn.  Coefficient  Atom+Function         Bfn.  Coefficient  Atom+Function  
  ----- ------------  ---------------      ----- ------------  ---------------
    40      1.713989  5 F  s                 23     -1.536658  3 C  s          
     8      0.861636  2 N  s                 47     -0.803680  5 F  dyy        
    24      0.673291  3 C  px                10     -0.592847  2 N  py         
    28     -0.527531  3 C  dxy               13      0.497133  2 N  dxy        
    36     -0.495989  5 F  s                 15      0.424533  2 N  dyy        
 
 Vector   39  Occ=0.000000D+00  E= 1.945867D+00
              MO Center=  1.4D-01, -1.3D-01,  4.9D-02, r^2= 1.5D+00
   Bfn.  Coefficient  Atom+Function         Bfn.  Coefficient  Atom+Function  
  ----- ------------  ---------------      ----- ------------  ---------------
    23      1.294293  3 C  s                 40     -1.297960  5 F  s          
    24     -0.924376  3 C  px                45      0.867384  5 F  dxy        
     8     -0.825825  2 N  s                 32     -0.785171  3 C  dzz        
    30      0.483326  3 C  dyy               19     -0.462504  3 C  s          
    36      0.394647  5 F  s                 14     -0.328633  2 N  dxz        
 
 Vector   40  Occ=0.000000D+00  E= 2.005534D+00
              MO Center=  1.0D-01,  3.0D-01,  1.9D-02, r^2= 1.6D+00
   Bfn.  Coefficient  Atom+Function         Bfn.  Coefficient  Atom+Function  
  ----- ------------  ---------------      ----- ------------  ---------------
     8      1.261317  2 N  s                 13     -1.050376  2 N  dxy        
    28     -0.938880  3 C  dxy               23     -0.621434  3 C  s          
     4     -0.599372  2 N  s                  9      0.413130  2 N  px         
    10     -0.368411  2 N  py                29      0.362234  3 C  dxz        
    44     -0.334854  5 F  dxx               49      0.330944  5 F  dzz        
 
 Vector   41  Occ=0.000000D+00  E= 2.135468D+00
              MO Center=  8.0D-02,  5.1D-01,  5.8D-02, r^2= 1.6D+00
   Bfn.  Coefficient  Atom+Function         Bfn.  Coefficient  Atom+Function  
  ----- ------------  ---------------      ----- ------------  ---------------
    29      0.998945  3 C  dxz                8      0.988820  2 N  s          
     1     -0.711963  1 H  s                 17      0.709917  2 N  dzz        
    28      0.646506  3 C  dxy               11      0.610997  2 N  pz         
    23     -0.598556  3 C  s                 12     -0.544411  2 N  dxx        
    31     -0.437213  3 C  dyz               33      0.392984  4 H  s          
 
 Vector   42  Occ=0.000000D+00  E= 2.293451D+00
              MO Center= -1.2D-02,  7.1D-01, -1.4D-02, r^2= 1.5D+00
   Bfn.  Coefficient  Atom+Function         Bfn.  Coefficient  Atom+Function  
  ----- ------------  ---------------      ----- ------------  ---------------
    16      1.360816  2 N  dyz               31      0.991333  3 C  dyz        
     8      0.916346  2 N  s                 14     -0.708150  2 N  dxz        
    29     -0.707690  3 C  dxz                1     -0.665472  1 H  s          
    23     -0.628752  3 C  s                 13     -0.525869  2 N  dxy        
    46      0.408937  5 F  dxz               24      0.345825  3 C  px         
 
 Vector   43  Occ=0.000000D+00  E= 2.321881D+00
              MO Center=  1.3D-01, -4.0D-01,  3.3D-02, r^2= 1.4D+00
   Bfn.  Coefficient  Atom+Function         Bfn.  Coefficient  Atom+Function  
  ----- ------------  ---------------      ----- ------------  ---------------
    48      1.240824  5 F  dyz               31      1.043899  3 C  dyz        
    29      1.030662  3 C  dxz               46      0.708394  5 F  dxz        
     8     -0.525055  2 N  s                 43      0.383916  5 F  pz         
    23      0.359568  3 C  s                 28     -0.305126  3 C  dxy        
    16     -0.271661  2 N  dyz               33      0.239066  4 H  s          
 
 Vector   44  Occ=0.000000D+00  E= 2.445194D+00
              MO Center=  3.8D-02,  3.2D-01, -2.9D-03, r^2= 1.7D+00
   Bfn.  Coefficient  Atom+Function         Bfn.  Coefficient  Atom+Function  
  ----- ------------  ---------------      ----- ------------  ---------------
     8      1.744234  2 N  s                 23     -1.618886  3 C  s          
    10     -0.991875  2 N  py                24      0.995821  3 C  px         
    40      0.977669  5 F  s                 27     -0.775432  3 C  dxx        
    15      0.735376  2 N  dyy               13     -0.576874  2 N  dxy        
    28      0.564556  3 C  dxy               12     -0.510747  2 N  dxx        
 
 Vector   45  Occ=0.000000D+00  E= 2.636897D+00
              MO Center=  5.8D-02,  4.2D-01, -1.2D-02, r^2= 1.8D+00
   Bfn.  Coefficient  Atom+Function         Bfn.  Coefficient  Atom+Function  
  ----- ------------  ---------------      ----- ------------  ---------------
     8      1.672860  2 N  s                 23     -1.558904  3 C  s          
    13     -1.415329  2 N  dxy               28      1.098849  3 C  dxy        
    10     -0.932392  2 N  py                30     -0.762642  3 C  dyy        
     9      0.711452  2 N  px                25     -0.636530  3 C  py         
    17     -0.514902  2 N  dzz               21     -0.469030  3 C  py         
 
 Vector   46  Occ=0.000000D+00  E= 2.885830D+00
              MO Center=  4.9D-02, -6.7D-01,  2.3D-02, r^2= 1.2D+00
   Bfn.  Coefficient  Atom+Function         Bfn.  Coefficient  Atom+Function  
  ----- ------------  ---------------      ----- ------------  ---------------
    40      2.196651  5 F  s                 45      1.547077  5 F  dxy        
    28     -1.319254  3 C  dxy               23     -1.289538  3 C  s          
    42      1.214193  5 F  py                36     -1.079600  5 F  s          
    21      0.831474  3 C  py                41      0.814290  5 F  px         
    19     -0.732067  3 C  s                 47      0.640692  5 F  dyy        
 
 Vector   47  Occ=0.000000D+00  E= 3.583458D+00
              MO Center= -2.6D-01,  1.1D+00, -9.6D-02, r^2= 1.0D+00
   Bfn.  Coefficient  Atom+Function         Bfn.  Coefficient  Atom+Function  
  ----- ------------  ---------------      ----- ------------  ---------------
     8      3.361909  2 N  s                 12     -1.494125  2 N  dxx        
    17     -1.480472  2 N  dzz               15     -1.465233  2 N  dyy        
    23     -1.097560  3 C  s                  4      1.088186  2 N  s          
    40      0.722618  5 F  s                  2     -0.598398  1 H  s          
    19      0.592916  3 C  s                  3     -0.459573  2 N  s          
 
 Vector   48  Occ=0.000000D+00  E= 3.992652D+00
              MO Center= -1.7D-01, -1.0D+00, -1.4D-02, r^2= 1.6D+00
   Bfn.  Coefficient  Atom+Function         Bfn.  Coefficient  Atom+Function  
  ----- ------------  ---------------      ----- ------------  ---------------
    40      8.849954  5 F  s                 49     -2.837377  5 F  dzz        
    44     -2.677566  5 F  dxx               47     -2.408162  5 F  dyy        
    36     -2.116726  5 F  s                 23     -1.958215  3 C  s          
    42      1.113124  5 F  py                25      0.813707  3 C  py         
    24      0.802429  3 C  px                41      0.693544  5 F  px         
 
 Vector   49  Occ=0.000000D+00  E= 4.114737D+00
              MO Center=  5.3D-01,  6.5D-02,  9.2D-02, r^2= 9.4D-01
   Bfn.  Coefficient  Atom+Function         Bfn.  Coefficient  Atom+Function  
  ----- ------------  ---------------      ----- ------------  ---------------
    19      2.906240  3 C  s                 30     -2.138913  3 C  dyy        
    27     -1.897375  3 C  dxx               32     -1.711828  3 C  dzz        
    23      1.519884  3 C  s                  8     -0.752356  2 N  s          
    34     -0.548329  4 H  s                 45      0.515856  5 F  dxy        
    18     -0.453268  3 C  s                 15      0.431215  2 N  dyy        
 

 center of mass
 --------------
 x =  -0.04818273 y =  -0.10924196 z =  -0.01218556

 moments of inertia (a.u.)
 ------------------
         166.675039802646          -0.000000000001           0.000000000000
          -0.000000000001          31.112195950517          -0.000000000003
           0.000000000000          -0.000000000003         189.528394664525
 
     Multipole analysis of the density
     ---------------------------------
 
     L   x y z        total         alpha         beta         nuclear
     -   - - -        -----         -----         ----         -------
     0   0 0 0     -0.000000    -12.000000    -12.000000     24.000000
 
     1   1 0 0      0.626502      0.313251      0.313251      0.000000
     1   0 1 0     -0.088773     -0.044386     -0.044386      0.000000
     1   0 0 1      0.421609      0.210805      0.210805     -0.000000
 
     2   2 0 0    -11.680734    -14.548069    -14.548069     17.415404
     2   1 1 0     -0.625233      0.572504      0.572504     -1.770242
     2   1 0 1     -0.750791      0.576663      0.576663     -1.904117
     2   0 2 0    -13.289025    -48.721782    -48.721782     84.154538
     2   0 1 1      1.642760     -0.340499     -0.340499      2.323759
     2   0 0 2    -11.389744     -7.502055     -7.502055      3.614367
 

 Task  times  cpu:       22.0s     wall:       24.1s
 
 
                                NWChem Input Module
                                -------------------
 
 
 
                                 NWChem DFT Module
                                 -----------------
 
 
                                    Test SCAN-L
 
 


 Summary of "ao basis" -> "ao basis" (cartesian)
 ------------------------------------------------------------------------------
       Tag                 Description            Shells   Functions and Types
 ---------------- ------------------------------  ------  ---------------------
 C                           6-31g*                  6       15   3s2p1d
 N                           6-31g*                  6       15   3s2p1d
 F                           6-31g*                  6       15   3s2p1d
 H                           6-31g                   2        2   2s


  Caching 1-el integrals 
 
            General Information
            -------------------
          SCF calculation type: DFT
          Wavefunction type:  spin polarized.
          No. of atoms     :     5
          No. of electrons :    24
           Alpha electrons :    12
            Beta electrons :    12
          Charge           :     0
          Spin multiplicity:     1
          Use of symmetry is: off; symmetry adaption is: off
          Maximum number of iterations:  30
          AO basis - number of functions:    49
                     number of shells:    22
          Convergence on energy requested:  1.00D-06
          Convergence on density requested:  1.00D-05
          Convergence on gradient requested:  5.00D-04
 
              XC Information
              --------------
                       SCAN-L Method XC Functional
                SCAN-L metaGGA Exchange Functional  1.000          
                      SCAN-L Correlation Potential  1.000          
 
             Grid Information
             ----------------
          Grid used for XC integration:  xfine     
          Radial quadrature: Mura-Knowles        
          Angular quadrature: Lebedev. 
          Tag              B.-S. Rad. Rad. Pts. Rad. Cut. Ang. Pts.
          ---              ---------- --------- --------- ---------
          H                   0.35      100           8.0      1202
          N                   0.65      100           7.0      1454
          C                   0.70      100           7.0      1454
          F                   0.50      100           8.0      1454
          Grid pruning is: on 
          Number of quadrature shells:   500
          Spatial weights used:  Erf1
 
          Convergence Information
          -----------------------
          Convergence aids based upon iterative change in 
          total energy or number of iterations. 
          Levelshifting, if invoked, occurs when the 
          HOMO/LUMO gap drops below (HL_TOL):  1.00D-02
          DIIS, if invoked, will attempt to extrapolate 
          using up to (NFOCK): 10 stored Fock matrices.

                    Damping( 0%)  Levelshifting(0.5)       DIIS
                  --------------- ------------------- ---------------
          dE  on:    start            ASAP                start   
          dE off:    2 iters         30 iters            30 iters 

 
      Screening Tolerance Information
      -------------------------------
          Density screening/tol_rho:  1.00D-10
          AO Gaussian exp screening on grid/accAOfunc:  14
          CD Gaussian exp screening on grid/accCDfunc:  20
          XC Gaussian exp screening on grid/accXCfunc:  20
          Schwarz screening/accCoul:  1.00D-08

 
      Superposition of Atomic Density Guess
      -------------------------------------
 
 Sum of atomic energies:        -192.32278949
 
      Non-variational initial energy
      ------------------------------

 Total energy =    -193.031125
 1-e energy   =    -393.731922
 2-e energy   =     135.564660
 HOMO         =      -0.274590
 LUMO         =      -0.074195
 
   Time after variat. SCF:     26.0
   Time prior to 1st pass:     26.0

 Grid_pts file          = ./scanl.gridpts.0
 Record size in doubles =  12289        No. of grid_pts per rec  =   3070
 Max. records in memory =     88        Max. recs in file   = 337750284


           Memory utilization after 1st SCF pass: 
           Heap Space remaining (MW):      193.77           193771488
          Stack Space remaining (MW):      324.65           324650924

   convergence    iter        energy       DeltaE   RMS-Dens  Diis-err    time
 ---------------- ----- ----------------- --------- --------- ---------  ------
 d= 0,ls=0.0,diis     1   -193.6194168319 -2.59D+02  3.09D-02  2.94D-01    29.3
                                                     3.09D-02  2.94D-01
 d= 0,ls=0.0,diis     2   -192.2943644556  1.33D+00  2.87D-02  2.59D+00    33.1
                                                     2.87D-02  2.59D+00
 d= 0,ls=0.0,diis     3   -193.7328954445 -1.44D+00  7.84D-03  1.42D-01    36.8
                                                     7.84D-03  1.42D-01
 d= 0,ls=0.0,diis     4   -193.7395329880 -6.64D-03  4.66D-03  1.14D-01    40.1
                                                     4.66D-03  1.14D-01
 d= 0,ls=0.0,diis     5   -193.7900743642 -5.05D-02  9.38D-04  2.65D-03    43.4
                                                     9.38D-04  2.65D-03
  Resetting Diis
 d= 0,ls=0.0,diis     6   -193.7914051895 -1.33D-03  2.15D-04  2.10D-04    47.6
                                                     2.15D-04  2.10D-04
 d= 0,ls=0.0,diis     7   -193.7915275986 -1.22D-04  5.20D-05  2.74D-06    51.8
                                                     5.20D-05  2.74D-06
 d= 0,ls=0.0,diis     8   -193.7915248368  2.76D-06  6.00D-05  8.83D-06    55.3
                                                     6.00D-05  8.83D-06
 d= 0,ls=0.0,diis     9   -193.7915269897 -2.15D-06  3.18D-05  4.92D-06    59.3
                                                     3.18D-05  4.92D-06
 d= 0,ls=0.0,diis    10   -193.7915290728 -2.08D-06  3.09D-06  3.04D-08    65.4
                                                     3.09D-06  3.04D-08
 d= 0,ls=0.0,diis    11   -193.7915291032 -3.04D-08  9.13D-07  7.24D-09    69.7
                                                     9.13D-07  7.24D-09


         Total DFT energy =     -193.791529103233
      One electron energy =     -395.249344755907
           Coulomb energy =      159.758507749568
    Exchange-Corr. energy =      -23.436828512802
 Nuclear repulsion energy =       65.136136415909

 Numeric. integr. density =       24.000000006469

     Total iterative time =     43.7s


 
                    DFT Final Alpha Molecular Orbital Analysis
                    ------------------------------------------
 
 Vector    1  Occ=1.000000D+00  E=-2.440232D+01
              MO Center= -2.4D-01, -1.1D+00, -1.8D-02, r^2= 1.2D-02
   Bfn.  Coefficient  Atom+Function         Bfn.  Coefficient  Atom+Function  
  ----- ------------  ---------------      ----- ------------  ---------------
    35      0.993396  5 F  s          
 
 Vector    2  Occ=1.000000D+00  E=-1.407590D+01
              MO Center= -2.7D-01,  1.2D+00, -1.0D-01, r^2= 2.0D-02
   Bfn.  Coefficient  Atom+Function         Bfn.  Coefficient  Atom+Function  
  ----- ------------  ---------------      ----- ------------  ---------------
     3      0.993816  2 N  s                  4      0.030367  2 N  s          
 
 Vector    3  Occ=1.000000D+00  E=-1.013437D+01
              MO Center=  5.2D-01,  2.7D-02,  1.0D-01, r^2= 2.8D-02
   Bfn.  Coefficient  Atom+Function         Bfn.  Coefficient  Atom+Function  
  ----- ------------  ---------------      ----- ------------  ---------------
    18      0.994656  3 C  s                 19      0.035164  3 C  s          
 
 Vector    4  Occ=1.000000D+00  E=-1.132356D+00
              MO Center= -1.4D-01, -9.6D-01, -3.7D-03, r^2= 4.2D-01
   Bfn.  Coefficient  Atom+Function         Bfn.  Coefficient  Atom+Function  
  ----- ------------  ---------------      ----- ------------  ---------------
    36      0.509063  5 F  s                 40      0.442026  5 F  s          
    35     -0.220450  5 F  s                 19      0.119414  3 C  s          
    21     -0.083421  3 C  py                38      0.077386  5 F  py         
    18     -0.061608  3 C  s                 37      0.056273  5 F  px         
    20     -0.055822  3 C  px                42      0.035960  5 F  py         
 
 Vector    5  Occ=1.000000D+00  E=-7.804935D-01
              MO Center= -2.3D-02,  8.0D-01,  6.4D-02, r^2= 9.8D-01
   Bfn.  Coefficient  Atom+Function         Bfn.  Coefficient  Atom+Function  
  ----- ------------  ---------------      ----- ------------  ---------------
     4      0.374738  2 N  s                  8      0.350055  2 N  s          
    19      0.242857  3 C  s                  3     -0.174232  2 N  s          
    40     -0.135888  5 F  s                 21      0.134950  3 C  py         
    23      0.127834  3 C  s                  1      0.121635  1 H  s          
    18     -0.112364  3 C  s                 36     -0.103160  5 F  s          
 
 Vector    6  Occ=1.000000D+00  E=-5.939787D-01
              MO Center=  3.0D-01,  1.6D-02, -2.0D-02, r^2= 1.9D+00
   Bfn.  Coefficient  Atom+Function         Bfn.  Coefficient  Atom+Function  
  ----- ------------  ---------------      ----- ------------  ---------------
    19      0.311592  3 C  s                 23      0.272153  3 C  s          
     8     -0.233310  2 N  s                 40     -0.230831  5 F  s          
    37      0.188895  5 F  px                 4     -0.185021  2 N  s          
    38      0.183615  5 F  py                33      0.182544  4 H  s          
    18     -0.138399  3 C  s                  1     -0.133458  1 H  s          
 
 Vector    7  Occ=1.000000D+00  E=-4.753449D-01
              MO Center=  2.4D-01, -5.8D-01, -9.0D-02, r^2= 1.4D+00
   Bfn.  Coefficient  Atom+Function         Bfn.  Coefficient  Atom+Function  
  ----- ------------  ---------------      ----- ------------  ---------------
    38      0.420048  5 F  py                20     -0.309826  3 C  px         
    42      0.249067  5 F  py                40     -0.186664  5 F  s          
    21     -0.183801  3 C  py                33     -0.180936  4 H  s          
    39      0.155858  5 F  pz                37      0.149970  5 F  px         
    22      0.134517  3 C  pz                34     -0.120753  4 H  s          
 
 Vector    8  Occ=1.000000D+00  E=-4.403527D-01
              MO Center= -8.7D-02,  3.0D-01,  9.3D-02, r^2= 1.9D+00
   Bfn.  Coefficient  Atom+Function         Bfn.  Coefficient  Atom+Function  
  ----- ------------  ---------------      ----- ------------  ---------------
    37      0.304606  5 F  px                 6      0.287864  2 N  py         
    21     -0.230685  3 C  py                20      0.216993  3 C  px         
     1      0.195781  1 H  s                 41      0.188918  5 F  px         
     7      0.171905  2 N  pz                 5     -0.133402  2 N  px         
    39      0.131779  5 F  pz                 2      0.123288  1 H  s          
 
 Vector    9  Occ=1.000000D+00  E=-4.024160D-01
              MO Center= -8.6D-02, -6.3D-01,  8.2D-02, r^2= 1.3D+00
   Bfn.  Coefficient  Atom+Function         Bfn.  Coefficient  Atom+Function  
  ----- ------------  ---------------      ----- ------------  ---------------
    39      0.515310  5 F  pz                43      0.341063  5 F  pz         
    22      0.220278  3 C  pz                26      0.154227  3 C  pz         
    38     -0.148790  5 F  py                37     -0.136495  5 F  px         
    21      0.135156  3 C  py                23      0.111487  3 C  s          
    19      0.106423  3 C  s                  5      0.100472  2 N  px         
 
 Vector   10  Occ=1.000000D+00  E=-3.324657D-01
              MO Center= -6.6D-02, -4.8D-01, -2.6D-02, r^2= 1.7D+00
   Bfn.  Coefficient  Atom+Function         Bfn.  Coefficient  Atom+Function  
  ----- ------------  ---------------      ----- ------------  ---------------
    37      0.479651  5 F  px                41      0.329252  5 F  px         
    38     -0.302780  5 F  py                42     -0.208316  5 F  py         
     8      0.198041  2 N  s                 20     -0.167419  3 C  px         
     7     -0.160371  2 N  pz                 6     -0.158691  2 N  py         
    34     -0.144457  4 H  s                 33     -0.137569  4 H  s          
 
 Vector   11  Occ=1.000000D+00  E=-2.902834D-01
              MO Center= -1.1D-01,  5.1D-01, -1.1D-01, r^2= 1.8D+00
   Bfn.  Coefficient  Atom+Function         Bfn.  Coefficient  Atom+Function  
  ----- ------------  ---------------      ----- ------------  ---------------
     7      0.354631  2 N  pz                39     -0.317427  5 F  pz         
     8     -0.305423  2 N  s                 22      0.239064  3 C  pz         
    43     -0.232901  5 F  pz                11      0.231508  2 N  pz         
     4     -0.157126  2 N  s                 23      0.151463  3 C  s          
     5      0.136085  2 N  px                 6     -0.131764  2 N  py         
 
 Vector   12  Occ=1.000000D+00  E=-1.766785D-01
              MO Center= -1.9D-01,  9.7D-01, -8.0D-02, r^2= 1.2D+00
   Bfn.  Coefficient  Atom+Function         Bfn.  Coefficient  Atom+Function  
  ----- ------------  ---------------      ----- ------------  ---------------
     5      0.486441  2 N  px                 9      0.381978  2 N  px         
     6      0.323157  2 N  py                10      0.270173  2 N  py         
    38      0.187446  5 F  py                42      0.154155  5 F  py         
    40      0.143870  5 F  s                 25      0.132630  3 C  py         
    34     -0.116945  4 H  s                 21      0.073176  3 C  py         
 
 Vector   13  Occ=0.000000D+00  E=-1.481298D-01
              MO Center=  2.6D-01,  3.1D-01,  1.3D-01, r^2= 1.8D+00
   Bfn.  Coefficient  Atom+Function         Bfn.  Coefficient  Atom+Function  
  ----- ------------  ---------------      ----- ------------  ---------------
    22      0.488653  3 C  pz                23      0.359954  3 C  s          
    26      0.346412  3 C  pz                 7     -0.291421  2 N  pz         
     8      0.254548  2 N  s                 11     -0.251992  2 N  pz         
    39     -0.235742  5 F  pz                43     -0.195581  5 F  pz         
    34     -0.178376  4 H  s                  2     -0.143336  1 H  s          
 
 Vector   14  Occ=0.000000D+00  E= 8.828413D-02
              MO Center=  4.5D-01,  5.7D-01,  1.1D-01, r^2= 3.7D+00
   Bfn.  Coefficient  Atom+Function         Bfn.  Coefficient  Atom+Function  
  ----- ------------  ---------------      ----- ------------  ---------------
    23      1.274425  3 C  s                 34     -1.151730  4 H  s          
     2      1.048637  1 H  s                  8     -0.896838  2 N  s          
    40     -0.441691  5 F  s                 11     -0.369182  2 N  pz         
    26     -0.344071  3 C  pz                25     -0.244471  3 C  py         
    42     -0.231552  5 F  py                22     -0.211501  3 C  pz         
 
 Vector   15  Occ=0.000000D+00  E= 1.120668D-01
              MO Center=  3.7D-01,  9.0D-01,  3.1D-01, r^2= 3.8D+00
   Bfn.  Coefficient  Atom+Function         Bfn.  Coefficient  Atom+Function  
  ----- ------------  ---------------      ----- ------------  ---------------
    34      1.251388  4 H  s                  2      1.239079  1 H  s          
     8     -0.994513  2 N  s                 23     -0.699050  3 C  s          
    11     -0.619402  2 N  pz                24     -0.497165  3 C  px         
    26      0.460316  3 C  pz                25      0.365735  3 C  py         
     7     -0.261044  2 N  pz                40      0.195277  5 F  s          
 
 Vector   16  Occ=0.000000D+00  E= 1.231086D-01
              MO Center=  6.1D-01, -4.7D-02, -3.4D-02, r^2= 2.2D+00
   Bfn.  Coefficient  Atom+Function         Bfn.  Coefficient  Atom+Function  
  ----- ------------  ---------------      ----- ------------  ---------------
    34      1.040282  4 H  s                 25     -0.848499  3 C  py         
    40     -0.684882  5 F  s                 24     -0.679216  3 C  px         
    23     -0.481575  3 C  s                  8      0.475847  2 N  s          
     9      0.416672  2 N  px                20     -0.404628  3 C  px         
    21     -0.399268  3 C  py                42     -0.304228  5 F  py         
 
 Vector   17  Occ=0.000000D+00  E= 2.435929D-01
              MO Center=  2.1D-01,  4.1D-01,  7.2D-02, r^2= 2.2D+00
   Bfn.  Coefficient  Atom+Function         Bfn.  Coefficient  Atom+Function  
  ----- ------------  ---------------      ----- ------------  ---------------
    23      1.633609  3 C  s                  8     -1.432742  2 N  s          
    10      1.182763  2 N  py                24     -1.141203  3 C  px         
    25      1.132248  3 C  py                 9     -0.655990  2 N  px         
     2     -0.606652  1 H  s                  6      0.367111  2 N  py         
    20     -0.328311  3 C  px                26     -0.276191  3 C  pz         
 
 Vector   18  Occ=0.000000D+00  E= 4.808329D-01
              MO Center=  5.7D-01, -1.7D-01,  1.2D-01, r^2= 2.1D+00
   Bfn.  Coefficient  Atom+Function         Bfn.  Coefficient  Atom+Function  
  ----- ------------  ---------------      ----- ------------  ---------------
    25      1.428261  3 C  py                21     -0.890114  3 C  py         
    40      0.770345  5 F  s                 23     -0.607089  3 C  s          
    24      0.467459  3 C  px                19      0.273254  3 C  s          
     8     -0.258642  2 N  s                 38     -0.239307  5 F  py         
    42      0.183673  5 F  py                20     -0.179790  3 C  px         
 
 Vector   19  Occ=0.000000D+00  E= 4.887931D-01
              MO Center=  7.2D-01,  1.1D-02,  1.9D-01, r^2= 1.9D+00
   Bfn.  Coefficient  Atom+Function         Bfn.  Coefficient  Atom+Function  
  ----- ------------  ---------------      ----- ------------  ---------------
    24      1.112539  3 C  px                26      0.933749  3 C  pz         
    22     -0.775629  3 C  pz                 8      0.638563  2 N  s          
    20     -0.584495  3 C  px                23     -0.431105  3 C  s          
    40      0.405259  5 F  s                 10     -0.300600  2 N  py         
    25     -0.264830  3 C  py                42      0.162834  5 F  py         
 
 Vector   20  Occ=0.000000D+00  E= 5.432471D-01
              MO Center=  3.0D-02,  1.6D-01,  6.2D-01, r^2= 1.7D+00
   Bfn.  Coefficient  Atom+Function         Bfn.  Coefficient  Atom+Function  
  ----- ------------  ---------------      ----- ------------  ---------------
    24      1.502782  3 C  px                23     -1.106011  3 C  s          
    26     -0.831776  3 C  pz                 8      0.728909  2 N  s          
    19      0.724824  3 C  s                 25     -0.637861  3 C  py         
    34     -0.608498  4 H  s                 22      0.547819  3 C  pz         
    20     -0.534009  3 C  px                21      0.309277  3 C  py         
 
 Vector   21  Occ=0.000000D+00  E= 6.347590D-01
              MO Center=  5.1D-01,  4.5D-01, -3.8D-01, r^2= 2.0D+00
   Bfn.  Coefficient  Atom+Function         Bfn.  Coefficient  Atom+Function  
  ----- ------------  ---------------      ----- ------------  ---------------
    23      1.292371  3 C  s                 33     -0.688963  4 H  s          
    19     -0.584619  3 C  s                 24      0.492135  3 C  px         
     7      0.478464  2 N  pz                11     -0.443165  2 N  pz         
    26     -0.411593  3 C  pz                 4     -0.302642  2 N  s          
     5     -0.240463  2 N  px                34     -0.213211  4 H  s          
 
 Vector   22  Occ=0.000000D+00  E= 6.761828D-01
              MO Center= -5.0D-01,  1.5D+00, -2.0D-01, r^2= 1.5D+00
   Bfn.  Coefficient  Atom+Function         Bfn.  Coefficient  Atom+Function  
  ----- ------------  ---------------      ----- ------------  ---------------
    10      0.965572  2 N  py                 9     -0.740213  2 N  px         
    23      0.584574  3 C  s                  7      0.518151  2 N  pz         
     1     -0.477827  1 H  s                  6     -0.477752  2 N  py         
     5      0.434332  2 N  px                11     -0.414038  2 N  pz         
    25      0.299060  3 C  py                28     -0.191579  3 C  dxy        
 
 Vector   23  Occ=0.000000D+00  E= 7.252798D-01
              MO Center= -3.1D-01,  1.1D+00, -1.0D-01, r^2= 1.8D+00
   Bfn.  Coefficient  Atom+Function         Bfn.  Coefficient  Atom+Function  
  ----- ------------  ---------------      ----- ------------  ---------------
     9      0.921244  2 N  px                10      0.881959  2 N  py         
    24     -0.870302  3 C  px                 5     -0.739352  2 N  px         
     6     -0.547539  2 N  py                40     -0.442256  5 F  s          
    34      0.380445  4 H  s                 25     -0.323931  3 C  py         
     8     -0.319039  2 N  s                 26      0.170353  3 C  pz         
 
 Vector   24  Occ=0.000000D+00  E= 8.053773D-01
              MO Center=  1.3D+00,  2.5D-02, -4.3D-01, r^2= 1.8D+00
   Bfn.  Coefficient  Atom+Function         Bfn.  Coefficient  Atom+Function  
  ----- ------------  ---------------      ----- ------------  ---------------
    23      2.250434  3 C  s                 34     -2.197207  4 H  s          
    19     -1.079785  3 C  s                 24      1.034659  3 C  px         
    33      0.818538  4 H  s                 26     -0.712138  3 C  pz         
    20     -0.545767  3 C  px                22      0.334617  3 C  pz         
    29     -0.189170  3 C  dxz                9      0.144879  2 N  px         
 
 Vector   25  Occ=0.000000D+00  E= 8.353788D-01
              MO Center= -2.1D-01,  1.0D+00,  2.4D-01, r^2= 2.5D+00
   Bfn.  Coefficient  Atom+Function         Bfn.  Coefficient  Atom+Function  
  ----- ------------  ---------------      ----- ------------  ---------------
     1      0.983736  1 H  s                  2     -0.792575  1 H  s          
    26      0.736360  3 C  pz                11     -0.662539  2 N  pz         
    23     -0.560151  3 C  s                 24     -0.555261  3 C  px         
    40     -0.474951  5 F  s                 34      0.467156  4 H  s          
     8      0.318096  2 N  s                 19      0.304659  3 C  s          
 
 Vector   26  Occ=0.000000D+00  E= 8.943883D-01
              MO Center= -2.5D-01,  1.1D+00,  1.2D-01, r^2= 2.6D+00
   Bfn.  Coefficient  Atom+Function         Bfn.  Coefficient  Atom+Function  
  ----- ------------  ---------------      ----- ------------  ---------------
    23      2.359496  3 C  s                  2     -1.585096  1 H  s          
    10      1.374689  2 N  py                11      1.322704  2 N  pz         
     9     -0.907470  2 N  px                25      0.720652  3 C  py         
     7     -0.699016  2 N  pz                19     -0.681165  3 C  s          
    26     -0.617371  3 C  pz                 6     -0.488457  2 N  py         
 
 Vector   27  Occ=0.000000D+00  E= 1.054116D+00
              MO Center= -4.2D-01, -1.2D+00,  3.6D-02, r^2= 1.8D+00
   Bfn.  Coefficient  Atom+Function         Bfn.  Coefficient  Atom+Function  
  ----- ------------  ---------------      ----- ------------  ---------------
    40      2.288511  5 F  s                 36     -1.102156  5 F  s          
     8     -1.012981  2 N  s                 42     -0.657510  5 F  py         
    49     -0.520852  5 F  dzz               38      0.508611  5 F  py         
    44     -0.509650  5 F  dxx               47     -0.478877  5 F  dyy        
    25      0.453402  3 C  py                11     -0.435320  2 N  pz         
 
 Vector   28  Occ=0.000000D+00  E= 1.077381D+00
              MO Center=  5.3D-02,  6.4D-01,  7.5D-02, r^2= 2.2D+00
   Bfn.  Coefficient  Atom+Function         Bfn.  Coefficient  Atom+Function  
  ----- ------------  ---------------      ----- ------------  ---------------
     8      4.479090  2 N  s                 23     -3.243378  3 C  s          
     4     -1.418784  2 N  s                 40      1.234111  5 F  s          
    25     -1.195626  3 C  py                10     -1.165526  2 N  py         
    24      1.040626  3 C  px                 9      0.930817  2 N  px         
    19      0.629514  3 C  s                 11      0.583887  2 N  pz         
 
 Vector   29  Occ=0.000000D+00  E= 1.161928D+00
              MO Center= -1.4D-01, -6.0D-01, -2.8D-02, r^2= 1.7D+00
   Bfn.  Coefficient  Atom+Function         Bfn.  Coefficient  Atom+Function  
  ----- ------------  ---------------      ----- ------------  ---------------
    43      0.717825  5 F  pz                39     -0.581866  5 F  pz         
    41      0.562620  5 F  px                37     -0.496816  5 F  px         
    26     -0.416148  3 C  pz                23      0.406385  3 C  s          
    42     -0.366170  5 F  py                34     -0.304351  4 H  s          
     8      0.292256  2 N  s                 29     -0.291319  3 C  dxz        
 
 Vector   30  Occ=0.000000D+00  E= 1.209097D+00
              MO Center= -1.4D-01, -5.0D-01, -3.1D-02, r^2= 2.0D+00
   Bfn.  Coefficient  Atom+Function         Bfn.  Coefficient  Atom+Function  
  ----- ------------  ---------------      ----- ------------  ---------------
    23      0.890828  3 C  s                 43      0.746379  5 F  pz         
    26     -0.696913  3 C  pz                39     -0.557703  5 F  pz         
    41     -0.510913  5 F  px                34     -0.484572  4 H  s          
    42      0.483241  5 F  py                24      0.446706  3 C  px         
    31     -0.418488  3 C  dyz               37      0.390155  5 F  px         
 
 Vector   31  Occ=0.000000D+00  E= 1.365652D+00
              MO Center= -4.1D-02, -3.4D-01,  8.0D-04, r^2= 1.8D+00
   Bfn.  Coefficient  Atom+Function         Bfn.  Coefficient  Atom+Function  
  ----- ------------  ---------------      ----- ------------  ---------------
    31      0.868659  3 C  dyz               41     -0.452851  5 F  px         
    14      0.438250  2 N  dxz               48     -0.439356  5 F  dyz        
    43      0.412259  5 F  pz                40     -0.383821  5 F  s          
    46     -0.378246  5 F  dxz               23      0.311202  3 C  s          
    45      0.269922  5 F  dxy               44      0.267497  5 F  dxx        
 
 Vector   32  Occ=0.000000D+00  E= 1.374498D+00
              MO Center=  2.3D-02, -4.3D-01,  1.9D-02, r^2= 1.8D+00
   Bfn.  Coefficient  Atom+Function         Bfn.  Coefficient  Atom+Function  
  ----- ------------  ---------------      ----- ------------  ---------------
     8      0.871136  2 N  s                 29     -0.534820  3 C  dxz        
    25     -0.521450  3 C  py                41     -0.463819  5 F  px         
    48      0.426612  5 F  dyz               40     -0.399598  5 F  s          
    27     -0.391367  3 C  dxx               31     -0.388871  3 C  dyz        
    43     -0.379388  5 F  pz                23     -0.368610  3 C  s          
 
 Vector   33  Occ=0.000000D+00  E= 1.584552D+00
              MO Center=  5.3D-02, -3.5D-01,  7.8D-02, r^2= 1.8D+00
   Bfn.  Coefficient  Atom+Function         Bfn.  Coefficient  Atom+Function  
  ----- ------------  ---------------      ----- ------------  ---------------
    40      2.753358  5 F  s                 36     -1.230721  5 F  s          
     8     -1.020072  2 N  s                 25      0.939159  3 C  py         
    42      0.671829  5 F  py                47     -0.660573  5 F  dyy        
    14      0.553153  2 N  dxz               41      0.550665  5 F  px         
    45     -0.534630  5 F  dxy               32     -0.429983  3 C  dzz        
 
 Vector   34  Occ=0.000000D+00  E= 1.626407D+00
              MO Center= -1.0D-01,  8.2D-01, -8.5D-02, r^2= 1.3D+00
   Bfn.  Coefficient  Atom+Function         Bfn.  Coefficient  Atom+Function  
  ----- ------------  ---------------      ----- ------------  ---------------
    14      1.067848  2 N  dxz               16      0.933962  2 N  dyz        
    23     -0.765964  3 C  s                  8      0.492128  2 N  s          
    29      0.383705  3 C  dxz               33      0.366717  4 H  s          
    46      0.344521  5 F  dxz               26      0.288976  3 C  pz         
    24     -0.276377  3 C  px                34      0.273210  4 H  s          
 
 Vector   35  Occ=0.000000D+00  E= 1.724571D+00
              MO Center= -8.5D-02, -6.5D-01,  3.4D-02, r^2= 1.4D+00
   Bfn.  Coefficient  Atom+Function         Bfn.  Coefficient  Atom+Function  
  ----- ------------  ---------------      ----- ------------  ---------------
    46      0.910865  5 F  dxz               48     -0.667437  5 F  dyz        
    28     -0.523418  3 C  dxy               25      0.445477  3 C  py         
    44      0.439426  5 F  dxx               49     -0.404001  5 F  dzz        
    24     -0.349686  3 C  px                14     -0.318848  2 N  dxz        
    29      0.310460  3 C  dxz               45     -0.257946  5 F  dxy        
 
[...]
    beta     11     12     13     14     15     16     17     19     18     20
 overlap   0.909  0.982  0.985  0.992  0.970  0.966  0.995  0.738  0.967  0.754


   alpha     21     22     23     24     25     26     27     28     29     30
    beta     21     22     23     24     25     26     27     28     29     30
 overlap   0.892  0.941  0.847  0.994  0.989  0.987  0.719  0.720  0.995  0.995


   alpha     31     32     33     34     35     36     37     38     39     40
    beta     31     32     33     34     35     36     37     38     39     40
 overlap   0.996  0.995  0.912  0.909  0.957  0.939  0.966  0.978  0.983  0.960


   alpha     41     42     43     44     45     46     47     48     49
    beta     41     42     43     44     45     46     47     48     49
 overlap   0.971  0.995  0.994  0.994  0.997  0.999  1.000  1.000  1.000

     --------------------------
     Expectation value of S2:  
     --------------------------
      <S2> =      2.0059 (Exact =     2.0000)
 

 center of mass
 --------------
 x =  -0.04797195 y =  -0.10887320 z =  -0.01241350

 moments of inertia (a.u.)
 ------------------
         166.707711254389           0.005909895650          -0.000355382219
           0.005909895650          31.077545719611           0.040289748156
          -0.000355382219           0.040289748156         189.518250028210
 
     Multipole analysis of the density
     ---------------------------------
 
     L   x y z        total         alpha         beta         nuclear
     -   - - -        -----         -----         ----         -------
     0   0 0 0     -0.000000    -13.000000    -11.000000     24.000000
 
     1   1 0 0      0.310984     -0.038089      0.344657      0.004416
     1   0 1 0      0.411516     -0.860158      1.263746      0.007928
     1   0 0 1      0.382714      0.015065      0.372654     -0.005006
 
     2   2 0 0    -11.682963    -16.250864    -12.825628     17.393529
     2   1 1 0     -0.159812      1.196186      0.416818     -1.772816
     2   1 0 1     -1.276686     -0.095432      0.721336     -1.902590
     2   0 2 0    -12.392512    -52.088736    -44.467373     84.163597
     2   0 1 1      1.960696      0.102828     -0.446558      2.304425
     2   0 0 2    -12.303015     -9.096709     -6.823089      3.616783
 
 Line search: 
     step= 1.00 grad=-1.1D-06 hess= 4.5D-07 energy=   -193.778007 mode=accept  
 new step= 1.00                   predicted energy=   -193.778007
  no constraints, skipping     0.000000000000000     
  no constraints, skipping     0.000000000000000     
  no constraints, skipping     0.000000000000000     
  no constraints, skipping     0.000000000000000     

          --------
          Step   1
          --------
 
 
                         Geometry "geometry" -> "geometry"
                         ---------------------------------
 
 Output coordinates in angstroms (scale by  1.889725989 to convert to a.u.)
 
  No.       Tag          Charge          X              Y              Z
 ---- ---------------- ---------- -------------- -------------- --------------
    1 H                    1.0000    -0.46131292     1.64841589     0.78884773
    2 N                    7.0000    -0.26828820     1.17656288    -0.10462563
    3 C                    6.0000     0.51594966     0.02771140     0.10010158
    4 H                    1.0000     1.42458036    -0.02646178    -0.50097286
    5 F                    9.0000    -0.24206793    -1.11332968    -0.01763934
 
      Atomic Mass 
      ----------- 
 
      H                  1.007825
      N                 14.003070
      C                 12.000000
      F                 18.998400
 

 Effective nuclear repulsion energy (a.u.)      65.1419719729

            Nuclear Dipole moment (a.u.) 
            ----------------------------
        X                 Y               Z
 ---------------- ---------------- ----------------
     0.0044155425     0.0079283299    -0.0050061382
 
 
                                 NWChem DFT Module
                                 -----------------
 
 
                                    Test SCAN-L
 
 


 Summary of "ao basis" -> "ao basis" (cartesian)
 ------------------------------------------------------------------------------
       Tag                 Description            Shells   Functions and Types
 ---------------- ------------------------------  ------  ---------------------
 C                           6-31g*                  6       15   3s2p1d
 N                           6-31g*                  6       15   3s2p1d
 F                           6-31g*                  6       15   3s2p1d
 H                           6-31g                   2        2   2s



  The DFT is already converged 

         Total DFT energy =   -193.778007439351

 
            General Information
            -------------------
          SCF calculation type: DFT
          Wavefunction type:  spin polarized.
          No. of atoms     :     5
          No. of electrons :    24
           Alpha electrons :    13
            Beta electrons :    11
          Charge           :     0
          Spin multiplicity:     3
          Use of symmetry is: off; symmetry adaption is: off
          Maximum number of iterations:  30
          AO basis - number of functions:    49
                     number of shells:    22
          Convergence on energy requested:  1.00D-08
          Convergence on density requested:  1.00D-05
          Convergence on gradient requested:  5.00D-04
 
              XC Information
              --------------
                       SCAN-L Method XC Functional
                SCAN-L metaGGA Exchange Functional  1.000          
                      SCAN-L Correlation Potential  1.000          
 
             Grid Information
             ----------------
          Grid used for XC integration:  xfine     
          Radial quadrature: Mura-Knowles        
          Angular quadrature: Lebedev. 
          Tag              B.-S. Rad. Rad. Pts. Rad. Cut. Ang. Pts.
          ---              ---------- --------- --------- ---------
          H                   0.35      100           8.0      1202
          N                   0.65      100           7.0      1454
          C                   0.70      100           7.0      1454
          F                   0.50      100           8.0      1454
          Grid pruning is: on 
          Number of quadrature shells:   500
          Spatial weights used:  Erf1
 
          Convergence Information
          -----------------------
          Convergence aids based upon iterative change in 
          total energy or number of iterations. 
          Levelshifting, if invoked, occurs when the 
          HOMO/LUMO gap drops below (HL_TOL):  1.00D-02
          DIIS, if invoked, will attempt to extrapolate 
          using up to (NFOCK): 10 stored Fock matrices.

                    Damping( 0%)  Levelshifting(0.5)       DIIS
                  --------------- ------------------- ---------------
          dE  on:    start            ASAP                start   
          dE off:    2 iters         30 iters            30 iters 

 
      Screening Tolerance Information
      -------------------------------
          Density screening/tol_rho:  1.00D-11
          AO Gaussian exp screening on grid/accAOfunc:  18
          CD Gaussian exp screening on grid/accCDfunc:  20
          XC Gaussian exp screening on grid/accXCfunc:  20
          Schwarz screening/accCoul:  1.00D-09

 
 
                            NWChem DFT Gradient Module
                            --------------------------
 
 
                                    Test SCAN-L
 
 

  charge          =   0.00
  wavefunction    = open shell



                         DFT ENERGY GRADIENTS

    atom               coordinates                        gradient
                 x          y          z           x          y          z
   1 H      -0.871755   3.115054   1.490706    0.000031   0.000038  -0.000025
   2 N      -0.506991   2.223381  -0.197714   -0.000036  -0.000022  -0.000011
   3 C       0.975003   0.052367   0.189165   -0.000021  -0.000110   0.000005
   4 H       2.692067  -0.050006  -0.946701    0.000022   0.000044   0.000069
   5 F      -0.457442  -2.103888  -0.033334    0.000004   0.000050  -0.000038
 
                 ----------------------------------------
                 |  Time  |  1-e(secs)   |  2-e(secs)   |
                 ----------------------------------------
                 |  CPU   |       0.00   |       0.84   |
                 ----------------------------------------
                 |  WALL  |       0.00   |       0.85   |
                 ----------------------------------------
  no constraints, skipping     0.000000000000000     

  Step       Energy      Delta E   Gmax     Grms     Xrms     Xmax   Walltime
  ---- ---------------- -------- -------- -------- -------- -------- --------
@    1    -193.77800744 -7.0D-07  0.00004  0.00002  0.00063  0.00111    188.1
                                     ok       ok       ok       ok  



                                Z-matrix (autoz)
                                -------- 

 Units are Angstrom for bonds and degrees for angles
 
      Type          Name      I     J     K     L     M      Value     Gradient
      ----------- --------  ----- ----- ----- ----- ----- ---------- ----------
    1 Stretch                  1     2                       1.02869    0.00000
    2 Stretch                  2     3                       1.40599    0.00001
    3 Stretch                  3     4                       1.09080   -0.00001
    4 Stretch                  3     5                       1.37493   -0.00004
    5 Bend                     1     2     3               110.67076    0.00001
    6 Bend                     2     3     4               115.14918   -0.00003
    7 Bend                     2     3     5               110.98549   -0.00001
    8 Bend                     4     3     5               111.76743    0.00002
    9 Torsion                  1     2     3     4        -126.82955    0.00003
   10 Torsion                  1     2     3     5         104.93754    0.00003
 

      ----------------------
      Optimization converged
      ----------------------


  Step       Energy      Delta E   Gmax     Grms     Xrms     Xmax   Walltime
  ---- ---------------- -------- -------- -------- -------- -------- --------
@    1    -193.77800744 -7.0D-07  0.00004  0.00002  0.00063  0.00111    188.1
                                     ok       ok       ok       ok  



                                Z-matrix (autoz)
                                -------- 

 Units are Angstrom for bonds and degrees for angles
 
      Type          Name      I     J     K     L     M      Value     Gradient
      ----------- --------  ----- ----- ----- ----- ----- ---------- ----------
    1 Stretch                  1     2                       1.02869    0.00000
    2 Stretch                  2     3                       1.40599    0.00001
    3 Stretch                  3     4                       1.09080   -0.00001
    4 Stretch                  3     5                       1.37493   -0.00004
    5 Bend                     1     2     3               110.67076    0.00001
    6 Bend                     2     3     4               115.14918   -0.00003
    7 Bend                     2     3     5               110.98549   -0.00001
    8 Bend                     4     3     5               111.76743    0.00002
    9 Torsion                  1     2     3     4        -126.82955    0.00003
   10 Torsion                  1     2     3     5         104.93754    0.00003
 
 
 
                         Geometry "geometry" -> "geometry"
                         ---------------------------------
 
 Output coordinates in angstroms (scale by  1.889725989 to convert to a.u.)
 
  No.       Tag          Charge          X              Y              Z
 ---- ---------------- ---------- -------------- -------------- --------------
    1 H                    1.0000    -0.46131292     1.64841589     0.78884773
    2 N                    7.0000    -0.26828820     1.17656288    -0.10462563
    3 C                    6.0000     0.51594966     0.02771140     0.10010158
    4 H                    1.0000     1.42458036    -0.02646178    -0.50097286
    5 F                    9.0000    -0.24206793    -1.11332968    -0.01763934
 
      Atomic Mass 
      ----------- 
 
      H                  1.007825
      N                 14.003070
      C                 12.000000
      F                 18.998400
 

 Effective nuclear repulsion energy (a.u.)      65.1419719729

            Nuclear Dipole moment (a.u.) 
            ----------------------------
        X                 Y               Z
 ---------------- ---------------- ----------------
     0.0044155425     0.0079283299    -0.0050061382
 
 
                Final and change from initial internal coordinates
                --------------------------------------------------
 


                                Z-matrix (autoz)
                                -------- 

 Units are Angstrom for bonds and degrees for angles
 
      Type          Name      I     J     K     L     M      Value       Change
      ----------- --------  ----- ----- ----- ----- ----- ---------- ----------
    1 Stretch                  1     2                       1.02869    0.00026
    2 Stretch                  2     3                       1.40599   -0.00045
    3 Stretch                  3     4                       1.09080   -0.00020
    4 Stretch                  3     5                       1.37493   -0.00005
    5 Bend                     1     2     3               110.67076   -0.06998
    6 Bend                     2     3     4               115.14918    0.01577
    7 Bend                     2     3     5               110.98549    0.05089
    8 Bend                     4     3     5               111.76743   -0.04805
    9 Torsion                  1     2     3     4        -126.82955   -0.04441
   10 Torsion                  1     2     3     5         104.93754   -0.03650
 
 ==============================================================================
                                internuclear distances
 ------------------------------------------------------------------------------
       center one      |      center two      | atomic units |  angstroms
 ------------------------------------------------------------------------------
    2 N                |   1 H                |     1.94394  |     1.02869
    3 C                |   2 N                |     2.65693  |     1.40599
    4 H                |   3 C                |     2.06130  |     1.09080
    5 F                |   3 C                |     2.59824  |     1.37493
 ------------------------------------------------------------------------------
                         number of included internuclear distances:          4
 ==============================================================================



 ==============================================================================
                                 internuclear angles
 ------------------------------------------------------------------------------
        center 1       |       center 2       |       center 3       |  degrees
 ------------------------------------------------------------------------------
    1 H                |   2 N                |   3 C                |   110.67
    2 N                |   3 C                |   4 H                |   115.15
    2 N                |   3 C                |   5 F                |   110.99
    4 H                |   3 C                |   5 F                |   111.77
 ------------------------------------------------------------------------------
                            number of included internuclear angles:          4
 ==============================================================================




 Task  times  cpu:       90.7s     wall:      118.4s
 
 
                                NWChem Input Module
                                -------------------
 
 
 Summary of allocated global arrays
-----------------------------------
  No active global arrays



                         GA Statistics for process    0
                         ------------------------------

       create   destroy   get      put      acc     scatter   gather  read&inc
calls: 1004     1004     2.50e+05 4919     8.01e+04    0        0     3556     
number of processes/call -1.54e+13 7.30e+12 -7.97e+13 0.00e+00 0.00e+00
bytes total:             1.42e+08 1.66e+07 7.71e+07 0.00e+00 0.00e+00 2.84e+04
bytes remote:            1.76e+06 4.98e+05 2.09e+06 0.00e+00 0.00e+00 0.00e+00
Max memory consumed for GA by this process: 1210104 bytes
 
MA_summarize_allocated_blocks: starting scan ...
MA_summarize_allocated_blocks: scan completed: 0 heap blocks, 0 stack blocks
MA usage statistics:

	allocation statistics:
					      heap	     stack
					      ----	     -----
	current number of blocks	         0	         0
	maximum number of blocks	        25	        55
	current total bytes		         0	         0
	maximum total bytes		1047042336	  32918472
	maximum total K-bytes		   1047043	     32919
	maximum total M-bytes		      1048	        33
 
 
                                     CITATION
                                     --------
                Please cite the following reference when publishing
                           results obtained with NWChem:
 
                 M. Valiev, E.J. Bylaska, N. Govind, K. Kowalski,
              T.P. Straatsma, H.J.J. van Dam, D. Wang, J. Nieplocha,
                        E. Apra, T.L. Windus, W.A. de Jong
                 "NWChem: a comprehensive and scalable open-source
                  solution for large scale molecular simulations"
                      Comput. Phys. Commun. 181, 1477 (2010)
                           doi:10.1016/j.cpc.2010.04.018
 
                                      AUTHORS
                                      -------
     E. Apra, E. J. Bylaska, N. Govind, K. Kowalski, M. Valiev, W. A. de Jong,
      T. P. Straatsma, H. J. J. van Dam, D. Wang, T. L. Windus, N. P. Bauman,
       A. Panyala, J. Hammond, J. Autschbach, K. Bhaskaran-Nair, J. Brabec,
    K. Lopata, S. A. Fischer, S. Krishnamoorthy, M. Jacquelin, W. Ma, M. Klemm,
       O. Villa, Y. Chen, V. Anisimov, F. Aquino, S. Hirata, M. T. Hackler,
           Eric Hermes, L. Jensen, J. E. Moore, J. C. Becca, V. Konjkov,
            D. Mejia-Rodriguez, T. Risthaus, M. Malagoli, A. Marenich,
   A. Otero-de-la-Roza, J. Mullin, P. Nichols, R. Peverati, J. Pittner, Y. Zhao,
        P.-D. Fan, A. Fonari, M. J. Williamson, R. J. Harrison, J. R. Rehr,
      M. Dupuis, D. Silverstein, D. M. A. Smith, J. Nieplocha, V. Tipparaju,
      M. Krishnan, B. E. Van Kuiken, A. Vazquez-Mayagoitia, M. Swart, Q. Wu,
   T. Van Voorhis, A. A. Auer, M. Nooijen, L. D. Crosby, E. Brown, G. Cisneros,
     G. I. Fann, H. Fruchtl, J. Garza, K. Hirao, R. A. Kendall, J. A. Nichols,
       K. Tsemekhman, K. Wolinski, J. Anchell, D. E. Bernholdt, P. Borowski,
       T. Clark, D. Clerc, H. Dachsel, M. J. O. Deegan, K. Dyall, D. Elwood,
      E. Glendening, M. Gutowski, A. C. Hess, J. Jaffe, B. G. Johnson, J. Ju,
        R. Kobayashi, R. Kutteh, Z. Lin, R. Littlefield, X. Long, B. Meng,
      T. Nakajima, S. Niu, L. Pollack, M. Rosing, K. Glaesemann, G. Sandrone,
      M. Stave, H. Taylor, G. Thomas, J. H. van Lenthe, A. T. Wong, Z. Zhang.
       Aggregate GFloating-point ops:   564.1    
        Aggregate GFLOPS (Real_time):   2.998    
        Aggregate GFLOPS (Proc_time):   3.722    
                    Average   GFLOPS:  0.9992    
                    Max       GFLOPS:   1.591    
                    Min       GFLOPS:  0.6832    

 Total times  cpu:      151.5s     wall:      188.2s
