 argument  1 = /Users/edo/nwchem/nwchem-myfork//QA/tests/cosmo_h2o_bq/cosmo_h2o_bq.nw



============================== echo of input deck ==============================
echo
memory total 2000 Mb
start cosmo_h2o_bq_dat

#permanent_dir ./perm
#scratch_dir ./data

geometry "bq_end" nocenter noautosym noautoz
H    0.290  -1.478   2.133
O    -0.526  -1.642   2.602
H   -0.729  -0.989   3.278
Bq   1.49104334820998       -1.12622254780829        2.48477745219171  charge     -1.038081477585204E-002
bQ   0.641777452191707      -0.276956651790021        2.48477745219171 charge      1.038081477585204E-002
end

geometry "bq_mid" nocenter noautosym noautoz
H    0.290  -1.478   2.133
Bq   1.49104334820998       -1.12622254780829        2.48477745219171  charge     -1.038081477585204E-002
bQ   0.641777452191707      -0.276956651790021        2.48477745219171 charge      1.038081477585204E-002
O    -0.526  -1.642   2.602
H   -0.729  -0.989   3.278
end

basis "atoms_only"
* library 6-31G
end

basis "atoms_bq"
* library 6-31G
bQ library h 6-31G
Bq library h cc-pVQZ
end


set "geometry" "bq_end"
set "ao basis" "atoms_only"
task scf

set "geometry" "bq_mid"
task scf

set "ao basis" "atoms_bq"
task scf
================================================================================


                                         
                                         


             Northwest Computational Chemistry Package (NWChem) 7.0.1
             --------------------------------------------------------


                    Environmental Molecular Sciences Laboratory
                       Pacific Northwest National Laboratory
                                Richland, WA 99352

                              Copyright (c) 1994-2020
                       Pacific Northwest National Laboratory
                            Battelle Memorial Institute

             NWChem is an open-source computational chemistry package
                        distributed under the terms of the
                      Educational Community License (ECL) 2.0
             A copy of the license is included with this distribution
                              in the LICENSE.TXT file

                                  ACKNOWLEDGMENT
                                  --------------

            This software and its documentation were developed at the
            EMSL at Pacific Northwest National Laboratory, a multiprogram
            national laboratory, operated for the U.S. Department of Energy
            by Battelle under Contract Number DE-AC05-76RL01830. Support
            for this work was provided by the Department of Energy Office
            of Biological and Environmental Research, Office of Basic
            Energy Sciences, and the Office of Advanced Scientific Computing.


           Job information
           ---------------

    hostname        = WE40672
    program         = /Users/edo/nwchem/nwchem-myfork//bin/MACX64/nwchem
    date            = Thu Jul 15 09:21:56 2021

    compiled        = Wed_Jul_14_18:51:58_2021
    source          = /Users/edo/nwchem/nwchem-myfork
    nwchem branch   = 7.0.0
    nwchem revision = nwchem_on_git-2744-g38279853c4
    ga revision     = 5.8.0
    use scalapack   = F
    input           = /Users/edo/nwchem/nwchem-myfork//QA/tests/cosmo_h2o_bq/cosmo_h2o_bq.nw
    prefix          = cosmo_h2o_bq_dat.
    data base       = ./cosmo_h2o_bq_dat.db
    status          = startup
    nproc           =        1
    time left       =     -1s



           Memory information
           ------------------

    heap     =   65535996 doubles =    500.0 Mbytes
    stack    =   65536001 doubles =    500.0 Mbytes
    global   =  131072000 doubles =   1000.0 Mbytes (distinct from heap & stack)
    total    =  262143997 doubles =   2000.0 Mbytes
    verify   = yes
    hardfail = no 


           Directory information
           ---------------------

  0 permanent = .
  0 scratch   = .




                                NWChem Input Module
                                -------------------



 Scaling coordinates for geometry "bq_end" by  1.889725989
 (inverse scale =  0.529177249)



                              Geometry "bq_end" -> ""
                              -----------------------

 Output coordinates in angstroms (scale by  1.889725989 to convert to a.u.)

  No.       Tag          Charge          X              Y              Z
 ---- ---------------- ---------- -------------- -------------- --------------
    1 H                    1.0000     0.29000000    -1.47800000     2.13300000
    2 O                    8.0000    -0.52600000    -1.64200000     2.60200000
    3 H                    1.0000    -0.72900000    -0.98900000     3.27800000
    4 Bq                  -0.0104     1.49104335    -1.12622255     2.48477745
    5 bQ                   0.0104     0.64177745    -0.27695665     2.48477745

      Atomic Mass 
      ----------- 

      H                  1.007825
      O                 15.994910


 Effective nuclear repulsion energy (a.u.)       9.1669757029

            Nuclear Dipole moment (a.u.) 
            ----------------------------
        X                 Y               Z
 ---------------- ---------------- ----------------
    -8.7815566689   -29.4853945998    49.5618435025


            XYZ format geometry
            -------------------
     5
 bq_end
 H                     0.29000000    -1.47800000     2.13300000
 O                    -0.52600000    -1.64200000     2.60200000
 H                    -0.72900000    -0.98900000     3.27800000
 Bq                    1.49104335    -1.12622255     2.48477745
 bQ                    0.64177745    -0.27695665     2.48477745

 ==============================================================================
                                internuclear distances
 ------------------------------------------------------------------------------
       center one      |      center two      | atomic units |  angstroms
 ------------------------------------------------------------------------------
    2 O                |   1 H                |     1.80537  |     0.95536
    3 H                |   2 O                |     1.81708  |     0.96156
    4 Bq               |   1 H                |     2.45664  |     1.30000
    4 Bq               |   2 O                |     3.94053  |     2.08524
    4 Bq               |   3 H                |     4.46256  |     2.36149
    5 bQ               |   1 H                |     2.45664  |     1.30000
    5 bQ               |   2 O                |     3.40192  |     1.80022
    5 bQ               |   3 H                |     3.28140  |     1.73644
    5 bQ               |   4 Bq               |     2.26964  |     1.20104
 ------------------------------------------------------------------------------
                         number of included internuclear distances:          9
 ==============================================================================



 ==============================================================================
                                 internuclear angles
 ------------------------------------------------------------------------------
        center 1       |       center 2       |       center 3       |  degrees
 ------------------------------------------------------------------------------
    2 O                |   1 H                |   4 Bq               |   134.65
    2 O                |   1 H                |   5 bQ               |   104.89
    1 H                |   5 bQ               |   4 Bq               |    62.49
    1 H                |   2 O                |   3 H                |   114.13
    2 O                |   1 H                |   4 Bq               |   134.65
    2 O                |   1 H                |   5 bQ               |   104.89
    3 H                |   2 O                |   4 Bq               |    94.34
    2 O                |   3 H                |   5 bQ               |    77.92
    2 O                |   5 bQ               |   4 Bq               |    85.56
    3 H                |   2 O                |   4 Bq               |    94.34
    2 O                |   3 H                |   5 bQ               |    77.92
    3 H                |   5 bQ               |   4 Bq               |   105.56
    4 Bq               |   1 H                |   2 O                |   134.65
    1 H                |   4 Bq               |   3 H                |    40.37
    4 Bq               |   5 bQ               |   1 H                |    62.49
    4 Bq               |   2 O                |   3 H                |    94.34
    4 Bq               |   5 bQ               |   2 O                |    85.56
    4 Bq               |   5 bQ               |   3 H                |   105.56
    5 bQ               |   1 H                |   2 O                |   104.89
    1 H                |   5 bQ               |   3 H                |    62.04
    1 H                |   5 bQ               |   4 Bq               |    62.49
    5 bQ               |   3 H                |   2 O                |    77.92
    2 O                |   5 bQ               |   4 Bq               |    85.56
    3 H                |   5 bQ               |   4 Bq               |   105.56
 ------------------------------------------------------------------------------
                            number of included internuclear angles:         24
 ==============================================================================




 Scaling coordinates for geometry "bq_mid" by  1.889725989
 (inverse scale =  0.529177249)



                           Geometry "bq_mid" -> "      "
                           -----------------------------

 Output coordinates in angstroms (scale by  1.889725989 to convert to a.u.)

  No.       Tag          Charge          X              Y              Z
 ---- ---------------- ---------- -------------- -------------- --------------
    1 H                    1.0000     0.29000000    -1.47800000     2.13300000
    2 Bq                  -0.0104     1.49104335    -1.12622255     2.48477745
    3 bQ                   0.0104     0.64177745    -0.27695665     2.48477745
    4 O                    8.0000    -0.52600000    -1.64200000     2.60200000
    5 H                    1.0000    -0.72900000    -0.98900000     3.27800000

      Atomic Mass 
      ----------- 

      H                  1.007825
      O                 15.994910


 Effective nuclear repulsion energy (a.u.)       9.1669757029

            Nuclear Dipole moment (a.u.) 
            ----------------------------
        X                 Y               Z
 ---------------- ---------------- ----------------
    -8.7815566689   -29.4853945998    49.5618435025


            XYZ format geometry
            -------------------
     5
 bq_mid
 H                     0.29000000    -1.47800000     2.13300000
 Bq                    1.49104335    -1.12622255     2.48477745
 bQ                    0.64177745    -0.27695665     2.48477745
 O                    -0.52600000    -1.64200000     2.60200000
 H                    -0.72900000    -0.98900000     3.27800000

 ==============================================================================
                                internuclear distances
 ------------------------------------------------------------------------------
       center one      |      center two      | atomic units |  angstroms
 ------------------------------------------------------------------------------
    2 Bq               |   1 H                |     2.45664  |     1.30000
    3 bQ               |   1 H                |     2.45664  |     1.30000
    3 bQ               |   2 Bq               |     2.26964  |     1.20104
    4 O                |   1 H                |     1.80537  |     0.95536
    4 O                |   2 Bq               |     3.94053  |     2.08524
    4 O                |   3 bQ               |     3.40192  |     1.80022
    5 H                |   2 Bq               |     4.46256  |     2.36149
    5 H                |   3 bQ               |     3.28140  |     1.73644
    5 H                |   4 O                |     1.81708  |     0.96156
 ------------------------------------------------------------------------------
                         number of included internuclear distances:          9
 ==============================================================================



 ==============================================================================
                                 internuclear angles
 ------------------------------------------------------------------------------
        center 1       |       center 2       |       center 3       |  degrees
 ------------------------------------------------------------------------------
    1 H                |   3 bQ               |   2 Bq               |    62.49
    2 Bq               |   1 H                |   4 O                |   134.65
    3 bQ               |   1 H                |   4 O                |   104.89
    2 Bq               |   3 bQ               |   1 H                |    62.49
    2 Bq               |   1 H                |   4 O                |   134.65
    1 H                |   2 Bq               |   5 H                |    40.37
    2 Bq               |   3 bQ               |   4 O                |    85.56
    2 Bq               |   3 bQ               |   5 H                |   105.56
    2 Bq               |   4 O                |   5 H                |    94.34
    1 H                |   3 bQ               |   2 Bq               |    62.49
    3 bQ               |   1 H                |   4 O                |   104.89
    1 H                |   3 bQ               |   5 H                |    62.04
    2 Bq               |   3 bQ               |   4 O                |    85.56
    2 Bq               |   3 bQ               |   5 H                |   105.56
    3 bQ               |   5 H                |   4 O                |    77.92
    4 O                |   1 H                |   2 Bq               |   134.65
    4 O                |   1 H                |   3 bQ               |   104.89
    1 H                |   4 O                |   5 H                |   114.13
    4 O                |   3 bQ               |   2 Bq               |    85.56
    2 Bq               |   4 O                |   5 H                |    94.34
    4 O                |   5 H                |   3 bQ               |    77.92
    5 H                |   3 bQ               |   2 Bq               |   105.56
    5 H                |   4 O                |   2 Bq               |    94.34
    3 bQ               |   5 H                |   4 O                |    77.92
 ------------------------------------------------------------------------------
                            number of included internuclear angles:         24
 ==============================================================================





 Summary of "atoms_only" -> "" (cartesian)
 ------------------------------------------------------------------------------
       Tag                 Description            Shells   Functions and Types
 ---------------- ------------------------------  ------  ---------------------
 *                           6-31G                    on all atoms 




 Summary of "atoms_bq" -> "" (cartesian)
 ------------------------------------------------------------------------------
       Tag                 Description            Shells   Functions and Types
 ---------------- ------------------------------  ------  ---------------------
 bQ                          6-31G                   2        2   2s
 Bq                         cc-pVQZ                 10       35   4s3p2d1f
 *                           6-31G                    on all atoms 


                      Basis "ao basis" -> "atoms_only" (cartesian)
                      -----
  H (Hydrogen)
  ------------
            Exponent  Coefficients 
       -------------- ---------------------------------------------------------
  1 S  1.87311370E+01  0.033495
  1 S  2.82539370E+00  0.234727
  1 S  6.40121700E-01  0.813757

  2 S  1.61277800E-01  1.000000

  O (Oxygen)
  ----------
            Exponent  Coefficients 
       -------------- ---------------------------------------------------------
  1 S  5.48467170E+03  0.001831
  1 S  8.25234950E+02  0.013950
  1 S  1.88046960E+02  0.068445
  1 S  5.29645000E+01  0.232714
  1 S  1.68975700E+01  0.470193
  1 S  5.79963530E+00  0.358521

  2 S  1.55396160E+01 -0.110778
  2 S  3.59993360E+00 -0.148026
  2 S  1.01376180E+00  1.130767

  3 P  1.55396160E+01  0.070874
  3 P  3.59993360E+00  0.339753
  3 P  1.01376180E+00  0.727159

  4 S  2.70005800E-01  1.000000

  5 P  2.70005800E-01  1.000000



 Summary of "ao basis" -> "atoms_only" (cartesian)
 ------------------------------------------------------------------------------
       Tag                 Description            Shells   Functions and Types
 ---------------- ------------------------------  ------  ---------------------
 H                           6-31G                   2        2   2s
 O                           6-31G                   5        9   3s2p


                                 NWChem SCF Module
                                 -----------------



  ao basis        = "atoms_only"
  functions       =    13
  atoms           =     5
  closed shells   =     5
  open shells     =     0
  charge          =   0.00
  wavefunction    = RHF 
  input vectors   = atomic
  output vectors  = ./cosmo_h2o_bq_dat.movecs
  use symmetry    = F
  symmetry adapt  = F


 Summary of "ao basis" -> "atoms_only" (cartesian)
 ------------------------------------------------------------------------------
       Tag                 Description            Shells   Functions and Types
 ---------------- ------------------------------  ------  ---------------------
 H                           6-31G                   2        2   2s
 O                           6-31G                   5        9   3s2p



 Forming initial guess at       0.1s


      Superposition of Atomic Density Guess
      -------------------------------------

 Sum of atomic energies:         -75.75081731

      Non-variational initial energy
      ------------------------------

 Total energy =     -75.908285
 1-e energy   =    -121.681184
 2-e energy   =      36.605923
 HOMO         =      -0.469021
 LUMO         =       0.113106


 Starting SCF solution at       0.1s



 ----------------------------------------------
         Quadratically convergent ROHF

 Convergence threshold     :          1.000E-04
 Maximum no. of iterations :           30
 Final Fock-matrix accuracy:          1.000E-07
 ----------------------------------------------


 #quartets = 1.035D+03 #integrals = 3.715D+03 #direct =  0.0% #cached =100.0%


 Integral file          = ./cosmo_h2o_bq_dat.aoints.0
 Record size in doubles =  65536        No. of integs per rec  =  43688
 Max. records in memory =      3        Max. records in file   = 177750
 No. of bits per label  =      8        No. of bits per value  =     64


              iter       energy          gnorm     gmax       time
             ----- ------------------- --------- --------- --------
                 1      -75.9504453241  7.97D-01  3.70D-01      0.1
                 2      -75.9822619130  1.87D-01  1.11D-01      0.2
                 3      -75.9848540186  2.44D-02  1.52D-02      0.2
                 4      -75.9849156624  1.92D-04  1.13D-04      0.3
                 5      -75.9849156651  4.08D-06  2.51D-06      0.4


       Final RHF  results 
       ------------------ 

         Total SCF energy =    -75.984915665145
      One-electron energy =   -122.976946778722
      Two-electron energy =     37.825055410713
 Nuclear repulsion energy =      9.166975702864

        Time for solution =      0.3s


             Final eigenvalues
             -----------------

              1      
    1  -20.5534
    2   -1.3455
    3   -0.7254
    4   -0.5424
    5   -0.4967
    6    0.2047
    7    0.3012
    8    1.1185
    9    1.1331
   10    1.1680
   11    1.2041
   12    1.3895
   13    1.6687

                       ROHF Final Molecular Orbital Analysis
                       -------------------------------------

 Vector    2  Occ=2.000000D+00  E=-1.345498D+00
              MO Center= -4.2D-01, -1.5D+00,  2.6D+00, r^2= 5.1D-01
   Bfn.  Coefficient  Atom+Function         Bfn.  Coefficient  Atom+Function  
  ----- ------------  ---------------      ----- ------------  ---------------
     8      0.484012  2 O  s                  4      0.470730  2 O  s          
     3     -0.213569  2 O  s          

 Vector    3  Occ=2.000000D+00  E=-7.253763D-01
              MO Center= -4.1D-01, -1.5D+00,  2.6D+00, r^2= 8.0D-01
   Bfn.  Coefficient  Atom+Function         Bfn.  Coefficient  Atom+Function  
  ----- ------------  ---------------      ----- ------------  ---------------
     7      0.356781  2 O  pz                 5     -0.320017  2 O  px         
     1     -0.264481  1 H  s                 12      0.263207  3 H  s          
    11      0.187882  2 O  pz                 9     -0.168035  2 O  px         

 Vector    4  Occ=2.000000D+00  E=-5.424400D-01
              MO Center= -5.9D-01, -1.7D+00,  2.6D+00, r^2= 6.7D-01
   Bfn.  Coefficient  Atom+Function         Bfn.  Coefficient  Atom+Function  
  ----- ------------  ---------------      ----- ------------  ---------------
     6      0.440703  2 O  py                 5      0.332000  2 O  px         
    10      0.332729  2 O  py                 8     -0.281042  2 O  s          
     9      0.250440  2 O  px                 4     -0.166427  2 O  s          

 Vector    5  Occ=2.000000D+00  E=-4.967015D-01
              MO Center= -5.3D-01, -1.6D+00,  2.6D+00, r^2= 6.0D-01
   Bfn.  Coefficient  Atom+Function         Bfn.  Coefficient  Atom+Function  
  ----- ------------  ---------------      ----- ------------  ---------------
     7      0.432032  2 O  pz                 6     -0.348165  2 O  py         
    11      0.345655  2 O  pz                 5      0.318597  2 O  px         
    10     -0.278702  2 O  py                 9      0.254809  2 O  px         

 Vector    6  Occ=0.000000D+00  E= 2.047031D-01
              MO Center= -1.6D-01, -1.1D+00,  2.7D+00, r^2= 2.6D+00
   Bfn.  Coefficient  Atom+Function         Bfn.  Coefficient  Atom+Function  
  ----- ------------  ---------------      ----- ------------  ---------------
     8      1.199620  2 O  s                 13     -1.014069  3 H  s          
     2     -0.983031  1 H  s                 10      0.344240  2 O  py         
     9      0.249994  2 O  px                 6      0.170838  2 O  py         

 Vector    7  Occ=0.000000D+00  E= 3.012161D-01
              MO Center= -1.1D-01, -1.1D+00,  2.7D+00, r^2= 2.8D+00
   Bfn.  Coefficient  Atom+Function         Bfn.  Coefficient  Atom+Function  
  ----- ------------  ---------------      ----- ------------  ---------------
     2      1.386856  1 H  s                 13     -1.351316  3 H  s          
    11      0.601343  2 O  pz                 9     -0.540768  2 O  px         
    10      0.251822  2 O  py                 7      0.235514  2 O  pz         
     5     -0.211501  2 O  px         

 Vector    8  Occ=0.000000D+00  E= 1.118536D+00
              MO Center= -5.8D-01, -1.4D+00,  2.8D+00, r^2= 1.5D+00
   Bfn.  Coefficient  Atom+Function         Bfn.  Coefficient  Atom+Function  
  ----- ------------  ---------------      ----- ------------  ---------------
    12      1.195637  3 H  s                  1     -0.773322  1 H  s          
    11     -0.555751  2 O  pz                13     -0.548638  3 H  s          
     9      0.456993  2 O  px                 2      0.317745  1 H  s          
    10     -0.271348  2 O  py         

 Vector    9  Occ=0.000000D+00  E= 1.133067D+00
              MO Center= -3.7D-02, -1.3D+00,  2.5D+00, r^2= 1.2D+00
   Bfn.  Coefficient  Atom+Function         Bfn.  Coefficient  Atom+Function  
  ----- ------------  ---------------      ----- ------------  ---------------
     1      1.194405  1 H  s                 12      0.759121  3 H  s          
     2     -0.568997  1 H  s                 13     -0.406809  3 H  s          
     9     -0.310316  2 O  px                 4     -0.281064  2 O  s          
    10     -0.197802  2 O  py                 6     -0.168836  2 O  py         
     5     -0.155550  2 O  px         

 Vector   10  Occ=0.000000D+00  E= 1.168004D+00
              MO Center= -5.3D-01, -1.6D+00,  2.6D+00, r^2= 1.1D+00
   Bfn.  Coefficient  Atom+Function         Bfn.  Coefficient  Atom+Function  
  ----- ------------  ---------------      ----- ------------  ---------------
    11     -0.699029  2 O  pz                 7      0.649654  2 O  pz         
    10      0.565287  2 O  py                 6     -0.526216  2 O  py         
     9     -0.515512  2 O  px                 5      0.477184  2 O  px         

 Vector   11  Occ=0.000000D+00  E= 1.204112D+00
              MO Center= -6.8D-01, -1.9D+00,  2.5D+00, r^2= 1.0D+00
   Bfn.  Coefficient  Atom+Function         Bfn.  Coefficient  Atom+Function  
  ----- ------------  ---------------      ----- ------------  ---------------
    10      0.896489  2 O  py                 6     -0.742297  2 O  py         
     9      0.673655  2 O  px                 5     -0.566013  2 O  px         
    11      0.229242  2 O  pz                 4      0.212522  2 O  s          
     2     -0.185873  1 H  s                  7     -0.183937  2 O  pz         
    13     -0.168472  3 H  s          

 Vector   12  Occ=0.000000D+00  E= 1.389530D+00
              MO Center= -5.2D-01, -1.6D+00,  2.6D+00, r^2= 1.4D+00
   Bfn.  Coefficient  Atom+Function         Bfn.  Coefficient  Atom+Function  
  ----- ------------  ---------------      ----- ------------  ---------------
    11      1.163326  2 O  pz                 9     -1.033921  2 O  px         
     2      0.897853  1 H  s                 13     -0.884362  3 H  s          
     7     -0.736209  2 O  pz                 5      0.656929  2 O  px         
    10      0.498185  2 O  py                 6     -0.312870  2 O  py         

 Vector   13  Occ=0.000000D+00  E= 1.668674D+00
              MO Center= -3.6D-01, -1.4D+00,  2.7D+00, r^2= 1.2D+00
   Bfn.  Coefficient  Atom+Function         Bfn.  Coefficient  Atom+Function  
  ----- ------------  ---------------      ----- ------------  ---------------
     8      2.712952  2 O  s                  4     -1.706542  2 O  s          
     2     -0.653080  1 H  s                 13     -0.636552  3 H  s          
    10      0.532376  2 O  py                 9      0.406505  2 O  px         
    12     -0.331090  3 H  s                  1     -0.327029  1 H  s          


 center of mass
 --------------
 x =  -0.92917465 y =  -3.01653702 z =   4.93895608

 moments of inertia (a.u.)
 ------------------
           3.924693981154           0.096308248243           1.896794114038
           0.096308248243           4.896728093959          -1.277822468465
           1.896794114038          -1.277822468465           3.966077698630

  Mulliken analysis of the total density
  --------------------------------------

    Atom       Charge   Shell Charges
 -----------   ------   -------------------------------------------------------
    1 H    1     0.59   0.50  0.09
    2 O    8     8.82   2.00  0.89  2.91  0.98  2.04
    3 H    1     0.59   0.50  0.09

       Multipole analysis of the density wrt the origin
       ------------------------------------------------

     L   x y z        total         open         nuclear
     -   - - -        -----         ----         -------
     0   0 0 0     -0.000000      0.000000     10.000000

     1   1 0 0      0.571063      0.000000     -8.781557
     1   0 1 0      0.754958      0.000000    -29.485395
     1   0 0 1      0.188661      0.000000     49.561844

     2   2 0 0     -5.114367      0.000000     10.102359
     2   1 1 0     -2.550150      0.000000     25.718437
     2   1 0 1      1.577108      0.000000    -45.425038
     2   0 2 0     -9.193832      0.000000     88.319266
     2   0 1 1      3.838457      0.000000   -144.893749
     2   0 0 2     -2.167943      0.000000    248.039717


 Parallel integral file used       1 records with       0 large values


 Task  times  cpu:        0.4s     wall:        0.4s


                                NWChem Input Module
                                -------------------


                                 NWChem SCF Module
                                 -----------------



  ao basis        = "atoms_only"
  functions       =    13
  atoms           =     5
  closed shells   =     5
  open shells     =     0
  charge          =   0.00
  wavefunction    = RHF 
  input vectors   = ./cosmo_h2o_bq_dat.movecs
  output vectors  = ./cosmo_h2o_bq_dat.movecs
  use symmetry    = F
  symmetry adapt  = F


 Summary of "ao basis" -> "atoms_only" (cartesian)
 ------------------------------------------------------------------------------
       Tag                 Description            Shells   Functions and Types
 ---------------- ------------------------------  ------  ---------------------
 H                           6-31G                   2        2   2s
 O                           6-31G                   5        9   3s2p



 Forming initial guess at       0.5s


 Loading old vectors from job with title :




 Starting SCF solution at       0.5s



 ----------------------------------------------
         Quadratically convergent ROHF

 Convergence threshold     :          1.000E-04
 Maximum no. of iterations :           30
 Final Fock-matrix accuracy:          1.000E-07
 ----------------------------------------------


 #quartets = 1.035D+03 #integrals = 3.715D+03 #direct =  0.0% #cached =100.0%


 Integral file          = ./cosmo_h2o_bq_dat.aoints.0
 Record size in doubles =  65536        No. of integs per rec  =  43688
 Max. records in memory =      3        Max. records in file   = 177750
 No. of bits per label  =      8        No. of bits per value  =     64


              iter       energy          gnorm     gmax       time
             ----- ------------------- --------- --------- --------
                 1      -75.9849156651  4.08D-06  2.51D-06      0.5


       Final RHF  results 
       ------------------ 

         Total SCF energy =    -75.984915665144
      One-electron energy =   -122.976946778722
      Two-electron energy =     37.825055410713
 Nuclear repulsion energy =      9.166975702864

        Time for solution =      0.0s


             Final eigenvalues
             -----------------

              1      
    1  -20.5534
    2   -1.3455
    3   -0.7254
    4   -0.5424
    5   -0.4967
    6    0.2047
    7    0.3012
    8    1.1185
    9    1.1331
   10    1.1680
   11    1.2041
   12    1.3895
   13    1.6687

                       ROHF Final Molecular Orbital Analysis
                       -------------------------------------

 Vector    2  Occ=2.000000D+00  E=-1.345498D+00
              MO Center= -4.2D-01, -1.5D+00,  2.6D+00, r^2= 5.1D-01
   Bfn.  Coefficient  Atom+Function         Bfn.  Coefficient  Atom+Function  
  ----- ------------  ---------------      ----- ------------  ---------------
     8      0.484012  4 O  s                  4      0.470730  4 O  s          
     3     -0.213569  4 O  s          

 Vector    3  Occ=2.000000D+00  E=-7.253763D-01
              MO Center= -4.1D-01, -1.5D+00,  2.6D+00, r^2= 8.0D-01
   Bfn.  Coefficient  Atom+Function         Bfn.  Coefficient  Atom+Function  
  ----- ------------  ---------------      ----- ------------  ---------------
     7      0.356781  4 O  pz                 5     -0.320017  4 O  px         
     1     -0.264481  1 H  s                 12      0.263207  5 H  s          
    11      0.187882  4 O  pz                 9     -0.168035  4 O  px         

 Vector    4  Occ=2.000000D+00  E=-5.424400D-01
              MO Center= -5.9D-01, -1.7D+00,  2.6D+00, r^2= 6.7D-01
   Bfn.  Coefficient  Atom+Function         Bfn.  Coefficient  Atom+Function  
  ----- ------------  ---------------      ----- ------------  ---------------
     6      0.440703  4 O  py                 5      0.332000  4 O  px         
    10      0.332729  4 O  py                 8     -0.281042  4 O  s          
     9      0.250440  4 O  px                 4     -0.166427  4 O  s          

 Vector    5  Occ=2.000000D+00  E=-4.967015D-01
              MO Center= -5.3D-01, -1.6D+00,  2.6D+00, r^2= 6.0D-01
   Bfn.  Coefficient  Atom+Function         Bfn.  Coefficient  Atom+Function  
  ----- ------------  ---------------      ----- ------------  ---------------
     7      0.432032  4 O  pz                 6     -0.348165  4 O  py         
    11      0.345655  4 O  pz                 5      0.318597  4 O  px         
    10     -0.278702  4 O  py                 9      0.254809  4 O  px         

 Vector    6  Occ=0.000000D+00  E= 2.047031D-01
              MO Center= -1.6D-01, -1.1D+00,  2.7D+00, r^2= 2.6D+00
   Bfn.  Coefficient  Atom+Function         Bfn.  Coefficient  Atom+Function  
  ----- ------------  ---------------      ----- ------------  ---------------
     8      1.199620  4 O  s                 13     -1.014069  5 H  s          
     2     -0.983031  1 H  s                 10      0.344240  4 O  py         
     9      0.249994  4 O  px                 6      0.170838  4 O  py         

 Vector    7  Occ=0.000000D+00  E= 3.012161D-01
              MO Center= -1.1D-01, -1.1D+00,  2.7D+00, r^2= 2.8D+00
   Bfn.  Coefficient  Atom+Function         Bfn.  Coefficient  Atom+Function  
  ----- ------------  ---------------      ----- ------------  ---------------
     2      1.386856  1 H  s                 13     -1.351316  5 H  s          
    11      0.601343  4 O  pz                 9     -0.540768  4 O  px         
    10      0.251822  4 O  py                 7      0.235514  4 O  pz         
     5     -0.211501  4 O  px         

 Vector    8  Occ=0.000000D+00  E= 1.118536D+00
              MO Center= -5.8D-01, -1.4D+00,  2.8D+00, r^2= 1.5D+00
   Bfn.  Coefficient  Atom+Function         Bfn.  Coefficient  Atom+Function  
  ----- ------------  ---------------      ----- ------------  ---------------
    12      1.195637  5 H  s                  1     -0.773322  1 H  s          
    11     -0.555751  4 O  pz                13     -0.548638  5 H  s          
     9      0.456993  4 O  px                 2      0.317745  1 H  s          
    10     -0.271348  4 O  py         

 Vector    9  Occ=0.000000D+00  E= 1.133067D+00
              MO Center= -3.7D-02, -1.3D+00,  2.5D+00, r^2= 1.2D+00
   Bfn.  Coefficient  Atom+Function         Bfn.  Coefficient  Atom+Function  
  ----- ------------  ---------------      ----- ------------  ---------------
     1      1.194405  1 H  s                 12      0.759121  5 H  s          
     2     -0.568997  1 H  s                 13     -0.406809  5 H  s          
     9     -0.310316  4 O  px                 4     -0.281064  4 O  s          
    10     -0.197802  4 O  py                 6     -0.168836  4 O  py         
     5     -0.155550  4 O  px         

 Vector   10  Occ=0.000000D+00  E= 1.168004D+00
              MO Center= -5.3D-01, -1.6D+00,  2.6D+00, r^2= 1.1D+00
   Bfn.  Coefficient  Atom+Function         Bfn.  Coefficient  Atom+Function  
  ----- ------------  ---------------      ----- ------------  ---------------
    11     -0.699029  4 O  pz                 7      0.649654  4 O  pz         
    10      0.565287  4 O  py                 6     -0.526216  4 O  py         
     9     -0.515512  4 O  px                 5      0.477184  4 O  px         

 Vector   11  Occ=0.000000D+00  E= 1.204112D+00
              MO Center= -6.8D-01, -1.9D+00,  2.5D+00, r^2= 1.0D+00
   Bfn.  Coefficient  Atom+Function         Bfn.  Coefficient  Atom+Function  
  ----- ------------  ---------------      ----- ------------  ---------------
    10      0.896489  4 O  py                 6     -0.742297  4 O  py         
     9      0.673655  4 O  px                 5     -0.566013  4 O  px         
    11      0.229242  4 O  pz                 4      0.212522  4 O  s          
     2     -0.185873  1 H  s                  7     -0.183937  4 O  pz         
    13     -0.168472  5 H  s          

 Vector   12  Occ=0.000000D+00  E= 1.389530D+00
              MO Center= -5.2D-01, -1.6D+00,  2.6D+00, r^2= 1.4D+00
   Bfn.  Coefficient  Atom+Function         Bfn.  Coefficient  Atom+Function  
  ----- ------------  ---------------      ----- ------------  ---------------
    11      1.163326  4 O  pz                 9     -1.033921  4 O  px         
     2      0.897853  1 H  s                 13     -0.884362  5 H  s          
     7     -0.736209  4 O  pz                 5      0.656929  4 O  px         
    10      0.498185  4 O  py                 6     -0.312870  4 O  py         

 Vector   13  Occ=0.000000D+00  E= 1.668674D+00
              MO Center= -3.6D-01, -1.4D+00,  2.7D+00, r^2= 1.2D+00
   Bfn.  Coefficient  Atom+Function         Bfn.  Coefficient  Atom+Function  
  ----- ------------  ---------------      ----- ------------  ---------------
     8      2.712952  4 O  s                  4     -1.706542  4 O  s          
     2     -0.653080  1 H  s                 13     -0.636552  5 H  s          
    10      0.532376  4 O  py                 9      0.406505  4 O  px         
    12     -0.331090  5 H  s                  1     -0.327029  1 H  s          


 center of mass
 --------------
 x =  -0.92917465 y =  -3.01653702 z =   4.93895608

 moments of inertia (a.u.)
 ------------------
           3.924693981154           0.096308248243           1.896794114038
           0.096308248243           4.896728093959          -1.277822468465
           1.896794114038          -1.277822468465           3.966077698630

  Mulliken analysis of the total density
  --------------------------------------

    Atom       Charge   Shell Charges
 -----------   ------   -------------------------------------------------------
    1 H    1     0.59   0.50  0.09
    4 O    8     8.82   2.00  0.89  2.91  0.98  2.04
    5 H    1     0.59   0.50  0.09

       Multipole analysis of the density wrt the origin
       ------------------------------------------------

     L   x y z        total         open         nuclear
     -   - - -        -----         ----         -------
     0   0 0 0     -0.000000      0.000000     10.000000

     1   1 0 0      0.571063      0.000000     -8.781557
     1   0 1 0      0.754958      0.000000    -29.485395
     1   0 0 1      0.188661      0.000000     49.561844

     2   2 0 0     -5.114367      0.000000     10.102359
     2   1 1 0     -2.550150      0.000000     25.718437
     2   1 0 1      1.577108      0.000000    -45.425038
     2   0 2 0     -9.193832      0.000000     88.319266
     2   0 1 1      3.838457      0.000000   -144.893749
     2   0 0 2     -2.167943      0.000000    248.039717


 Parallel integral file used       1 records with       0 large values


 Task  times  cpu:        0.1s     wall:        0.1s


                                NWChem Input Module
                                -------------------


                      Basis "ao basis" -> "atoms_bq" (cartesian)
                      -----
  bQ
  --
            Exponent  Coefficients 
       -------------- ---------------------------------------------------------
  1 S  1.87311370E+01  0.033495
  1 S  2.82539370E+00  0.234727
  1 S  6.40121700E-01  0.813757

  2 S  1.61277800E-01  1.000000

  Bq
  --
            Exponent  Coefficients 
       -------------- ---------------------------------------------------------
  1 S  8.26400000E+01  0.002006
  1 S  1.24100000E+01  0.015343
  1 S  2.82400000E+00  0.075579

  2 S  7.97700000E-01  1.000000

  3 S  2.58100000E-01  1.000000

  4 S  8.98900000E-02  1.000000

  5 P  2.29200000E+00  1.000000

  6 P  8.38000000E-01  1.000000

  7 P  2.92000000E-01  1.000000

  8 D  2.06200000E+00  1.000000

  9 D  6.62000000E-01  1.000000

 10 F  1.39700000E+00  1.000000

  H (Hydrogen)
  ------------
            Exponent  Coefficients 
       -------------- ---------------------------------------------------------
  1 S  1.87311370E+01  0.033495
  1 S  2.82539370E+00  0.234727
  1 S  6.40121700E-01  0.813757

  2 S  1.61277800E-01  1.000000

  O (Oxygen)
  ----------
            Exponent  Coefficients 
       -------------- ---------------------------------------------------------
  1 S  5.48467170E+03  0.001831
  1 S  8.25234950E+02  0.013950
  1 S  1.88046960E+02  0.068445
  1 S  5.29645000E+01  0.232714
  1 S  1.68975700E+01  0.470193
  1 S  5.79963530E+00  0.358521

  2 S  1.55396160E+01 -0.110778
  2 S  3.59993360E+00 -0.148026
  2 S  1.01376180E+00  1.130767

  3 P  1.55396160E+01  0.070874
  3 P  3.59993360E+00  0.339753
  3 P  1.01376180E+00  0.727159

  4 S  2.70005800E-01  1.000000

  5 P  2.70005800E-01  1.000000



 Summary of "ao basis" -> "atoms_bq" (cartesian)
 ------------------------------------------------------------------------------
       Tag                 Description            Shells   Functions and Types
 ---------------- ------------------------------  ------  ---------------------
 bQ                          6-31G                   2        2   2s
 Bq                         cc-pVQZ                 10       35   4s3p2d1f
 H                           6-31G                   2        2   2s
 O                           6-31G                   5        9   3s2p


                                 NWChem SCF Module
                                 -----------------



  ao basis        = "atoms_bq"
  functions       =    50
  atoms           =     5
  closed shells   =     5
  open shells     =     0
  charge          =   0.00
  wavefunction    = RHF 
  input vectors   = ./cosmo_h2o_bq_dat.movecs
  output vectors  = ./cosmo_h2o_bq_dat.movecs
  use symmetry    = F
  symmetry adapt  = F


 Summary of "ao basis" -> "atoms_bq" (cartesian)
 ------------------------------------------------------------------------------
       Tag                 Description            Shells   Functions and Types
 ---------------- ------------------------------  ------  ---------------------
 bQ                          6-31G                   2        2   2s
 Bq                         cc-pVQZ                 10       35   4s3p2d1f
 H                           6-31G                   2        2   2s
 O                           6-31G                   5        9   3s2p



 Forming initial guess at       0.6s


 !! nbf/nmo/basis-name mismatch 
           nbf=  50 nbf_file=  13
           nmo=  50 nmo_file=  13
           basis="atoms_bq" basis_file="atoms_only"

  Either an incorrect movecs file was specified, or linear dependence has changed,
  or the basis name was changed. 

 Loading old vectors from job with title :




  Load of old vectors failed.   Forcing atomic density guess


      Superposition of Atomic Density Guess
      -------------------------------------

 Sum of atomic energies:         -75.75081731

      Non-variational initial energy
      ------------------------------

 Total energy =     -75.908285
 1-e energy   =    -121.681184
 2-e energy   =      36.605923
 HOMO         =      -0.469645
 LUMO         =       0.071034


 Starting SCF solution at       0.6s



 ----------------------------------------------
         Quadratically convergent ROHF

 Convergence threshold     :          1.000E-04
 Maximum no. of iterations :           30
 Final Fock-matrix accuracy:          1.000E-07
 ----------------------------------------------


 Integral file          = ./cosmo_h2o_bq_dat.aoints.0
 Record size in doubles =  65536        No. of integs per rec  =  43688
 Max. records in memory =     28        Max. records in file   = 177750
 No. of bits per label  =      8        No. of bits per value  =     64


 #quartets = 2.605D+04 #integrals = 6.570D+05 #direct =  0.0% #cached =100.0%


              iter       energy          gnorm     gmax       time
             ----- ------------------- --------- --------- --------
                 1      -75.9580479105  7.89D-01  2.68D-01      0.7
                 2      -75.9895132691  1.83D-01  9.26D-02      0.8
                 3      -75.9919528124  9.53D-03  3.14D-03      0.9
                 4      -75.9919634099  1.94D-05  6.56D-06      1.1


       Final RHF  results 
       ------------------ 

         Total SCF energy =    -75.991963409894
      One-electron energy =   -122.925795464828
      Two-electron energy =     37.766856352070
 Nuclear repulsion energy =      9.166975702864

        Time for solution =      0.5s


             Final eigenvalues
             -----------------

              1      
    1  -20.5620
    2   -1.3511
    3   -0.7313
    4   -0.5492
    5   -0.5024
    6    0.0997
    7    0.2439
    8    0.3204
    9    0.3373
   10    0.4871
   11    0.5932
   12    0.7052
   13    0.7529
   14    1.1361
   15    1.1750

                       ROHF Final Molecular Orbital Analysis
                       -------------------------------------

 Vector    2  Occ=2.000000D+00  E=-1.351096D+00
              MO Center= -4.3D-01, -1.5D+00,  2.6D+00, r^2= 5.1D-01
   Bfn.  Coefficient  Atom+Function         Bfn.  Coefficient  Atom+Function  
  ----- ------------  ---------------      ----- ------------  ---------------
    45      0.490506  4 O  s                 41      0.470780  4 O  s          
    40     -0.213989  4 O  s          

 Vector    3  Occ=2.000000D+00  E=-7.312967D-01
              MO Center= -4.2D-01, -1.5D+00,  2.6D+00, r^2= 7.9D-01
   Bfn.  Coefficient  Atom+Function         Bfn.  Coefficient  Atom+Function  
  ----- ------------  ---------------      ----- ------------  ---------------
    44      0.359432  4 O  pz                42     -0.321635  4 O  px         
     1     -0.264620  1 H  s                 49      0.261592  5 H  s          
    48      0.190072  4 O  pz                46     -0.169603  4 O  px         
    43      0.150599  4 O  py         

 Vector    4  Occ=2.000000D+00  E=-5.492330D-01
              MO Center= -5.7D-01, -1.7D+00,  2.6D+00, r^2= 7.0D-01
   Bfn.  Coefficient  Atom+Function         Bfn.  Coefficient  Atom+Function  
  ----- ------------  ---------------      ----- ------------  ---------------
    43      0.442502  4 O  py                42      0.331738  4 O  px         
    47      0.324313  4 O  py                46      0.258317  4 O  px         
    45     -0.233305  4 O  s                 41     -0.168349  4 O  s          

 Vector    5  Occ=2.000000D+00  E=-5.023725D-01
              MO Center= -5.1D-01, -1.6D+00,  2.6D+00, r^2= 6.3D-01
   Bfn.  Coefficient  Atom+Function         Bfn.  Coefficient  Atom+Function  
  ----- ------------  ---------------      ----- ------------  ---------------
    44      0.432519  4 O  pz                43     -0.346295  4 O  py         
    48      0.323792  4 O  pz                42      0.318782  4 O  px         
    47     -0.274572  4 O  py                46      0.259414  4 O  px         

 Vector    6  Occ=0.000000D+00  E= 9.971519D-02
              MO Center=  1.6D+00, -1.1D+00,  2.5D+00, r^2= 3.4D+00
   Bfn.  Coefficient  Atom+Function         Bfn.  Coefficient  Atom+Function  
  ----- ------------  ---------------      ----- ------------  ---------------
     6      1.561481  2 bq s                  5     -0.900756  2 bq s          
    45     -0.288893  4 O  s                 50      0.182294  5 H  s          
     4      0.170235  2 bq s          

 Vector    7  Occ=0.000000D+00  E= 2.439475D-01
              MO Center= -2.1D-01, -8.3D-01,  3.1D+00, r^2= 3.4D+00
   Bfn.  Coefficient  Atom+Function         Bfn.  Coefficient  Atom+Function  
  ----- ------------  ---------------      ----- ------------  ---------------
    50      1.366442  5 H  s                 45     -0.975843  4 O  s          
     6     -0.967775  2 bq s                 39      0.514103  3 bq s          
    47     -0.433915  4 O  py                 2      0.405947  1 H  s          
    48     -0.295904  4 O  pz                 5      0.263024  2 bq s          
    43     -0.202062  4 O  py         

 Vector    8  Occ=0.000000D+00  E= 3.203742D-01
              MO Center=  4.7D-01, -4.5D-01,  2.6D+00, r^2= 2.9D+00
   Bfn.  Coefficient  Atom+Function         Bfn.  Coefficient  Atom+Function  
  ----- ------------  ---------------      ----- ------------  ---------------
    39      1.655074  3 bq s                 50     -0.779448  5 H  s          
     6     -0.700140  2 bq s                 45      0.604182  4 O  s          
     2     -0.481445  1 H  s                 10     -0.317140  2 bq px         
    13      0.172531  2 bq px         

 Vector    9  Occ=0.000000D+00  E= 3.372839D-01
              MO Center=  6.2D-01, -1.3D+00,  2.2D+00, r^2= 2.9D+00
   Bfn.  Coefficient  Atom+Function         Bfn.  Coefficient  Atom+Function  
  ----- ------------  ---------------      ----- ------------  ---------------
     2      2.229172  1 H  s                  6     -1.129619  2 bq s          
    45     -0.752504  4 O  s                 50     -0.611374  5 H  s          
    46     -0.577361  4 O  px                 5      0.542013  2 bq s          
    48      0.534441  4 O  pz                12      0.524611  2 bq pz         
    10     -0.300279  2 bq px                13      0.261494  2 bq px         

 Vector   10  Occ=0.000000D+00  E= 4.871334D-01
              MO Center=  1.2D+00, -1.2D+00,  2.4D+00, r^2= 2.7D+00
   Bfn.  Coefficient  Atom+Function         Bfn.  Coefficient  Atom+Function  
  ----- ------------  ---------------      ----- ------------  ---------------
     5      3.582062  2 bq s                  6     -1.310383  2 bq s          
     2     -0.818402  1 H  s                 12     -0.779259  2 bq pz         
     4     -0.709750  2 bq s                 27     -0.420505  2 bq dzz        
    25     -0.416313  2 bq dyy               22     -0.374420  2 bq dxx        
    15      0.350765  2 bq pz                45      0.347567  4 O  s          

 Vector   11  Occ=0.000000D+00  E= 5.931795D-01
              MO Center=  1.4D+00, -1.1D+00,  2.4D+00, r^2= 2.2D+00
   Bfn.  Coefficient  Atom+Function         Bfn.  Coefficient  Atom+Function  
  ----- ------------  ---------------      ----- ------------  ---------------
    12      2.535817  2 bq pz                15     -1.372150  2 bq pz         
     5      1.197554  2 bq s                 30     -1.006426  2 bq fxxz       
    11     -1.000908  2 bq py                35     -1.003676  2 bq fyyz       
    37     -1.004102  2 bq fzzz               2     -0.886617  1 H  s          
    10     -0.770104  2 bq px                 9     -0.683709  2 bq pz         

 Vector   12  Occ=0.000000D+00  E= 7.052465D-01
              MO Center=  1.3D+00, -1.1D+00,  2.4D+00, r^2= 2.5D+00
   Bfn.  Coefficient  Atom+Function         Bfn.  Coefficient  Atom+Function  
  ----- ------------  ---------------      ----- ------------  ---------------
    11      3.132125  2 bq py                14     -1.888985  2 bq py         
     2     -1.640112  1 H  s                 12      1.266272  2 bq pz         
    29     -1.233622  2 bq fxxy              34     -1.227742  2 bq fyyy       
    36     -1.227458  2 bq fyzz              39      1.100513  3 bq s          
     8     -0.840944  2 bq py                15     -0.754575  2 bq pz         

 Vector   13  Occ=0.000000D+00  E= 7.528741D-01
              MO Center=  1.3D+00, -1.2D+00,  2.4D+00, r^2= 2.8D+00
   Bfn.  Coefficient  Atom+Function         Bfn.  Coefficient  Atom+Function  
  ----- ------------  ---------------      ----- ------------  ---------------
    10      2.934616  2 bq px                13     -2.092841  2 bq px         
     2     -1.654051  1 H  s                  6      1.456831  2 bq s          
    28     -1.136736  2 bq fxxx              31     -1.130412  2 bq fxyy       
    33     -1.129905  2 bq fxzz              11     -0.978481  2 bq py         
    39     -0.880500  3 bq s                  7     -0.782056  2 bq px         

 Vector   14  Occ=0.000000D+00  E= 1.136086D+00
              MO Center= -7.3D-01, -1.3D+00,  3.0D+00, r^2= 1.3D+00
   Bfn.  Coefficient  Atom+Function         Bfn.  Coefficient  Atom+Function  
  ----- ------------  ---------------      ----- ------------  ---------------
    49      1.139137  5 H  s                 46      0.711212  4 O  px         
    50     -0.620345  5 H  s                 10      0.498418  2 bq px         
     1     -0.421300  1 H  s                 44     -0.373751  4 O  pz         
    42     -0.318359  4 O  px                13     -0.303939  2 bq px         
    43     -0.244576  4 O  py                31     -0.203135  2 bq fxyy       

 Vector   15  Occ=0.000000D+00  E= 1.174998D+00
              MO Center=  2.2D-01, -1.5D+00,  2.5D+00, r^2= 1.7D+00
   Bfn.  Coefficient  Atom+Function         Bfn.  Coefficient  Atom+Function  
  ----- ------------  ---------------      ----- ------------  ---------------
    10      1.770277  2 bq px                 1     -0.934499  1 H  s          
    31     -0.715660  2 bq fxyy              33     -0.712951  2 bq fxzz       
    28     -0.702223  2 bq fxxx              12      0.595746  2 bq pz         
    43      0.592368  4 O  py                13     -0.562820  2 bq px         
     2      0.522259  1 H  s                  7     -0.481738  2 bq px         


 center of mass
 --------------
 x =  -0.92917465 y =  -3.01653702 z =   4.93895608

 moments of inertia (a.u.)
 ------------------
           3.924693981154           0.096308248243           1.896794114038
           0.096308248243           4.896728093959          -1.277822468465
           1.896794114038          -1.277822468465           3.966077698630

  Mulliken analysis of the total density
  --------------------------------------

    Atom       Charge   Shell Charges
 -----------   ------   -------------------------------------------------------
    1 H    1     0.54   0.50  0.04
    2 X    0     0.05  -0.00 -0.00  0.02  0.02  0.00 -0.03  0.03 -0.00 -0.01  0.02
    3 X    0     0.04  -0.00  0.04
    4 O    8     8.79   2.00  0.90  2.91  0.98  2.01
    5 H    1     0.58   0.50  0.08

       Multipole analysis of the density wrt the origin
       ------------------------------------------------

     L   x y z        total         open         nuclear
     -   - - -        -----         ----         -------
     0   0 0 0      0.000000      0.000000     10.000000

     1   1 0 0      0.489876      0.000000     -8.781557
     1   0 1 0      0.695030      0.000000    -29.485395
     1   0 0 1      0.190549      0.000000     49.561844

     2   2 0 0     -5.095892      0.000000     10.102359
     2   1 1 0     -2.325828      0.000000     25.718437
     2   1 0 1      1.137917      0.000000    -45.425038
     2   0 2 0     -8.957904      0.000000     88.319266
     2   0 1 1      3.555502      0.000000   -144.893749
     2   0 0 2     -2.173843      0.000000    248.039717


 Parallel integral file used      16 records with       0 large values


 Task  times  cpu:        0.6s     wall:        0.6s
 Summary of allocated global arrays
-----------------------------------
  No active global arrays



                         GA Statistics for process    0
                         ------------------------------

       create   destroy   get      put      acc     scatter   gather  read&inc
calls:  462      459     4606     2914     2542        0        0      178     
number of processes/call -5.36e+14 7.44e+14 1.05e+13 0.00e+00 0.00e+00
bytes total:             5.72e+06 3.64e+06 7.91e+05 0.00e+00 0.00e+00 1.42e+03
bytes remote:            0.00e+00 0.00e+00 0.00e+00 0.00e+00 0.00e+00 0.00e+00
Max memory consumed for GA by this process: 260000 bytes
MA_summarize_allocated_blocks: starting scan ...
MA_summarize_allocated_blocks: scan completed: 0 heap blocks, 0 stack blocks
MA usage statistics:

	allocation statistics:
					      heap	     stack
					      ----	     -----
	current number of blocks	         0	         0
	maximum number of blocks	        17	        14
	current total bytes		         0	         0
	maximum total bytes		  14699712	  22510312
	maximum total K-bytes		     14700	     22511
	maximum total M-bytes		        15	        23


                                NWChem Input Module
                                -------------------





                                     CITATION
                                     --------
                Please cite the following reference when publishing
                           results obtained with NWChem:

          E. Apra, E. J. Bylaska, W. A. de Jong, N. Govind, K. Kowalski,
       T. P. Straatsma, M. Valiev, H. J. J. van Dam, Y. Alexeev, J. Anchell,
       V. Anisimov, F. W. Aquino, R. Atta-Fynn, J. Autschbach, N. P. Bauman,
     J. C. Becca, D. E. Bernholdt, K. Bhaskaran-Nair, S. Bogatko, P. Borowski,
         J. Boschen, J. Brabec, A. Bruner, E. Cauet, Y. Chen, G. N. Chuev,
      C. J. Cramer, J. Daily, M. J. O. Deegan, T. H. Dunning Jr., M. Dupuis,
   K. G. Dyall, G. I. Fann, S. A. Fischer, A. Fonari, H. Fruchtl, L. Gagliardi,
      J. Garza, N. Gawande, S. Ghosh, K. Glaesemann, A. W. Gotz, J. Hammond,
       V. Helms, E. D. Hermes, K. Hirao, S. Hirata, M. Jacquelin, L. Jensen,
   B. G. Johnson, H. Jonsson, R. A. Kendall, M. Klemm, R. Kobayashi, V. Konkov,
      S. Krishnamoorthy, M. Krishnan, Z. Lin, R. D. Lins, R. J. Littlefield,
      A. J. Logsdail, K. Lopata, W. Ma, A. V. Marenich, J. Martin del Campo,
   D. Mejia-Rodriguez, J. E. Moore, J. M. Mullin, T. Nakajima, D. R. Nascimento,
    J. A. Nichols, P. J. Nichols, J. Nieplocha, A. Otero-de-la-Roza, B. Palmer,
    A. Panyala, T. Pirojsirikul, B. Peng, R. Peverati, J. Pittner, L. Pollack,
   R. M. Richard, P. Sadayappan, G. C. Schatz, W. A. Shelton, D. W. Silverstein,
   D. M. A. Smith, T. A. Soares, D. Song, M. Swart, H. L. Taylor, G. S. Thomas,
            V. Tipparaju, D. G. Truhlar, K. Tsemekhman, T. Van Voorhis,
      A. Vazquez-Mayagoitia, P. Verma, O. Villa, A. Vishnu, K. D. Vogiatzis,
        D. Wang, J. H. Weare, M. J. Williamson, T. L. Windus, K. Wolinski,
        A. T. Wong, Q. Wu, C. Yang, Q. Yu, M. Zacharias, Z. Zhang, Y. Zhao,
                                and R. J. Harrison
                        "NWChem: Past, present, and future
                         J. Chem. Phys. 152, 184102 (2020)
                               doi:10.1063/5.0004997

                                      AUTHORS
                                      -------
     E. Apra, E. J. Bylaska, N. Govind, K. Kowalski, M. Valiev, W. A. de Jong,
      T. P. Straatsma, H. J. J. van Dam, D. Wang, T. L. Windus, N. P. Bauman,
       A. Panyala, J. Hammond, J. Autschbach, K. Bhaskaran-Nair, J. Brabec,
    K. Lopata, S. A. Fischer, S. Krishnamoorthy, M. Jacquelin, W. Ma, M. Klemm,
       O. Villa, Y. Chen, V. Anisimov, F. Aquino, S. Hirata, M. T. Hackler,
           Eric Hermes, L. Jensen, J. E. Moore, J. C. Becca, V. Konjkov,
            D. Mejia-Rodriguez, T. Risthaus, M. Malagoli, A. Marenich,
   A. Otero-de-la-Roza, J. Mullin, P. Nichols, R. Peverati, J. Pittner, Y. Zhao,
        P.-D. Fan, A. Fonari, M. J. Williamson, R. J. Harrison, J. R. Rehr,
      M. Dupuis, D. Silverstein, D. M. A. Smith, J. Nieplocha, V. Tipparaju,
      M. Krishnan, B. E. Van Kuiken, A. Vazquez-Mayagoitia, M. Swart, Q. Wu,
   T. Van Voorhis, A. A. Auer, M. Nooijen, L. D. Crosby, E. Brown, G. Cisneros,
     G. I. Fann, H. Fruchtl, J. Garza, K. Hirao, R. A. Kendall, J. A. Nichols,
       K. Tsemekhman, K. Wolinski, J. Anchell, D. E. Bernholdt, P. Borowski,
       T. Clark, D. Clerc, H. Dachsel, M. J. O. Deegan, K. Dyall, D. Elwood,
      E. Glendening, M. Gutowski, A. C. Hess, J. Jaffe, B. G. Johnson, J. Ju,
        R. Kobayashi, R. Kutteh, Z. Lin, R. Littlefield, X. Long, B. Meng,
      T. Nakajima, S. Niu, L. Pollack, M. Rosing, K. Glaesemann, G. Sandrone,
      M. Stave, H. Taylor, G. Thomas, J. H. van Lenthe, A. T. Wong, Z. Zhang.

 Total times  cpu:        1.2s     wall:        1.2s
