All connections between all procs tested: SUCCESS
 argument  1 = cosmo_cl.nw



============================== echo of input deck ==============================
start cosmo_cl_dat
echo
title "Cl-"
geometry
  cl 0.0 0.0 0.0
end
charge -1
basis
  cl library 6-311+g*
end
cosmo
end
task scf energy
================================================================================


                                         
                                         


             Northwest Computational Chemistry Package (NWChem) 6.1.1
             --------------------------------------------------------


                    Environmental Molecular Sciences Laboratory
                       Pacific Northwest National Laboratory
                                Richland, WA 99352

                              Copyright (c) 1994-2012
                       Pacific Northwest National Laboratory
                            Battelle Memorial Institute

             NWChem is an open-source computational chemistry package
                        distributed under the terms of the
                      Educational Community License (ECL) 2.0
             A copy of the license is included with this distribution
                              in the LICENSE.TXT file

                                  ACKNOWLEDGMENT
                                  --------------

            This software and its documentation were developed at the
            EMSL at Pacific Northwest National Laboratory, a multiprogram
            national laboratory, operated for the U.S. Department of Energy
            by Battelle under Contract Number DE-AC05-76RL01830. Support
            for this work was provided by the Department of Energy Office
            of Biological and Environmental Research, Office of Basic
            Energy Sciences, and the Office of Advanced Scientific Computing.


           Job information
           ---------------

    hostname      = arcen
    program       = /home/d3y133/nwchem-releases/nwchem-6.1.1-final/bin/LINUX64/nwchem
    date          = Wed Aug 28 14:58:44 2013

    compiled      = Mon_Aug_19_11:40:42_2013
    source        = /home/d3y133/nwchem-releases/nwchem-6.1.1-final
    nwchem branch = 6.1.1
    input         = cosmo_cl.nw
    prefix        = cosmo_cl_dat.
    data base     = ./cosmo_cl_dat.db
    status        = startup
    nproc         =        1
    time left     =     -1s



           Memory information
           ------------------

    heap     =   13107201 doubles =    100.0 Mbytes
    stack    =   13107201 doubles =    100.0 Mbytes
    global   =   26214400 doubles =    200.0 Mbytes (distinct from heap & stack)
    total    =   52428802 doubles =    400.0 Mbytes
    verify   = yes
    hardfail = no 


           Directory information
           ---------------------

  0 permanent = .
  0 scratch   = .




                                NWChem Input Module
                                -------------------


                                        Cl-
                                        ---

 Scaling coordinates for geometry "geometry" by  1.889725989
 (inverse scale =  0.529177249)



                             Geometry "geometry" -> ""
                             -------------------------

 Output coordinates in angstroms (scale by  1.889725989 to convert to a.u.)

  No.       Tag          Charge          X              Y              Z
 ---- ---------------- ---------- -------------- -------------- --------------
    1 cl                  17.0000     0.00000000     0.00000000     0.00000000

      Atomic Mass 
      ----------- 

      cl                34.968850


 Effective nuclear repulsion energy (a.u.)       0.0000000000

            Nuclear Dipole moment (a.u.) 
            ----------------------------
        X                 Y               Z
 ---------------- ---------------- ----------------
     0.0000000000     0.0000000000     0.0000000000


            XYZ format geometry
            -------------------
     1
 geometry
 cl                    0.00000000     0.00000000     0.00000000

                      Basis "ao basis" -> "" (cartesian)
                      -----
  cl (Chlorine)
  -------------
            Exponent  Coefficients 
       -------------- ---------------------------------------------------------
  1 S  1.05819000E+05  0.000738
  1 S  1.58720000E+04  0.005718
  1 S  3.61965000E+03  0.029495
  1 S  1.03080000E+03  0.117286
  1 S  3.39908000E+02  0.362949
  1 S  1.24538000E+02  0.584149

  2 S  1.24538000E+02  0.134177
  2 S  4.95135000E+01  0.624250
  2 S  2.08056000E+01  0.291756

  3 S  6.58346000E+00  1.000000

  4 S  2.56468000E+00  1.000000

  5 S  5.59763000E-01  1.000000

  6 S  1.83273000E-01  1.000000

  7 P  5.89776000E+02  0.002391
  7 P  1.39849000E+02  0.018504
  7 P  4.51413000E+01  0.081377
  7 P  1.68733000E+01  0.221552
  7 P  6.74110000E+00  0.772569

  8 P  6.74110000E+00 -1.572244
  8 P  2.77152000E+00  0.992389

  9 P  1.02387000E+00  1.000000

 10 P  3.81368000E-01  1.000000

 11 P  1.09437000E-01  1.000000

 12 S  4.83000000E-02  1.000000

 13 P  4.83000000E-02  1.000000

 14 D  7.50000000E-01  1.000000



 Summary of "ao basis" -> "" (cartesian)
 ------------------------------------------------------------------------------
       Tag                 Description            Shells   Functions and Types
 ---------------- ------------------------------  ------  ---------------------
 cl                         6-311+g*                14       31   7s6p1d



          ---------------
          -cosmo- solvent
          ---------------
 dielectric constant -eps-  =  78.40
 charge screening approach  =   2
 screen = (eps-1)/(eps    ) =   0.98724
 -lineq- algorithm          =   1
 -bem- low  level           =   2
 -bem- high level           =   3
 -bem- from -octahedral-
 solvent radius (ang.)      =   0.000
 atomic radii = 
 --------------
    1 17.000  2.050

 solvent accessible surface
 --------------------------

 ---------- ATOMIC COORDINATES (A.U.) ------------ VDWR(ANG.) --
     1    0.00000000    0.00000000    0.00000000     2.050
 number of segments per atom =         32
 number of   points per atom =        128
 atom (   nspa,  nppa )
 ----------------------
    1 (     32,   128 )     128
 number of -cosmo- surface points =       32
 molecular surface =     52.810 angstrom**2
 molecular volume  =     36.087 angstrom**3
 G(cav/disp)       =      1.124 kcal/mol
 ...... end of -cosmo- initialization ......


                                 NWChem SCF Module
                                 -----------------


                                        Cl-



  ao basis        = "ao basis"
  functions       =    31
  atoms           =     1
  closed shells   =     9
  open shells     =     0
  charge          =  -1.00
  wavefunction    = RHF 
  input vectors   = atomic
  output vectors  = ./cosmo_cl_dat.movecs
  use symmetry    = F
  symmetry adapt  = F


 Summary of "ao basis" -> "ao basis" (cartesian)
 ------------------------------------------------------------------------------
       Tag                 Description            Shells   Functions and Types
 ---------------- ------------------------------  ------  ---------------------
 cl                         6-311+g*                14       31   7s6p1d



 Forming initial guess at       0.0s


      Superposition of Atomic Density Guess
      -------------------------------------

 Sum of atomic energies:        -459.47804774

 Renormalizing density from      17.00 to     18

      Non-variational initial energy
      ------------------------------

 Total energy =    -475.352365
 1-e energy   =    -672.202919
 2-e energy   =     196.850554
 HOMO         =       0.093348
 LUMO         =       0.318290


 Starting SCF solution at       0.2s



 ----------------------------------------------
         Quadratically convergent ROHF

 Convergence threshold     :          1.000E-04
 Maximum no. of iterations :           30
 Final Fock-matrix accuracy:          1.000E-07
 ----------------------------------------------

     COSMO gas phase

 #quartets = 5.565D+03 #integrals = 2.126D+04 #direct =  0.0% #cached =100.0%


 Integral file          = ./cosmo_cl_dat.aoints.0
 Record size in doubles =  65536        No. of integs per rec  =  43688
 Max. records in memory =      5        Max. records in file   =   1380
 No. of bits per label  =      8        No. of bits per value  =     64


              iter       energy          gnorm     gmax       time
             ----- ------------------- --------- --------- --------
                 1     -459.2135288327  3.61D+00  1.12D+00      0.2
                 2     -459.5306927634  5.67D-01  2.07D-01      0.2
                 3     -459.5630992280  2.26D-01  8.23D-02      0.2
                 4     -459.5656176854  7.83D-03  3.92D-03      0.2
                 5     -459.5656216435  5.55D-05  2.26D-05      0.2
     COSMO solvation phase

              iter       energy          gnorm     gmax       time
             ----- ------------------- --------- --------- --------
                 1     -459.6866563520  6.99D-02  3.89D-02      0.3
                 2     -459.6868211863  2.80D-03  1.19D-03      0.3
                 3     -459.6867886711  1.24D-06  4.12D-07      0.6
 
                  COSMO solvation results
                  -----------------------
 
                 gas phase energy =      -459.5656216435
                 sol phase energy =      -459.6867886711
 (electrostatic) solvation energy =         0.1211670276 (   76.03 kcal/mol)


       Final RHF  results 
       ------------------ 

         Total SCF energy =   -459.686788671088
      One-electron energy =   -645.955288717068
      Two-electron energy =    181.813850219043
 Nuclear repulsion energy =      0.000000000000

        Time for solution =      0.4s


             Final eigenvalues
             -----------------

              1      
    1 -104.7408
    2  -10.4662
    3   -7.9333
    4   -7.9333
    5   -7.9333
    6   -0.9757
    7   -0.3938
    8   -0.3938
    9   -0.3938
   10    0.1104
   11    0.1276
   12    0.1276
   13    0.1276
   14    0.6248
   15    0.6248
   16    0.6248
   17    0.9562
   18    1.2286
   19    1.2286

                       ROHF Final Molecular Orbital Analysis
                       -------------------------------------

 Vector    2  Occ=2.000000D+00  E=-1.046620D+01
              MO Center=  2.9D-17, -6.8D-17,  4.8D-17, r^2= 6.5D-02
   Bfn.  Coefficient  Atom+Function         Bfn.  Coefficient  Atom+Function  
  ----- ------------  ---------------      ----- ------------  ---------------
     4      0.598500  1 Cl s                  3      0.513984  1 Cl s          
     2     -0.331695  1 Cl s          

 Vector    3  Occ=2.000000D+00  E=-7.933252D+00
              MO Center= -8.2D-18,  4.2D-17, -5.5D-18, r^2= 5.7D-02
   Bfn.  Coefficient  Atom+Function         Bfn.  Coefficient  Atom+Function  
  ----- ------------  ---------------      ----- ------------  ---------------
     8      1.222644  1 Cl py                11      0.325018  1 Cl py         

 Vector    4  Occ=2.000000D+00  E=-7.933252D+00
              MO Center=  1.2D-17, -2.2D-18, -2.2D-17, r^2= 5.7D-02
   Bfn.  Coefficient  Atom+Function         Bfn.  Coefficient  Atom+Function  
  ----- ------------  ---------------      ----- ------------  ---------------
     7      0.920736  1 Cl px                 9     -0.811068  1 Cl pz         
    10      0.244761  1 Cl px                12     -0.215608  1 Cl pz         

 Vector    5  Occ=2.000000D+00  E=-7.933252D+00
              MO Center= -4.1D-17, -4.1D-18, -4.6D-17, r^2= 5.7D-02
   Bfn.  Coefficient  Atom+Function         Bfn.  Coefficient  Atom+Function  
  ----- ------------  ---------------      ----- ------------  ---------------
     9      0.925926  1 Cl pz                 7      0.804531  1 Cl px         
    12      0.246141  1 Cl pz                10      0.213870  1 Cl px         

 Vector    6  Occ=2.000000D+00  E=-9.757433D-01
              MO Center= -7.1D-15,  2.5D-16,  4.6D-15, r^2= 8.5D-01
   Bfn.  Coefficient  Atom+Function         Bfn.  Coefficient  Atom+Function  
  ----- ------------  ---------------      ----- ------------  ---------------
     6      0.583905  1 Cl s                  5      0.580248  1 Cl s          
     4     -0.395070  1 Cl s                  3     -0.210150  1 Cl s          

 Vector    7  Occ=2.000000D+00  E=-3.937675D-01
              MO Center= -3.2D-16, -7.3D-16, -8.5D-17, r^2= 1.4D+00
   Bfn.  Coefficient  Atom+Function         Bfn.  Coefficient  Atom+Function  
  ----- ------------  ---------------      ----- ------------  ---------------
    17      0.507992  1 Cl py                20      0.393578  1 Cl py         
     8     -0.298511  1 Cl py                14      0.213874  1 Cl py         
    16      0.171164  1 Cl px         

 Vector    8  Occ=2.000000D+00  E=-3.937675D-01
              MO Center=  1.0D-15, -1.1D-15,  4.6D-15, r^2= 1.4D+00
   Bfn.  Coefficient  Atom+Function         Bfn.  Coefficient  Atom+Function  
  ----- ------------  ---------------      ----- ------------  ---------------
    18      0.524164  1 Cl pz                21      0.406107  1 Cl pz         
     9     -0.308013  1 Cl pz                15      0.220683  1 Cl pz         

 Vector    9  Occ=2.000000D+00  E=-3.937675D-01
              MO Center=  7.0D-15, -2.1D-15, -9.3D-16, r^2= 1.4D+00
   Bfn.  Coefficient  Atom+Function         Bfn.  Coefficient  Atom+Function  
  ----- ------------  ---------------      ----- ------------  ---------------
    16      0.508351  1 Cl px                19      0.393856  1 Cl px         
     7     -0.298722  1 Cl px                13      0.214026  1 Cl px         
    17     -0.152775  1 Cl py         

 Vector   10  Occ=0.000000D+00  E= 1.103640D-01
              MO Center= -1.1D-13, -1.5D-13,  2.7D-13, r^2= 6.8D+00
   Bfn.  Coefficient  Atom+Function         Bfn.  Coefficient  Atom+Function  
  ----- ------------  ---------------      ----- ------------  ---------------
    22      1.498176  1 Cl s                  6     -1.086340  1 Cl s          
     4      0.180813  1 Cl s                  5     -0.161322  1 Cl s          

 Vector   11  Occ=0.000000D+00  E= 1.276027D-01
              MO Center=  3.2D-14,  2.1D-14, -3.0D-13, r^2= 1.0D+01
   Bfn.  Coefficient  Atom+Function         Bfn.  Coefficient  Atom+Function  
  ----- ------------  ---------------      ----- ------------  ---------------
    25      1.552803  1 Cl pz                21     -0.888805  1 Cl pz         
    23     -0.166117  1 Cl px         

 Vector   12  Occ=0.000000D+00  E= 1.276027D-01
              MO Center=  1.0D-13,  2.0D-14,  1.2D-14, r^2= 1.0D+01
   Bfn.  Coefficient  Atom+Function         Bfn.  Coefficient  Atom+Function  
  ----- ------------  ---------------      ----- ------------  ---------------
    23      1.525543  1 Cl px                19     -0.873202  1 Cl px         
    24      0.299777  1 Cl py                25      0.184787  1 Cl pz         
    20     -0.171588  1 Cl py         

 Vector   13  Occ=0.000000D+00  E= 1.276027D-01
              MO Center= -2.3D-14,  1.1D-13,  5.6D-15, r^2= 1.0D+01
   Bfn.  Coefficient  Atom+Function         Bfn.  Coefficient  Atom+Function  
  ----- ------------  ---------------      ----- ------------  ---------------
    24      1.532621  1 Cl py                20     -0.877253  1 Cl py         
    23     -0.310512  1 Cl px                19      0.177733  1 Cl px         

 Vector   14  Occ=0.000000D+00  E= 6.248448D-01
              MO Center= -2.2D-17, -7.0D-18,  2.8D-15, r^2= 4.7D+00
   Bfn.  Coefficient  Atom+Function         Bfn.  Coefficient  Atom+Function  
  ----- ------------  ---------------      ----- ------------  ---------------
    21      2.179296  1 Cl pz                18     -1.199830  1 Cl pz         
    25     -1.158762  1 Cl pz                 9      0.205248  1 Cl pz         

 Vector   15  Occ=0.000000D+00  E= 6.248448D-01
              MO Center= -1.2D-15, -8.7D-17,  6.3D-17, r^2= 4.7D+00
   Bfn.  Coefficient  Atom+Function         Bfn.  Coefficient  Atom+Function  
  ----- ------------  ---------------      ----- ------------  ---------------
    19      2.179201  1 Cl px                16     -1.199778  1 Cl px         
    23     -1.158711  1 Cl px                 7      0.205239  1 Cl px         

 Vector   16  Occ=0.000000D+00  E= 6.248448D-01
              MO Center= -3.9D-17, -1.9D-15,  6.3D-17, r^2= 4.7D+00
   Bfn.  Coefficient  Atom+Function         Bfn.  Coefficient  Atom+Function  
  ----- ------------  ---------------      ----- ------------  ---------------
    20      2.179197  1 Cl py                17     -1.199776  1 Cl py         
    24     -1.158709  1 Cl py                 8      0.205239  1 Cl py         

 Vector   17  Occ=0.000000D+00  E= 9.562193D-01
              MO Center=  2.0D-15,  3.5D-15, -6.5D-15, r^2= 2.8D+00
   Bfn.  Coefficient  Atom+Function         Bfn.  Coefficient  Atom+Function  
  ----- ------------  ---------------      ----- ------------  ---------------
     6      2.918089  1 Cl s                  5     -1.208981  1 Cl s          
    22     -0.917549  1 Cl s                 26     -0.555553  1 Cl dxx        
    29     -0.555553  1 Cl dyy               31     -0.555553  1 Cl dzz        
     3      0.259392  1 Cl s          

 Vector   18  Occ=0.000000D+00  E= 1.228630D+00
              MO Center=  3.6D-18,  1.9D-16, -1.2D-17, r^2= 6.5D-01
   Bfn.  Coefficient  Atom+Function         Bfn.  Coefficient  Atom+Function  
  ----- ------------  ---------------      ----- ------------  ---------------
    26      0.989588  1 Cl dxx               29     -0.619440  1 Cl dyy        
    31     -0.370148  1 Cl dzz        

 Vector   19  Occ=0.000000D+00  E= 1.228630D+00
              MO Center= -3.5D-17,  2.6D-16, -2.6D-17, r^2= 6.5D-01
   Bfn.  Coefficient  Atom+Function         Bfn.  Coefficient  Atom+Function  
  ----- ------------  ---------------      ----- ------------  ---------------
    31      0.928973  1 Cl dzz               29     -0.785044  1 Cl dyy        


 center of mass
 --------------
 x =   0.00000000 y =   0.00000000 z =   0.00000000

 moments of inertia (a.u.)
 ------------------
           0.000000000000           0.000000000000           0.000000000000
           0.000000000000           0.000000000000           0.000000000000
           0.000000000000           0.000000000000           0.000000000000

  Mulliken analysis of the total density
  --------------------------------------

    Atom       Charge   Shell Charges
 -----------   ------   -------------------------------------------------------
    1 Cl  17    18.00   0.78  1.19  0.91  1.07  0.93  1.06  7.41 -1.49  1.01  3.03  2.05  0.03  0.00  0.04

       Multipole analysis of the density wrt the origin
       ------------------------------------------------

     L   x y z        total         open         nuclear
     -   - - -        -----         ----         -------
     0   0 0 0     -1.000000      0.000000     17.000000

     1   1 0 0      0.000000      0.000000      0.000000
     1   0 1 0      0.000000      0.000000      0.000000
     1   0 0 1      0.000000      0.000000      0.000000

     2   2 0 0    -12.367524      0.000000      0.000000
     2   1 1 0      0.000000      0.000000      0.000000
     2   1 0 1      0.000000      0.000000      0.000000
     2   0 2 0    -12.367524      0.000000      0.000000
     2   0 1 1      0.000000      0.000000      0.000000
     2   0 0 2    -12.367524      0.000000      0.000000


 Parallel integral file used       1 records with       0 large values


 Task  times  cpu:        0.6s     wall:        0.6s
 Summary of allocated global arrays
-----------------------------------
  No active global arrays



                         GA Statistics for process    0
                         ------------------------------

       create   destroy   get      put      acc     scatter   gather  read&inc
calls:  538      538     8369     2668     3991        0        0        0     
number of processes/call 1.00e+00 1.00e+00 1.00e+00 0.00e+00 0.00e+00
bytes total:             5.89e+06 3.36e+06 1.15e+06 0.00e+00 0.00e+00 0.00e+00
bytes remote:            0.00e+00 0.00e+00 0.00e+00 0.00e+00 0.00e+00 0.00e+00
Max memory consumed for GA by this process: 107208 bytes
MA_summarize_allocated_blocks: starting scan ...
MA_summarize_allocated_blocks: scan completed: 0 heap blocks, 0 stack blocks
MA usage statistics:

	allocation statistics:
					      heap	     stack
					      ----	     -----
	current number of blocks	         0	         0
	maximum number of blocks	        17	        14
	current total bytes		         0	         0
	maximum total bytes		   2636424	  22509640
	maximum total K-bytes		      2637	     22510
	maximum total M-bytes		         3	        23


                                NWChem Input Module
                                -------------------





                                     CITATION
                                     --------
                Please cite the following reference when publishing
                           results obtained with NWChem:

                 M. Valiev, E.J. Bylaska, N. Govind, K. Kowalski,
              T.P. Straatsma, H.J.J. van Dam, D. Wang, J. Nieplocha,
                        E. Apra, T.L. Windus, W.A. de Jong
                 "NWChem: a comprehensive and scalable open-source
                  solution for large scale molecular simulations"
                      Comput. Phys. Commun. 181, 1477 (2010)
                           doi:10.1016/j.cpc.2010.04.018

                              AUTHORS & CONTRIBUTORS
                              ----------------------
      E. J. Bylaska, W. A. de Jong, N. Govind, K. Kowalski, T. P. Straatsma,
     M. Valiev, H. J. J. van Dam, D. Wang, E. Apra, T. L. Windus, J. Hammond,
    J. Autschbach, F. Aquino, J. Mullin, P. Nichols, S. Hirata, M. T. Hackler,
   Y. Zhao, P.-D. Fan, R. J. Harrison, M. Dupuis, D. M. A. Smith, K. Glaesemann,
    J. Nieplocha, V. Tipparaju, M. Krishnan, A. Vazquez-Mayagoitia, L. Jensen,
      M. Swart, Q. Wu, T. Van Voorhis, A. A. Auer, M. Nooijen, L. D. Crosby,
        E. Brown, G. Cisneros, G. I. Fann, H. Fruchtl, J. Garza, K. Hirao,
        R. Kendall, J. A. Nichols, K. Tsemekhman, K. Wolinski, J. Anchell,
       D. Bernholdt, P. Borowski, T. Clark, D. Clerc, H. Dachsel, M. Deegan,
        K. Dyall, D. Elwood, E. Glendening, M. Gutowski, A. Hess, J. Jaffe,
        B. Johnson, J. Ju, R. Kobayashi, R. Kutteh, Z. Lin, R. Littlefield,
    X. Long, B. Meng, T. Nakajima, S. Niu, L. Pollack, M. Rosing, G. Sandrone,
       M. Stave, H. Taylor, G. Thomas, J. H. van Lenthe, A. Wong, Z. Zhang.

 Total times  cpu:        0.6s     wall:        0.7s
