All connections between all procs tested: SUCCESS
 argument  1 = nwxc_nwdft_1ar.nw



============================== echo of input deck ==============================
# $Id: nwxc_nwdft_1ar.nw 23613 2013-02-20 23:51:14Z d3y133 $
echo
start nwxc_dat

geometry
  Ar 0.0 0.0 0.0
end

# Basis set by N Godbout, DR Salahub, J Andzelm, E Wimmer,
# Can J Chem 70, 560 (1992), DOI: 10.1139/v92-079.
# Uncontracted the 2 outer S-functions from the core shell.
basis
Ar    S
  29505.7740000             -0.0017375
   4419.2162000             -0.0133381
   1000.5770000             -0.0667249
    280.0379800             -0.2298887
     89.7120820             -0.4735744
     30.2798780             -0.3599160
Ar    S
     59.5144060              0.0970257
      6.3997779             -0.5933987
      2.4314709             -0.4810805
Ar    S
      4.1875357             -0.1864000
      0.5832562              0.6895689
Ar    S
      0.2071081              1.0000000
Ar    P
    313.0217600              0.0106753
     73.4872310              0.0763095
     22.8979880              0.2751270
      7.9322148              0.5040719
      2.7702696              0.3346271
Ar    P
      1.3318953              0.2877000
      0.4618615              0.5447527
Ar    P
      0.1502194              1.0000000
Ar    D
      0.8500000              1.0000000
end

# LDA exchange

dft
  vectors input atomic
  xc slater
end
task dft energy

# GGA exchange

dft
  vectors input atomic
  xc xpbe96
end
task dft energy

dft
  direct
  vectors input atomic
  xc xwpbe
end
task dft energy

# meta-GGA exchange

dft
  vectors input atomic
  xc xvs98
end
task dft energy

# Hartree-Fock exchange + LDA(PW91) correlation

dft
  vectors input atomic
  xc hfexch pw91lda
end
task dft energy

# Hartree-Fock exchange + GGA correlation

dft
  vectors input atomic
  xc hfexch cpbe96
end
task dft energy

# Hartree-Fock exchange + meta-GGA correlation

dft
  vectors input atomic
  xc hfexch cvs98
end
task dft energy

# GGA exchange-correlation

dft
  vectors input atomic
  xc revpbe
end
task dft energy

dft
  vectors input atomic
  xc rpbe
end
task dft energy

dft
  direct
  vectors input atomic
  xc hse03
end
task dft energy

================================================================================


                                         
                                         


             Northwest Computational Chemistry Package (NWChem) 6.1.1
             --------------------------------------------------------


                    Environmental Molecular Sciences Laboratory
                       Pacific Northwest National Laboratory
                                Richland, WA 99352

                              Copyright (c) 1994-2012
                       Pacific Northwest National Laboratory
                            Battelle Memorial Institute

             NWChem is an open-source computational chemistry package
                        distributed under the terms of the
                      Educational Community License (ECL) 2.0
             A copy of the license is included with this distribution
                              in the LICENSE.TXT file

                                  ACKNOWLEDGMENT
                                  --------------

            This software and its documentation were developed at the
            EMSL at Pacific Northwest National Laboratory, a multiprogram
            national laboratory, operated for the U.S. Department of Energy
            by Battelle under Contract Number DE-AC05-76RL01830. Support
            for this work was provided by the Department of Energy Office
            of Biological and Environmental Research, Office of Basic
            Energy Sciences, and the Office of Advanced Scientific Computing.


           Job information
           ---------------

    hostname        = arcen
    program         = /home/d3y133/nwchem-dev/nwchem-ref/QA/../bin/LINUX64/nwchem
    date            = Fri Feb 22 11:42:31 2013

    compiled        = Fri_Feb_22_11:42:18_2013
    source          = /home/d3y133/nwchem-dev/nwchem-ref
    nwchem branch   = Development
    nwchem revision = 23457
    ga revision     = 10183
    input           = nwxc_nwdft_1ar.nw
    prefix          = nwxc_dat.
    data base       = /home/d3y133/nwchem-dev/nwchem-ref/QA/scratchdir/nwxc_dat.db
    status          = startup
    nproc           =        1
    time left       =     -1s



           Memory information
           ------------------

    heap     =   13107201 doubles =    100.0 Mbytes
    stack    =   13107201 doubles =    100.0 Mbytes
    global   =   26214400 doubles =    200.0 Mbytes (distinct from heap & stack)
    total    =   52428802 doubles =    400.0 Mbytes
    verify   = yes
    hardfail = no 


           Directory information
           ---------------------

  0 permanent = /home/d3y133/nwchem-dev/nwchem-ref/QA/scratchdir
  0 scratch   = /home/d3y133/nwchem-dev/nwchem-ref/QA/scratchdir




                                NWChem Input Module
                                -------------------



 Scaling coordinates for geometry "geometry" by  1.889725989
 (inverse scale =  0.529177249)



                             Geometry "geometry" -> ""
                             -------------------------

 Output coordinates in angstroms (scale by  1.889725989 to convert to a.u.)

  No.       Tag          Charge          X              Y              Z
 ---- ---------------- ---------- -------------- -------------- --------------
    1 Ar                  18.0000     0.00000000     0.00000000     0.00000000

      Atomic Mass 
      ----------- 

      Ar                39.962400


 Effective nuclear repulsion energy (a.u.)       0.0000000000

            Nuclear Dipole moment (a.u.) 
            ----------------------------
        X                 Y               Z
 ---------------- ---------------- ----------------
     0.0000000000     0.0000000000     0.0000000000


            XYZ format geometry
            -------------------
     1
 geometry
 Ar                    0.00000000     0.00000000     0.00000000

  library name resolved from: environment
  library file name is: </home/d3y133/nwchem-dev/nwchem-ref/QA/../src/basis/libraries/>
  
                      Basis "ao basis" -> "" (cartesian)
                      -----
  Ar (Argon)
  ----------
            Exponent  Coefficients 
       -------------- ---------------------------------------------------------
  1 S  2.95057740E+04 -0.001738
  1 S  4.41921620E+03 -0.013338
  1 S  1.00057700E+03 -0.066725
  1 S  2.80037980E+02 -0.229889
  1 S  8.97120820E+01 -0.473574
  1 S  3.02798780E+01 -0.359916

  2 S  5.95144060E+01  0.097026
  2 S  6.39977790E+00 -0.593399
  2 S  2.43147090E+00 -0.481081

  3 S  4.18753570E+00 -0.186400
  3 S  5.83256200E-01  0.689569

  4 S  2.07108100E-01  1.000000

  5 P  3.13021760E+02  0.010675
  5 P  7.34872310E+01  0.076310
  5 P  2.28979880E+01  0.275127
  5 P  7.93221480E+00  0.504072
  5 P  2.77026960E+00  0.334627

  6 P  1.33189530E+00  0.287700
  6 P  4.61861500E-01  0.544753

  7 P  1.50219400E-01  1.000000

  8 D  8.50000000E-01  1.000000



 Summary of "ao basis" -> "" (cartesian)
 ------------------------------------------------------------------------------
       Tag                 Description            Shells   Functions and Types
 ---------------- ------------------------------  ------  ---------------------
 Ar                      user specified              8       19   4s3p1d



                                 NWChem DFT Module
                                 -----------------


  Caching 1-el integrals 

            General Information
            -------------------
          SCF calculation type: DFT
          Wavefunction type:  closed shell.
          No. of atoms     :     1
          No. of electrons :    18
           Alpha electrons :     9
            Beta electrons :     9
          Charge           :     0
          Spin multiplicity:     1
          Use of symmetry is: off; symmetry adaption is: off
          Maximum number of iterations:  30
          AO basis - number of functions:    19
                     number of shells:     8
          Convergence on energy requested: 1.00D-06
          Convergence on density requested: 1.00D-05
          Convergence on gradient requested: 5.00D-04

              XC Information
              --------------
                        Slater Exchange Functional  1.000 local    

             Grid Information
             ----------------
          Grid used for XC integration:  medium    
          Radial quadrature: Mura-Knowles        
          Angular quadrature: Lebedev. 
          Tag              B.-S. Rad. Rad. Pts. Rad. Cut. Ang. Pts.
          ---              ---------- --------- --------- ---------
          Ar                  1.00       88           4.0       590
          Grid pruning is: on 
          Number of quadrature shells:    88
          Spatial weights used:  Erf1

          Convergence Information
          -----------------------
          Convergence aids based upon iterative change in 
          total energy or number of iterations. 
          Levelshifting, if invoked, occurs when the 
          HOMO/LUMO gap drops below (HL_TOL): 1.00D-02
          DIIS, if invoked, will attempt to extrapolate 
          using up to (NFOCK): 10 stored Fock matrices.

                    Damping( 0%)  Levelshifting(0.5)       DIIS
                  --------------- ------------------- ---------------
          dE  on:    start            ASAP                start   
          dE off:    2 iters         30 iters            30 iters 


      Screening Tolerance Information
      -------------------------------
          Density screening/tol_rho: 1.00D-10
          AO Gaussian exp screening on grid/accAOfunc:  14
          CD Gaussian exp screening on grid/accCDfunc:  20
          XC Gaussian exp screening on grid/accXCfunc:  20
          Schwarz screening/accCoul: 1.00D-08


      Superposition of Atomic Density Guess
      -------------------------------------

 Sum of atomic energies:        -526.71772032

      Non-variational initial energy
      ------------------------------

 Total energy =    -526.717720
 1-e energy   =    -727.986939
 2-e energy   =     201.269218
 HOMO         =      -0.592639
 LUMO         =       0.610043

   Time after variat. SCF:      0.1
   Time prior to 1st pass:      0.1

 #quartets = 6.660D+02 #integrals = 3.754D+03 #direct =  0.0% #cached =100.0%


 Integral file          = /home/d3y133/nwchem-dev/nwchem-ref/QA/scratchdir/nwxc_dat.aoints.0
 Record size in doubles =  65536        No. of integs per rec  =  43688
 Max. records in memory =      2        Max. records in file   =   5885
 No. of bits per label  =      8        No. of bits per value  =     64


 Grid_pts file          = /home/d3y133/nwchem-dev/nwchem-ref/QA/scratchdir/nwxc_dat.gridpts.0
 Record size in doubles =  12289        No. of grid_pts per rec  =   3070
 Max. records in memory =     20        Max. recs in file   =     31391


           Memory utilization after 1st SCF pass: 
           Heap Space remaining (MW):       12.73            12727943
          Stack Space remaining (MW):       13.11            13107002

   convergence    iter        energy       DeltaE   RMS-Dens  Diis-err    time
 ---------------- ----- ----------------- --------- --------- ---------  ------
 d= 0,ls=0.0,diis     1   -524.4337491104 -5.24D+02  1.17D-02  4.90D-01     0.2
  Resetting Diis
 d= 0,ls=0.0,diis     2   -524.4402281660 -6.48D-03  6.14D-03  6.52D-03     0.3
 d= 0,ls=0.0,diis     3   -524.4403897420 -1.62D-04  5.51D-03  2.97D-03     0.4
 d= 0,ls=0.0,diis     4   -524.4403911405 -1.40D-06  2.74D-03  2.98D-03     0.4
 d= 0,ls=0.0,diis     5   -524.4407618962 -3.71D-04  1.70D-06  6.88D-10     0.5
 d= 0,ls=0.0,diis     6   -524.4407618963 -5.53D-11  4.69D-07  9.07D-11     0.5


         Total DFT energy =     -524.440761896267
      One electron energy =     -727.546064422013
           Coulomb energy =      230.865313090470
    Exchange-Corr. energy =      -27.760010564725
 Nuclear repulsion energy =        0.000000000000

 Numeric. integr. density =       18.000000122827

     Total iterative time =      0.4s



                       DFT Final Molecular Orbital Analysis
                       ------------------------------------

 Vector    1  Occ=2.000000D+00  E=-1.137218D+02
              MO Center=  8.5D-19,  1.4D-18, -8.3D-19, r^2= 2.8D-03
   Bfn.  Coefficient  Atom+Function         Bfn.  Coefficient  Atom+Function  
  ----- ------------  ---------------      ----- ------------  ---------------
     1      0.995723  1 Ar s          

 Vector    2  Occ=2.000000D+00  E=-1.072808D+01
              MO Center= -3.7D-17,  9.0D-18, -7.5D-17, r^2= 5.8D-02
   Bfn.  Coefficient  Atom+Function         Bfn.  Coefficient  Atom+Function  
  ----- ------------  ---------------      ----- ------------  ---------------
     2      1.041348  1 Ar s                  1     -0.310930  1 Ar s          

 Vector    3  Occ=2.000000D+00  E=-8.381417D+00
              MO Center=  3.5D-17, -1.0D-17,  2.7D-17, r^2= 5.0D-02
   Bfn.  Coefficient  Atom+Function         Bfn.  Coefficient  Atom+Function  
  ----- ------------  ---------------      ----- ------------  ---------------
     6      0.859251  1 Ar py                 7     -0.443737  1 Ar pz         
     5      0.230966  1 Ar px         

 Vector    4  Occ=2.000000D+00  E=-8.381417D+00
              MO Center=  3.9D-17, -1.1D-17,  2.6D-17, r^2= 5.0D-02
   Bfn.  Coefficient  Atom+Function         Bfn.  Coefficient  Atom+Function  
  ----- ------------  ---------------      ----- ------------  ---------------
     5      0.963584  1 Ar px                 7      0.180488  1 Ar pz         
     6     -0.165802  1 Ar py         

 Vector    5  Occ=2.000000D+00  E=-8.381417D+00
              MO Center= -5.1D-17,  4.0D-17,  8.2D-17, r^2= 5.0D-02
   Bfn.  Coefficient  Atom+Function         Bfn.  Coefficient  Atom+Function  
  ----- ------------  ---------------      ----- ------------  ---------------
     7      0.871253  1 Ar pz                 6      0.471972  1 Ar py         

 Vector    6  Occ=2.000000D+00  E=-8.289618D-01
              MO Center= -2.4D-16, -3.2D-16, -4.1D-16, r^2= 6.6D-01
   Bfn.  Coefficient  Atom+Function         Bfn.  Coefficient  Atom+Function  
  ----- ------------  ---------------      ----- ------------  ---------------
     3      0.650454  1 Ar s                  4      0.462747  1 Ar s          
     2      0.404366  1 Ar s          

 Vector    7  Occ=2.000000D+00  E=-3.304174D-01
              MO Center=  1.3D-16,  6.7D-17, -9.2D-17, r^2= 9.5D-01
   Bfn.  Coefficient  Atom+Function         Bfn.  Coefficient  Atom+Function  
  ----- ------------  ---------------      ----- ------------  ---------------
     8      0.616530  1 Ar px                 9      0.508070  1 Ar py         
    11      0.265161  1 Ar px                 5     -0.244010  1 Ar px         
    12      0.218514  1 Ar py                 6     -0.201084  1 Ar py         

 Vector    8  Occ=2.000000D+00  E=-3.304174D-01
              MO Center= -9.5D-18, -3.4D-17, -1.6D-16, r^2= 9.5D-01
   Bfn.  Coefficient  Atom+Function         Bfn.  Coefficient  Atom+Function  
  ----- ------------  ---------------      ----- ------------  ---------------
     9      0.623064  1 Ar py                 8     -0.496726  1 Ar px         
    12      0.267972  1 Ar py                 6     -0.246596  1 Ar py         
    11     -0.213635  1 Ar px                 5      0.196594  1 Ar px         

 Vector    9  Occ=2.000000D+00  E=-3.304174D-01
              MO Center= -6.7D-17, -1.6D-16,  2.8D-16, r^2= 9.5D-01
   Bfn.  Coefficient  Atom+Function         Bfn.  Coefficient  Atom+Function  
  ----- ------------  ---------------      ----- ------------  ---------------
    10      0.791296  1 Ar pz                13      0.340326  1 Ar pz         
     7     -0.313180  1 Ar pz         

 Vector   10  Occ=0.000000D+00  E= 4.250900D-01
              MO Center= -2.6D-16,  9.8D-16, -2.1D-15, r^2= 2.5D+00
   Bfn.  Coefficient  Atom+Function         Bfn.  Coefficient  Atom+Function  
  ----- ------------  ---------------      ----- ------------  ---------------
    13      1.067179  1 Ar pz                10     -0.946077  1 Ar pz         
    12     -0.553382  1 Ar py                 9      0.490585  1 Ar py         
     7      0.267935  1 Ar pz         

 Vector   11  Occ=0.000000D+00  E= 4.250900D-01
              MO Center= -6.8D-17, -2.7D-15, -1.4D-15, r^2= 2.5D+00
   Bfn.  Coefficient  Atom+Function         Bfn.  Coefficient  Atom+Function  
  ----- ------------  ---------------      ----- ------------  ---------------
    12      1.073133  1 Ar py                 9     -0.951355  1 Ar py         
    13      0.554601  1 Ar pz                10     -0.491666  1 Ar pz         
     6      0.269429  1 Ar py         

 Vector   12  Occ=0.000000D+00  E= 4.250900D-01
              MO Center= -1.6D-15, -1.6D-16,  7.3D-17, r^2= 2.5D+00
   Bfn.  Coefficient  Atom+Function         Bfn.  Coefficient  Atom+Function  
  ----- ------------  ---------------      ----- ------------  ---------------
    11      1.202009  1 Ar px                 8     -1.065607  1 Ar px         
     5      0.301786  1 Ar px         

 Vector   13  Occ=0.000000D+00  E= 5.279257D-01
              MO Center=  1.8D-15,  1.6D-15,  3.4D-15, r^2= 1.7D+00
   Bfn.  Coefficient  Atom+Function         Bfn.  Coefficient  Atom+Function  
  ----- ------------  ---------------      ----- ------------  ---------------
     4      1.954913  1 Ar s                  3     -1.336068  1 Ar s          
    14     -0.255494  1 Ar dxx               17     -0.255494  1 Ar dyy        
    19     -0.255494  1 Ar dzz        

 Vector   14  Occ=0.000000D+00  E= 9.055726D-01
              MO Center=  1.6D-17, -1.2D-16,  3.5D-16, r^2= 5.8D-01
   Bfn.  Coefficient  Atom+Function         Bfn.  Coefficient  Atom+Function  
  ----- ------------  ---------------      ----- ------------  ---------------
    16      1.638230  1 Ar dxz               15     -0.542118  1 Ar dxy        

 Vector   15  Occ=0.000000D+00  E= 9.055726D-01
              MO Center= -1.1D-16,  2.0D-16,  6.6D-17, r^2= 5.8D-01
   Bfn.  Coefficient  Atom+Function         Bfn.  Coefficient  Atom+Function  
  ----- ------------  ---------------      ----- ------------  ---------------
    15      1.640614  1 Ar dxy               16      0.549583  1 Ar dxz        

 Vector   16  Occ=0.000000D+00  E= 9.055726D-01
              MO Center=  6.5D-18, -1.1D-16, -1.7D-16, r^2= 5.8D-01
   Bfn.  Coefficient  Atom+Function         Bfn.  Coefficient  Atom+Function  
  ----- ------------  ---------------      ----- ------------  ---------------
    18      1.724250  1 Ar dyz        

 Vector   17  Occ=0.000000D+00  E= 9.055726D-01
              MO Center=  6.7D-17,  3.1D-17, -4.6D-18, r^2= 5.8D-01
   Bfn.  Coefficient  Atom+Function         Bfn.  Coefficient  Atom+Function  
  ----- ------------  ---------------      ----- ------------  ---------------
    14      0.877071  1 Ar dxx               17     -0.852213  1 Ar dyy        

 Vector   18  Occ=0.000000D+00  E= 9.055726D-01
              MO Center=  1.3D-17,  2.9D-18,  1.4D-16, r^2= 5.8D-01
   Bfn.  Coefficient  Atom+Function         Bfn.  Coefficient  Atom+Function  
  ----- ------------  ---------------      ----- ------------  ---------------
    19      0.998734  1 Ar dzz               17     -0.521318  1 Ar dyy        
    14     -0.477417  1 Ar dxx        

 Vector   19  Occ=0.000000D+00  E= 4.180570D+00
              MO Center=  1.9D-17,  3.1D-17,  3.9D-18, r^2= 6.5D-01
   Bfn.  Coefficient  Atom+Function         Bfn.  Coefficient  Atom+Function  
  ----- ------------  ---------------      ----- ------------  ---------------
     3      3.825531  1 Ar s                 14     -2.025082  1 Ar dxx        
    17     -2.025082  1 Ar dyy               19     -2.025082  1 Ar dzz        
     4      0.915113  1 Ar s                  2      0.682715  1 Ar s          
     1     -0.198954  1 Ar s          


 Parallel integral file used       1 records with       0 large values


 Task  times  cpu:        0.5s     wall:        0.6s


                                NWChem Input Module
                                -------------------



                                 NWChem DFT Module
                                 -----------------


  Caching 1-el integrals 

            General Information
            -------------------
          SCF calculation type: DFT
          Wavefunction type:  closed shell.
          No. of atoms     :     1
          No. of electrons :    18
           Alpha electrons :     9
            Beta electrons :     9
          Charge           :     0
          Spin multiplicity:     1
          Use of symmetry is: off; symmetry adaption is: off
          Maximum number of iterations:  30
          AO basis - number of functions:    19
                     number of shells:     8
          Convergence on energy requested: 1.00D-06
          Convergence on density requested: 1.00D-05
          Convergence on gradient requested: 5.00D-04

              XC Information
              --------------
          PerdewBurkeErnzerhof Exchange Functional  1.000          

             Grid Information
             ----------------
          Grid used for XC integration:  medium    
          Radial quadrature: Mura-Knowles        
          Angular quadrature: Lebedev. 
          Tag              B.-S. Rad. Rad. Pts. Rad. Cut. Ang. Pts.
          ---              ---------- --------- --------- ---------
          Ar                  1.00       88           4.0       590
          Grid pruning is: on 
          Number of quadrature shells:    88
          Spatial weights used:  Erf1

          Convergence Information
          -----------------------
          Convergence aids based upon iterative change in 
          total energy or number of iterations. 
          Levelshifting, if invoked, occurs when the 
          HOMO/LUMO gap drops below (HL_TOL): 1.00D-02
          DIIS, if invoked, will attempt to extrapolate 
          using up to (NFOCK): 10 stored Fock matrices.

                    Damping( 0%)  Levelshifting(0.5)       DIIS
                  --------------- ------------------- ---------------
          dE  on:    start            ASAP                start   
          dE off:    2 iters         30 iters            30 iters 


      Screening Tolerance Information
      -------------------------------
          Density screening/tol_rho: 1.00D-10
          AO Gaussian exp screening on grid/accAOfunc:  14
          CD Gaussian exp screening on grid/accCDfunc:  20
          XC Gaussian exp screening on grid/accXCfunc:  20
          Schwarz screening/accCoul: 1.00D-08


      Superposition of Atomic Density Guess
      -------------------------------------

 Sum of atomic energies:        -526.71772032

      Non-variational initial energy
      ------------------------------

 Total energy =    -526.717720
 1-e energy   =    -727.986939
 2-e energy   =     201.269218
 HOMO         =      -0.592639
 LUMO         =       0.610043

   Time after variat. SCF:      0.6
   Time prior to 1st pass:      0.6

 #quartets = 6.660D+02 #integrals = 3.754D+03 #direct =  0.0% #cached =100.0%


 Integral file          = /home/d3y133/nwchem-dev/nwchem-ref/QA/scratchdir/nwxc_dat.aoints.0
 Record size in doubles =  65536        No. of integs per rec  =  43688
 Max. records in memory =      2        Max. records in file   =   5885
 No. of bits per label  =      8        No. of bits per value  =     64


 Grid_pts file          = /home/d3y133/nwchem-dev/nwchem-ref/QA/scratchdir/nwxc_dat.gridpts.0
 Record size in doubles =  12289        No. of grid_pts per rec  =   3070
 Max. records in memory =     20        Max. recs in file   =     31391


           Memory utilization after 1st SCF pass: 
           Heap Space remaining (MW):       12.73            12727943
          Stack Space remaining (MW):       13.11            13107002

   convergence    iter        energy       DeltaE   RMS-Dens  Diis-err    time
 ---------------- ----- ----------------- --------- --------- ---------  ------
 d= 0,ls=0.0,diis     1   -526.5576858677 -5.27D+02  7.48D-03  2.04D-01     0.8
  Resetting Diis
 d= 0,ls=0.0,diis     2   -526.5611887054 -3.50D-03  2.99D-03  1.89D-03     1.0
 d= 0,ls=0.0,diis     3   -526.5612287035 -4.00D-05  2.66D-03  6.83D-04     1.1
 d= 0,ls=0.0,diis     4   -526.5612285127  1.91D-07  1.33D-03  6.83D-04     1.2
 d= 0,ls=0.0,diis     5   -526.5613153736 -8.69D-05  1.20D-06  4.49D-10     1.4
 d= 0,ls=0.0,diis     6   -526.5613153737 -6.81D-11  7.07D-08  2.05D-12     1.5


         Total DFT energy =     -526.561315373714
      One electron energy =     -727.787728855768
           Coulomb energy =      231.132482345496
    Exchange-Corr. energy =      -29.906068863442
 Nuclear repulsion energy =        0.000000000000

 Numeric. integr. density =       18.000000120818

     Total iterative time =      0.9s



                       DFT Final Molecular Orbital Analysis
                       ------------------------------------

 Vector    1  Occ=2.000000D+00  E=-1.141954D+02
              MO Center=  1.1D-18,  4.4D-19, -2.2D-18, r^2= 2.8D-03
   Bfn.  Coefficient  Atom+Function         Bfn.  Coefficient  Atom+Function  
  ----- ------------  ---------------      ----- ------------  ---------------
     1      0.996257  1 Ar s          

 Vector    2  Occ=2.000000D+00  E=-1.079185D+01
              MO Center= -2.6D-17, -1.8D-17,  2.0D-17, r^2= 5.8D-02
   Bfn.  Coefficient  Atom+Function         Bfn.  Coefficient  Atom+Function  
  ----- ------------  ---------------      ----- ------------  ---------------
     2      1.044580  1 Ar s                  1     -0.310834  1 Ar s          

 Vector    3  Occ=2.000000D+00  E=-8.414858D+00
              MO Center= -3.6D-17, -2.2D-18, -8.8D-18, r^2= 5.0D-02
   Bfn.  Coefficient  Atom+Function         Bfn.  Coefficient  Atom+Function  
  ----- ------------  ---------------      ----- ------------  ---------------
     5      0.981140  1 Ar px         

 Vector    4  Occ=2.000000D+00  E=-8.414858D+00
              MO Center= -2.1D-17,  1.3D-17, -3.0D-17, r^2= 5.0D-02
   Bfn.  Coefficient  Atom+Function         Bfn.  Coefficient  Atom+Function  
  ----- ------------  ---------------      ----- ------------  ---------------
     7      0.906846  1 Ar pz                 6     -0.409524  1 Ar py         

 Vector    5  Occ=2.000000D+00  E=-8.414858D+00
              MO Center= -2.3D-17, -1.1D-17, -2.5D-17, r^2= 5.0D-02
   Bfn.  Coefficient  Atom+Function         Bfn.  Coefficient  Atom+Function  
  ----- ------------  ---------------      ----- ------------  ---------------
     6      0.895071  1 Ar py                 7      0.402029  1 Ar pz         
     5      0.165658  1 Ar px         

 Vector    6  Occ=2.000000D+00  E=-8.417387D-01
              MO Center=  2.5D-16, -3.7D-17, -1.7D-16, r^2= 6.5D-01
   Bfn.  Coefficient  Atom+Function         Bfn.  Coefficient  Atom+Function  
  ----- ------------  ---------------      ----- ------------  ---------------
     3      0.652356  1 Ar s                  4      0.452785  1 Ar s          
     2      0.400932  1 Ar s          

 Vector    7  Occ=2.000000D+00  E=-3.381750D-01
              MO Center=  5.5D-18, -2.1D-16, -1.2D-17, r^2= 9.4D-01
   Bfn.  Coefficient  Atom+Function         Bfn.  Coefficient  Atom+Function  
  ----- ------------  ---------------      ----- ------------  ---------------
     9      0.701690  1 Ar py                 8      0.385865  1 Ar px         
    12      0.298384  1 Ar py                 6     -0.276209  1 Ar py         
    11      0.164083  1 Ar px                 5     -0.151889  1 Ar px         

 Vector    8  Occ=2.000000D+00  E=-3.381750D-01
              MO Center= -2.0D-16,  1.9D-16, -1.1D-16, r^2= 9.4D-01
   Bfn.  Coefficient  Atom+Function         Bfn.  Coefficient  Atom+Function  
  ----- ------------  ---------------      ----- ------------  ---------------
     8      0.638823  1 Ar px                 9     -0.393320  1 Ar py         
    10      0.297172  1 Ar pz                11      0.271651  1 Ar px         
     5     -0.251463  1 Ar px                12     -0.167254  1 Ar py         
     6      0.154824  1 Ar py         

 Vector    9  Occ=2.000000D+00  E=-3.381750D-01
              MO Center= -7.6D-17, -5.3D-17,  2.3D-16, r^2= 9.4D-01
   Bfn.  Coefficient  Atom+Function         Bfn.  Coefficient  Atom+Function  
  ----- ------------  ---------------      ----- ------------  ---------------
    10      0.743605  1 Ar pz                13      0.316207  1 Ar pz         
     8     -0.306790  1 Ar px                 7     -0.292708  1 Ar pz         

 Vector   10  Occ=0.000000D+00  E= 4.161583D-01
              MO Center=  4.1D-16,  8.6D-16,  1.6D-15, r^2= 2.5D+00
   Bfn.  Coefficient  Atom+Function         Bfn.  Coefficient  Atom+Function  
  ----- ------------  ---------------      ----- ------------  ---------------
    13      1.071443  1 Ar pz                10     -0.947569  1 Ar pz         
    12      0.535585  1 Ar py                 9     -0.473664  1 Ar py         
     7      0.267073  1 Ar pz                11      0.163049  1 Ar px         

 Vector   11  Occ=0.000000D+00  E= 4.161583D-01
              MO Center=  1.3D-15, -6.3D-16,  1.4D-16, r^2= 2.5D+00
   Bfn.  Coefficient  Atom+Function         Bfn.  Coefficient  Atom+Function  
  ----- ------------  ---------------      ----- ------------  ---------------
    11      1.068026  1 Ar px                 8     -0.944547  1 Ar px         
    12     -0.554608  1 Ar py                 9      0.490488  1 Ar py         
     5      0.266221  1 Ar px         

 Vector   12  Occ=0.000000D+00  E= 4.161583D-01
              MO Center=  7.5D-16,  1.2D-15, -7.2D-16, r^2= 2.5D+00
   Bfn.  Coefficient  Atom+Function         Bfn.  Coefficient  Atom+Function  
  ----- ------------  ---------------      ----- ------------  ---------------
    12      0.931120  1 Ar py                 9     -0.823470  1 Ar py         
    13     -0.547977  1 Ar pz                11      0.542367  1 Ar px         
    10      0.484624  1 Ar pz                 8     -0.479662  1 Ar px         
     6      0.232096  1 Ar py         

 Vector   13  Occ=0.000000D+00  E= 5.251926D-01
              MO Center= -2.2D-15, -1.3D-15, -1.1D-15, r^2= 1.7D+00
   Bfn.  Coefficient  Atom+Function         Bfn.  Coefficient  Atom+Function  
  ----- ------------  ---------------      ----- ------------  ---------------
     4      1.957683  1 Ar s                  3     -1.330284  1 Ar s          
    14     -0.256984  1 Ar dxx               17     -0.256984  1 Ar dyy        
    19     -0.256984  1 Ar dzz        

 Vector   14  Occ=0.000000D+00  E= 8.947318D-01
              MO Center= -2.0D-16, -1.0D-16,  1.2D-17, r^2= 5.8D-01
   Bfn.  Coefficient  Atom+Function         Bfn.  Coefficient  Atom+Function  
  ----- ------------  ---------------      ----- ------------  ---------------
    15      1.729195  1 Ar dxy        

 Vector   15  Occ=0.000000D+00  E= 8.947318D-01
              MO Center= -3.1D-16,  5.0D-17, -9.2D-18, r^2= 5.8D-01
   Bfn.  Coefficient  Atom+Function         Bfn.  Coefficient  Atom+Function  
  ----- ------------  ---------------      ----- ------------  ---------------
    16      1.707890  1 Ar dxz               18     -0.210921  1 Ar dyz        

 Vector   16  Occ=0.000000D+00  E= 8.947318D-01
              MO Center= -9.5D-17, -1.7D-17, -6.4D-17, r^2= 5.8D-01
   Bfn.  Coefficient  Atom+Function         Bfn.  Coefficient  Atom+Function  
  ----- ------------  ---------------      ----- ------------  ---------------
    18      1.499410  1 Ar dyz               14      0.493549  1 Ar dxx        
    17     -0.260078  1 Ar dyy               19     -0.233472  1 Ar dzz        

 Vector   17  Occ=0.000000D+00  E= 8.947318D-01
              MO Center=  2.0D-18,  4.1D-17,  2.1D-16, r^2= 5.8D-01
   Bfn.  Coefficient  Atom+Function         Bfn.  Coefficient  Atom+Function  
  ----- ------------  ---------------      ----- ------------  ---------------
    19      0.951647  1 Ar dzz               17     -0.699012  1 Ar dyy        
    14     -0.252635  1 Ar dxx               16      0.207176  1 Ar dxz        
    18      0.201428  1 Ar dyz        

 Vector   18  Occ=0.000000D+00  E= 8.947318D-01
              MO Center= -1.2D-16, -8.6D-17, -4.4D-17, r^2= 5.8D-01
   Bfn.  Coefficient  Atom+Function         Bfn.  Coefficient  Atom+Function  
  ----- ------------  ---------------      ----- ------------  ---------------
    14      0.829409  1 Ar dxx               18     -0.812236  1 Ar dyz        
    17     -0.664336  1 Ar dyy               19     -0.165073  1 Ar dzz        

 Vector   19  Occ=0.000000D+00  E= 4.175587D+00
              MO Center=  9.3D-18, -7.6D-17,  1.1D-17, r^2= 6.5D-01
   Bfn.  Coefficient  Atom+Function         Bfn.  Coefficient  Atom+Function  
  ----- ------------  ---------------      ----- ------------  ---------------
     3      3.827217  1 Ar s                 14     -2.024873  1 Ar dxx        
    17     -2.024873  1 Ar dyy               19     -2.024873  1 Ar dzz        
     4      0.914171  1 Ar s                  2      0.679863  1 Ar s          
     1     -0.197541  1 Ar s          


 Parallel integral file used       1 records with       0 large values


 Task  times  cpu:        0.9s     wall:        1.0s


                                NWChem Input Module
                                -------------------



                                 NWChem DFT Module
                                 -----------------


  Caching 1-el integrals 

            General Information
            -------------------
          SCF calculation type: DFT
          Wavefunction type:  closed shell.
          No. of atoms     :     1
          No. of electrons :    18
           Alpha electrons :     9
            Beta electrons :     9
          Charge           :     0
          Spin multiplicity:     1
          Use of symmetry is: off; symmetry adaption is: off
          Maximum number of iterations:  30
          This is a Direct SCF calculation.
          AO basis - number of functions:    19
                     number of shells:     8
          Convergence on energy requested: 1.00D-06
          Convergence on density requested: 1.00D-05
          Convergence on gradient requested: 5.00D-04

              XC Information
              --------------
                     LC-wPBE(h)Exchange Functional  1.000          

             Grid Information
             ----------------
          Grid used for XC integration:  medium    
          Radial quadrature: Mura-Knowles        
          Angular quadrature: Lebedev. 
          Tag              B.-S. Rad. Rad. Pts. Rad. Cut. Ang. Pts.
          ---              ---------- --------- --------- ---------
          Ar                  1.00       88           4.0       590
          Grid pruning is: on 
          Number of quadrature shells:    88
          Spatial weights used:  Erf1

          Convergence Information
          -----------------------
          Convergence aids based upon iterative change in 
          total energy or number of iterations. 
          Levelshifting, if invoked, occurs when the 
          HOMO/LUMO gap drops below (HL_TOL): 1.00D-02
          DIIS, if invoked, will attempt to extrapolate 
          using up to (NFOCK): 10 stored Fock matrices.

                    Damping( 0%)  Levelshifting(0.5)       DIIS
                  --------------- ------------------- ---------------
          dE  on:    start            ASAP                start   
          dE off:    2 iters         30 iters            30 iters 


      Screening Tolerance Information
      -------------------------------
          Density screening/tol_rho: 1.00D-10
          AO Gaussian exp screening on grid/accAOfunc:  14
          CD Gaussian exp screening on grid/accCDfunc:  20
          XC Gaussian exp screening on grid/accXCfunc:  20
          Schwarz screening/accCoul: 1.00D-08


      Superposition of Atomic Density Guess
      -------------------------------------

 Sum of atomic energies:        -526.71772032

      Non-variational initial energy
      ------------------------------

 Total energy =    -526.717720
 1-e energy   =    -727.986939
 2-e energy   =     201.269218
 HOMO         =      -0.592639
 LUMO         =       0.610043

   Time after variat. SCF:      1.6
   Time prior to 1st pass:      1.6

 Grid_pts file          = /home/d3y133/nwchem-dev/nwchem-ref/QA/scratchdir/nwxc_dat.gridpts.0
 Record size in doubles =  12289        No. of grid_pts per rec  =   3070
 Max. records in memory =     20        Max. recs in file   =     31391


           Memory utilization after 1st SCF pass: 
           Heap Space remaining (MW):       12.86            12859027
          Stack Space remaining (MW):       13.11            13107002

   convergence    iter        energy       DeltaE   RMS-Dens  Diis-err    time
 ---------------- ----- ----------------- --------- --------- ---------  ------
 d= 0,ls=0.0,diis     1   -524.4337491104 -5.24D+02  1.17D-02  4.90D-01     1.7
  Resetting Diis
 d= 0,ls=0.0,diis     2   -524.4402281660 -6.48D-03  6.14D-03  6.52D-03     1.8
 d= 0,ls=0.0,diis     3   -524.4403897420 -1.62D-04  5.51D-03  2.97D-03     1.9
 d= 0,ls=0.0,diis     4   -524.4403911405 -1.40D-06  2.74D-03  2.98D-03     2.0
 d= 0,ls=0.0,diis     5   -524.4407618962 -3.71D-04  1.70D-06  6.88D-10     2.2
 d= 0,ls=0.0,diis     6   -524.4407618963 -5.40D-11  4.69D-07  9.07D-11     2.3


         Total DFT energy =     -524.440761896267
      One electron energy =     -727.546064422013
           Coulomb energy =      230.865313090470
    Exchange-Corr. energy =      -27.760010564724
 Nuclear repulsion energy =        0.000000000000

 Numeric. integr. density =       18.000000122827

     Total iterative time =      0.7s



                       DFT Final Molecular Orbital Analysis
                       ------------------------------------

 Vector    1  Occ=2.000000D+00  E=-1.137218D+02
              MO Center= -5.4D-18, -4.2D-18, -1.8D-18, r^2= 2.8D-03
   Bfn.  Coefficient  Atom+Function         Bfn.  Coefficient  Atom+Function  
  ----- ------------  ---------------      ----- ------------  ---------------
     1      0.995723  1 Ar s          

 Vector    2  Occ=2.000000D+00  E=-1.072808D+01
              MO Center=  3.9D-17,  4.9D-17,  4.0D-17, r^2= 5.8D-02
   Bfn.  Coefficient  Atom+Function         Bfn.  Coefficient  Atom+Function  
  ----- ------------  ---------------      ----- ------------  ---------------
     2      1.041348  1 Ar s                  1     -0.310930  1 Ar s          

 Vector    3  Occ=2.000000D+00  E=-8.381417D+00
              MO Center= -6.0D-17, -5.9D-17, -1.8D-17, r^2= 5.0D-02
   Bfn.  Coefficient  Atom+Function         Bfn.  Coefficient  Atom+Function  
  ----- ------------  ---------------      ----- ------------  ---------------
     5      0.714460  1 Ar px                 6      0.585082  1 Ar py         
     7      0.368490  1 Ar pz         

 Vector    4  Occ=2.000000D+00  E=-8.381417D+00
              MO Center= -3.3D-17,  1.0D-17, -2.3D-17, r^2= 5.0D-02
   Bfn.  Coefficient  Atom+Function         Bfn.  Coefficient  Atom+Function  
  ----- ------------  ---------------      ----- ------------  ---------------
     6      0.710953  1 Ar py                 7     -0.649630  1 Ar pz         
     5     -0.247157  1 Ar px         

 Vector    5  Occ=2.000000D+00  E=-8.381417D+00
              MO Center= -1.9D-17,  5.2D-18, -1.2D-17, r^2= 5.0D-02
   Bfn.  Coefficient  Atom+Function         Bfn.  Coefficient  Atom+Function  
  ----- ------------  ---------------      ----- ------------  ---------------
     7     -0.656320  1 Ar pz                 5      0.645771  1 Ar px         
     6     -0.375212  1 Ar py         

 Vector    6  Occ=2.000000D+00  E=-8.289618D-01
              MO Center= -1.5D-17, -1.1D-16, -1.3D-16, r^2= 6.6D-01
   Bfn.  Coefficient  Atom+Function         Bfn.  Coefficient  Atom+Function  
  ----- ------------  ---------------      ----- ------------  ---------------
     3      0.650454  1 Ar s                  4      0.462747  1 Ar s          
     2      0.404366  1 Ar s          

 Vector    7  Occ=2.000000D+00  E=-3.304174D-01
              MO Center=  1.2D-16,  1.6D-16,  3.2D-17, r^2= 9.5D-01
   Bfn.  Coefficient  Atom+Function         Bfn.  Coefficient  Atom+Function  
  ----- ------------  ---------------      ----- ------------  ---------------
     9      0.623733  1 Ar py                 8      0.451922  1 Ar px         
    12      0.268260  1 Ar py                 6     -0.246861  1 Ar py         
    10      0.231868  1 Ar pz                11      0.194366  1 Ar px         
     5     -0.178862  1 Ar px         

 Vector    8  Occ=2.000000D+00  E=-3.304174D-01
              MO Center=  5.0D-17, -3.5D-16, -1.1D-16, r^2= 9.5D-01
   Bfn.  Coefficient  Atom+Function         Bfn.  Coefficient  Atom+Function  
  ----- ------------  ---------------      ----- ------------  ---------------
    10      0.709494  1 Ar pz                 8     -0.378870  1 Ar px         
    13      0.305144  1 Ar pz                 7     -0.280804  1 Ar pz         
    11     -0.162947  1 Ar px         

 Vector    9  Occ=2.000000D+00  E=-3.304174D-01
              MO Center=  1.3D-16, -9.3D-17,  1.6D-17, r^2= 9.5D-01
   Bfn.  Coefficient  Atom+Function         Bfn.  Coefficient  Atom+Function  
  ----- ------------  ---------------      ----- ------------  ---------------
     8      0.547050  1 Ar px                 9     -0.507819  1 Ar py         
    10      0.299826  1 Ar pz                11      0.235279  1 Ar px         
    12     -0.218407  1 Ar py                 5     -0.216512  1 Ar px         
     6      0.200985  1 Ar py         

 Vector   10  Occ=0.000000D+00  E= 4.250900D-01
              MO Center=  3.4D-16,  3.7D-16, -2.6D-15, r^2= 2.5D+00
   Bfn.  Coefficient  Atom+Function         Bfn.  Coefficient  Atom+Function  
  ----- ------------  ---------------      ----- ------------  ---------------
    13      1.190761  1 Ar pz                10     -1.055636  1 Ar pz         
     7      0.298962  1 Ar pz                12     -0.191597  1 Ar py         
     9      0.169855  1 Ar py         

 Vector   11  Occ=0.000000D+00  E= 4.250900D-01
              MO Center= -1.2D-17,  1.3D-19, -4.8D-17, r^2= 2.5D+00
   Bfn.  Coefficient  Atom+Function         Bfn.  Coefficient  Atom+Function  
  ----- ------------  ---------------      ----- ------------  ---------------
    12      1.158022  1 Ar py                 9     -1.026612  1 Ar py         
     6      0.290742  1 Ar py                11      0.278227  1 Ar px         
     8     -0.246654  1 Ar px                13      0.202601  1 Ar pz         
    10     -0.179611  1 Ar pz         

 Vector   12  Occ=0.000000D+00  E= 4.250900D-01
              MO Center= -1.7D-15,  3.8D-16, -6.6D-17, r^2= 2.5D+00
   Bfn.  Coefficient  Atom+Function         Bfn.  Coefficient  Atom+Function  
  ----- ------------  ---------------      ----- ------------  ---------------
    11      1.173547  1 Ar px                 8     -1.040375  1 Ar px         
     5      0.294640  1 Ar px                12     -0.285917  1 Ar py         
     9      0.253471  1 Ar py         

 Vector   13  Occ=0.000000D+00  E= 5.279257D-01
              MO Center=  1.5D-15, -5.9D-16,  2.3D-15, r^2= 1.7D+00
   Bfn.  Coefficient  Atom+Function         Bfn.  Coefficient  Atom+Function  
  ----- ------------  ---------------      ----- ------------  ---------------
     4      1.954913  1 Ar s                  3     -1.336068  1 Ar s          
    14     -0.255494  1 Ar dxx               17     -0.255494  1 Ar dyy        
    19     -0.255494  1 Ar dzz        

 Vector   14  Occ=0.000000D+00  E= 9.055726D-01
              MO Center=  1.4D-16, -1.0D-17, -6.7D-18, r^2= 5.8D-01
   Bfn.  Coefficient  Atom+Function         Bfn.  Coefficient  Atom+Function  
  ----- ------------  ---------------      ----- ------------  ---------------
    15      1.650526  1 Ar dxy               16     -0.508277  1 Ar dxz        

 Vector   15  Occ=0.000000D+00  E= 9.055726D-01
              MO Center= -1.6D-16,  4.1D-17,  2.4D-16, r^2= 5.8D-01
   Bfn.  Coefficient  Atom+Function         Bfn.  Coefficient  Atom+Function  
  ----- ------------  ---------------      ----- ------------  ---------------
    16      1.540278  1 Ar dxz               15      0.458108  1 Ar dxy        
    17     -0.342373  1 Ar dyy               14      0.298195  1 Ar dxx        

 Vector   16  Occ=0.000000D+00  E= 9.055726D-01
              MO Center= -1.2D-16,  2.1D-16,  3.3D-16, r^2= 5.8D-01
   Bfn.  Coefficient  Atom+Function         Bfn.  Coefficient  Atom+Function  
  ----- ------------  ---------------      ----- ------------  ---------------
    18     -0.828774  1 Ar dyz               17      0.794004  1 Ar dyy        
    19     -0.646578  1 Ar dzz               16      0.370208  1 Ar dxz        
    15      0.188684  1 Ar dxy        

 Vector   17  Occ=0.000000D+00  E= 9.055726D-01
              MO Center=  1.1D-16, -2.6D-17, -1.4D-17, r^2= 5.8D-01
   Bfn.  Coefficient  Atom+Function         Bfn.  Coefficient  Atom+Function  
  ----- ------------  ---------------      ----- ------------  ---------------
    14      0.928991  1 Ar dxx               19     -0.566027  1 Ar dzz        
    16     -0.468007  1 Ar dxz               18     -0.374815  1 Ar dyz        
    17     -0.362964  1 Ar dyy        

 Vector   18  Occ=0.000000D+00  E= 9.055726D-01
              MO Center=  4.7D-17, -1.1D-16,  3.0D-17, r^2= 5.8D-01
   Bfn.  Coefficient  Atom+Function         Bfn.  Coefficient  Atom+Function  
  ----- ------------  ---------------      ----- ------------  ---------------
    18      1.472825  1 Ar dyz               19     -0.504618  1 Ar dzz        
    17      0.344008  1 Ar dyy               14      0.160610  1 Ar dxx        

 Vector   19  Occ=0.000000D+00  E= 4.180570D+00
              MO Center=  4.9D-17, -2.6D-17, -6.3D-17, r^2= 6.5D-01
   Bfn.  Coefficient  Atom+Function         Bfn.  Coefficient  Atom+Function  
  ----- ------------  ---------------      ----- ------------  ---------------
     3      3.825531  1 Ar s                 14     -2.025082  1 Ar dxx        
    17     -2.025082  1 Ar dyy               19     -2.025082  1 Ar dzz        
     4      0.915113  1 Ar s                  2      0.682715  1 Ar s          
     1     -0.198954  1 Ar s          


 Task  times  cpu:        0.8s     wall:        0.8s


                                NWChem Input Module
                                -------------------



                                 NWChem DFT Module
                                 -----------------


  Caching 1-el integrals 

            General Information
            -------------------
          SCF calculation type: DFT
          Wavefunction type:  closed shell.
          No. of atoms     :     1
          No. of electrons :    18
           Alpha electrons :     9
            Beta electrons :     9
          Charge           :     0
          Spin multiplicity:     1
          Use of symmetry is: off; symmetry adaption is: off
          Maximum number of iterations:  30
          This is a Direct SCF calculation.
          AO basis - number of functions:    19
                     number of shells:     8
          Convergence on energy requested: 1.00D-06
          Convergence on density requested: 1.00D-05
          Convergence on gradient requested: 5.00D-04

              XC Information
              --------------
                          VS98 Exchange Functional  1.000          

             Grid Information
             ----------------
          Grid used for XC integration:  medium    
          Radial quadrature: Mura-Knowles        
          Angular quadrature: Lebedev. 
          Tag              B.-S. Rad. Rad. Pts. Rad. Cut. Ang. Pts.
          ---              ---------- --------- --------- ---------
          Ar                  1.00       88           4.0       590
          Grid pruning is: on 
          Number of quadrature shells:    88
          Spatial weights used:  Erf1

          Convergence Information
          -----------------------
          Convergence aids based upon iterative change in 
          total energy or number of iterations. 
          Levelshifting, if invoked, occurs when the 
          HOMO/LUMO gap drops below (HL_TOL): 1.00D-02
          DIIS, if invoked, will attempt to extrapolate 
          using up to (NFOCK): 10 stored Fock matrices.

                    Damping( 0%)  Levelshifting(0.5)       DIIS
                  --------------- ------------------- ---------------
          dE  on:    start            ASAP                start   
          dE off:    2 iters         30 iters            30 iters 


      Screening Tolerance Information
      -------------------------------
          Density screening/tol_rho: 1.00D-10
          AO Gaussian exp screening on grid/accAOfunc:  14
          CD Gaussian exp screening on grid/accCDfunc:  20
          XC Gaussian exp screening on grid/accXCfunc:  20
          Schwarz screening/accCoul: 1.00D-08


      Superposition of Atomic Density Guess
      -------------------------------------

 Sum of atomic energies:        -526.71772032

      Non-variational initial energy
      ------------------------------

 Total energy =    -526.717720
 1-e energy   =    -727.986939
 2-e energy   =     201.269218
 HOMO         =      -0.592639
 LUMO         =       0.610043

   Time after variat. SCF:      2.4
   Time prior to 1st pass:      2.4

 Grid_pts file          = /home/d3y133/nwchem-dev/nwchem-ref/QA/scratchdir/nwxc_dat.gridpts.0
 Record size in doubles =  12289        No. of grid_pts per rec  =   3070
 Max. records in memory =     20        Max. recs in file   =     31391


           Memory utilization after 1st SCF pass: 
           Heap Space remaining (MW):       12.86            12859027
          Stack Space remaining (MW):       13.11            13107002

   convergence    iter        energy       DeltaE   RMS-Dens  Diis-err    time
 ---------------- ----- ----------------- --------- --------- ---------  ------
 d= 0,ls=0.0,diis     1   -526.7491336590 -5.27D+02  7.83D-03  3.16D-01     2.6
  Resetting Diis
 d= 0,ls=0.0,diis     2   -526.7533106853 -4.18D-03  1.39D-03  6.15D-04     2.8
 d= 0,ls=0.0,diis     3   -526.7533380984 -2.74D-05  1.06D-03  1.29D-04     3.0
 d= 0,ls=0.0,diis     4   -526.7533436827 -5.58D-06  4.71D-04  8.94D-05     3.3
 d= 0,ls=0.0,diis     5   -526.7533543508 -1.07D-05  5.31D-06  9.97D-09     3.5
 d= 0,ls=0.0,diis     6   -526.7533543522 -1.38D-09  3.97D-09  5.24D-15     3.7


         Total DFT energy =     -526.753354352228
      One electron energy =     -728.071752161680
           Coulomb energy =      231.436244660722
    Exchange-Corr. energy =      -30.117846851270
 Nuclear repulsion energy =        0.000000000000

 Numeric. integr. density =       18.000000112806

     Total iterative time =      1.3s



                       DFT Final Molecular Orbital Analysis
                       ------------------------------------

 Vector    1  Occ=2.000000D+00  E=-1.144782D+02
              MO Center=  1.3D-18,  7.0D-18,  4.2D-18, r^2= 2.8D-03
   Bfn.  Coefficient  Atom+Function         Bfn.  Coefficient  Atom+Function  
  ----- ------------  ---------------      ----- ------------  ---------------
     1      0.995833  1 Ar s          

 Vector    2  Occ=2.000000D+00  E=-1.092253D+01
              MO Center= -7.5D-17, -2.6D-17, -6.2D-17, r^2= 5.8D-02
   Bfn.  Coefficient  Atom+Function         Bfn.  Coefficient  Atom+Function  
  ----- ------------  ---------------      ----- ------------  ---------------
     2      1.043486  1 Ar s                  1     -0.311376  1 Ar s          

 Vector    3  Occ=2.000000D+00  E=-8.541020D+00
              MO Center=  7.7D-17,  3.9D-17,  4.7D-17, r^2= 5.0D-02
   Bfn.  Coefficient  Atom+Function         Bfn.  Coefficient  Atom+Function  
  ----- ------------  ---------------      ----- ------------  ---------------
     5      0.901602  1 Ar px                 7      0.385831  1 Ar pz         
     6      0.167748  1 Ar py         

 Vector    4  Occ=2.000000D+00  E=-8.541020D+00
              MO Center= -2.4D-17,  4.6D-17,  7.9D-19, r^2= 5.0D-02
   Bfn.  Coefficient  Atom+Function         Bfn.  Coefficient  Atom+Function  
  ----- ------------  ---------------      ----- ------------  ---------------
     7      0.708796  1 Ar pz                 6      0.566129  1 Ar py         
     5     -0.408653  1 Ar px         

 Vector    5  Occ=2.000000D+00  E=-8.541020D+00
              MO Center= -7.5D-18, -4.8D-17,  3.3D-17, r^2= 5.0D-02
   Bfn.  Coefficient  Atom+Function         Bfn.  Coefficient  Atom+Function  
  ----- ------------  ---------------      ----- ------------  ---------------
     6      0.800780  1 Ar py                 7     -0.581923  1 Ar pz         

 Vector    6  Occ=2.000000D+00  E=-8.673534D-01
              MO Center=  1.4D-16, -2.9D-16, -1.8D-16, r^2= 6.6D-01
   Bfn.  Coefficient  Atom+Function         Bfn.  Coefficient  Atom+Function  
  ----- ------------  ---------------      ----- ------------  ---------------
     3      0.634133  1 Ar s                  4      0.462509  1 Ar s          
     2      0.401372  1 Ar s          

 Vector    7  Occ=2.000000D+00  E=-3.523529D-01
              MO Center=  1.7D-16,  9.9D-17,  1.4D-16, r^2= 9.3D-01
   Bfn.  Coefficient  Atom+Function         Bfn.  Coefficient  Atom+Function  
  ----- ------------  ---------------      ----- ------------  ---------------
     9      0.576129  1 Ar py                10      0.413533  1 Ar pz         
     8      0.405926  1 Ar px                12      0.233730  1 Ar py         
     6     -0.226302  1 Ar py                13      0.167766  1 Ar pz         
    11      0.164680  1 Ar px                 7     -0.162435  1 Ar pz         
     5     -0.159447  1 Ar px         

 Vector    8  Occ=2.000000D+00  E=-3.523529D-01
              MO Center=  1.1D-17,  1.1D-16, -1.2D-16, r^2= 9.3D-01
   Bfn.  Coefficient  Atom+Function         Bfn.  Coefficient  Atom+Function  
  ----- ------------  ---------------      ----- ------------  ---------------
    10      0.686567  1 Ar pz                 9     -0.435596  1 Ar py         
    13      0.278533  1 Ar pz                 7     -0.269682  1 Ar pz         
    12     -0.176717  1 Ar py                 6      0.171101  1 Ar py         

 Vector    9  Occ=2.000000D+00  E=-3.523529D-01
              MO Center= -5.9D-17, -4.6D-18,  5.9D-17, r^2= 9.3D-01
   Bfn.  Coefficient  Atom+Function         Bfn.  Coefficient  Atom+Function  
  ----- ------------  ---------------      ----- ------------  ---------------
     8      0.704515  1 Ar px                 9     -0.382154  1 Ar py         
    11      0.285815  1 Ar px                 5     -0.276732  1 Ar px         
    10     -0.159144  1 Ar pz                12     -0.155036  1 Ar py         
     6      0.150110  1 Ar py         

 Vector   10  Occ=0.000000D+00  E= 4.732144D-01
              MO Center=  8.1D-17, -2.8D-17,  1.2D-15, r^2= 2.5D+00
   Bfn.  Coefficient  Atom+Function         Bfn.  Coefficient  Atom+Function  
  ----- ------------  ---------------      ----- ------------  ---------------
    13      1.204387  1 Ar pz                10     -1.054548  1 Ar pz         
     7      0.296420  1 Ar pz         

 Vector   11  Occ=0.000000D+00  E= 4.732144D-01
              MO Center= -1.3D-15,  3.3D-15,  2.7D-16, r^2= 2.5D+00
   Bfn.  Coefficient  Atom+Function         Bfn.  Coefficient  Atom+Function  
  ----- ------------  ---------------      ----- ------------  ---------------
    12      1.129186  1 Ar py                 9     -0.988703  1 Ar py         
    11     -0.428563  1 Ar px                 8      0.375245  1 Ar px         
     6      0.277912  1 Ar py         

 Vector   12  Occ=0.000000D+00  E= 4.732144D-01
              MO Center= -3.7D-15, -1.5D-15,  2.6D-16, r^2= 2.5D+00
   Bfn.  Coefficient  Atom+Function         Bfn.  Coefficient  Atom+Function  
  ----- ------------  ---------------      ----- ------------  ---------------
    11      1.127349  1 Ar px                 8     -0.987094  1 Ar px         
    12      0.436088  1 Ar py                 9     -0.381834  1 Ar py         
     5      0.277460  1 Ar px         

 Vector   13  Occ=0.000000D+00  E= 5.658606D-01
              MO Center=  4.6D-15, -1.7D-15, -1.7D-15, r^2= 1.7D+00
   Bfn.  Coefficient  Atom+Function         Bfn.  Coefficient  Atom+Function  
  ----- ------------  ---------------      ----- ------------  ---------------
     4      1.948250  1 Ar s                  3     -1.361618  1 Ar s          
    14     -0.242513  1 Ar dxx               17     -0.242513  1 Ar dyy        
    19     -0.242513  1 Ar dzz        

 Vector   14  Occ=0.000000D+00  E= 9.152768D-01
              MO Center=  2.0D-16,  2.7D-18,  6.1D-17, r^2= 5.8D-01
   Bfn.  Coefficient  Atom+Function         Bfn.  Coefficient  Atom+Function  
  ----- ------------  ---------------      ----- ------------  ---------------
    15      1.512801  1 Ar dxy               14      0.459500  1 Ar dxx        
    18      0.275692  1 Ar dyz               17     -0.232547  1 Ar dyy        
    19     -0.226953  1 Ar dzz        

 Vector   15  Occ=0.000000D+00  E= 9.152768D-01
              MO Center=  2.2D-16, -5.3D-17,  1.2D-16, r^2= 5.8D-01
   Bfn.  Coefficient  Atom+Function         Bfn.  Coefficient  Atom+Function  
  ----- ------------  ---------------      ----- ------------  ---------------
    16      1.517481  1 Ar dxz               14      0.400468  1 Ar dxx        
    15     -0.356245  1 Ar dxy               18     -0.290753  1 Ar dyz        
    19     -0.234444  1 Ar dzz               17     -0.166024  1 Ar dyy        

 Vector   16  Occ=0.000000D+00  E= 9.152768D-01
              MO Center=  3.2D-17, -1.8D-16,  4.6D-17, r^2= 5.8D-01
   Bfn.  Coefficient  Atom+Function         Bfn.  Coefficient  Atom+Function  
  ----- ------------  ---------------      ----- ------------  ---------------
    18      1.596757  1 Ar dyz               15     -0.514774  1 Ar dxy        
    14      0.245513  1 Ar dxx               17     -0.156322  1 Ar dyy        

 Vector   17  Occ=0.000000D+00  E= 9.152768D-01
              MO Center= -1.8D-16, -1.3D-16, -2.9D-16, r^2= 5.8D-01
   Bfn.  Coefficient  Atom+Function         Bfn.  Coefficient  Atom+Function  
  ----- ------------  ---------------      ----- ------------  ---------------
    16      0.824580  1 Ar dxz               14     -0.734371  1 Ar dxx        
    19      0.556822  1 Ar dzz               15      0.551726  1 Ar dxy        
    18      0.503899  1 Ar dyz               17      0.177549  1 Ar dyy        

 Vector   18  Occ=0.000000D+00  E= 9.152768D-01
              MO Center=  3.3D-18, -3.8D-17,  1.4D-17, r^2= 5.8D-01
   Bfn.  Coefficient  Atom+Function         Bfn.  Coefficient  Atom+Function  
  ----- ------------  ---------------      ----- ------------  ---------------
    17      0.928654  1 Ar dyy               19     -0.758632  1 Ar dzz        
    18      0.189501  1 Ar dyz               14     -0.170021  1 Ar dxx        

 Vector   19  Occ=0.000000D+00  E= 4.286703D+00
              MO Center=  3.6D-17, -4.3D-17, -5.0D-17, r^2= 6.6D-01
   Bfn.  Coefficient  Atom+Function         Bfn.  Coefficient  Atom+Function  
  ----- ------------  ---------------      ----- ------------  ---------------
     3      3.819255  1 Ar s                 14     -2.026649  1 Ar dxx        
    17     -2.026649  1 Ar dyy               19     -2.026649  1 Ar dzz        
     4      0.929323  1 Ar s                  2      0.681157  1 Ar s          
     1     -0.197710  1 Ar s          


 Task  times  cpu:        1.4s     wall:        1.4s


                                NWChem Input Module
                                -------------------


  xc_inp: hfexch multiplicative factor not found.

                                 NWChem DFT Module
                                 -----------------


  Caching 1-el integrals 

            General Information
            -------------------
          SCF calculation type: DFT
          Wavefunction type:  closed shell.
          No. of atoms     :     1
          No. of electrons :    18
           Alpha electrons :     9
            Beta electrons :     9
          Charge           :     0
          Spin multiplicity:     1
          Use of symmetry is: off; symmetry adaption is: off
          Maximum number of iterations:  30
          This is a Direct SCF calculation.
          AO basis - number of functions:    19
                     number of shells:     8
          Convergence on energy requested: 1.00D-06
          Convergence on density requested: 1.00D-05
          Convergence on gradient requested: 5.00D-04

              XC Information
              --------------
                     Hartree-Fock (Exact) Exchange  1.000          
            Perdew 1991 LDA Correlation Functional  1.000 local    

             Grid Information
             ----------------
          Grid used for XC integration:  medium    
          Radial quadrature: Mura-Knowles        
          Angular quadrature: Lebedev. 
          Tag              B.-S. Rad. Rad. Pts. Rad. Cut. Ang. Pts.
          ---              ---------- --------- --------- ---------
          Ar                  1.00       88           4.0       590
          Grid pruning is: on 
          Number of quadrature shells:    88
          Spatial weights used:  Erf1

          Convergence Information
          -----------------------
          Convergence aids based upon iterative change in 
          total energy or number of iterations. 
          Levelshifting, if invoked, occurs when the 
          HOMO/LUMO gap drops below (HL_TOL): 1.00D-02
          DIIS, if invoked, will attempt to extrapolate 
          using up to (NFOCK): 10 stored Fock matrices.

                    Damping( 0%)  Levelshifting(0.5)       DIIS
                  --------------- ------------------- ---------------
          dE  on:    start            ASAP                start   
          dE off:    2 iters         30 iters            30 iters 


      Screening Tolerance Information
      -------------------------------
          Density screening/tol_rho: 1.00D-10
          AO Gaussian exp screening on grid/accAOfunc:  14
          CD Gaussian exp screening on grid/accCDfunc:  20
          XC Gaussian exp screening on grid/accXCfunc:  20
          Schwarz screening/accCoul: 1.00D-08


      Superposition of Atomic Density Guess
      -------------------------------------

 Sum of atomic energies:        -526.71772032

      Non-variational initial energy
      ------------------------------

 Total energy =    -526.717720
 1-e energy   =    -727.986939
 2-e energy   =     201.269218
 HOMO         =      -0.592639
 LUMO         =       0.610043

   Time after variat. SCF:      3.8
   Time prior to 1st pass:      3.8

 Grid_pts file          = /home/d3y133/nwchem-dev/nwchem-ref/QA/scratchdir/nwxc_dat.gridpts.0
 Record size in doubles =  12289        No. of grid_pts per rec  =   3070
 Max. records in memory =     20        Max. recs in file   =     31391


           Memory utilization after 1st SCF pass: 
           Heap Space remaining (MW):       12.86            12859027
          Stack Space remaining (MW):       13.11            13107002

   convergence    iter        energy       DeltaE   RMS-Dens  Diis-err    time
 ---------------- ----- ----------------- --------- --------- ---------  ------
 d= 0,ls=0.0,diis     1   -528.1460528723 -5.28D+02  4.62D-03  6.61D-03     3.9
  Resetting Diis
 d= 0,ls=0.0,diis     2   -528.1467135763 -6.61D-04  9.51D-04  3.92D-04     4.1
 d= 0,ls=0.0,diis     3   -528.1467491037 -3.55D-05  4.08D-05  7.38D-07     4.2
 d= 0,ls=0.0,diis     4   -528.1467491605 -5.68D-08  9.34D-06  2.59D-08     4.4


         Total DFT energy =     -528.146749160521
      One electron energy =     -728.507054085674
           Coulomb energy =      231.931555035647
    Exchange-Corr. energy =      -31.571250110494
 Nuclear repulsion energy =        0.000000000000

 Numeric. integr. density =       18.000000110444

     Total iterative time =      0.6s



                       DFT Final Molecular Orbital Analysis
                       ------------------------------------

 Vector    1  Occ=2.000000D+00  E=-1.186931D+02
              MO Center= -9.8D-19, -2.3D-18,  8.1D-19, r^2= 2.8D-03
   Bfn.  Coefficient  Atom+Function         Bfn.  Coefficient  Atom+Function  
  ----- ------------  ---------------      ----- ------------  ---------------
     1      0.996345  1 Ar s          

 Vector    2  Occ=2.000000D+00  E=-1.238200D+01
              MO Center= -9.0D-17, -1.1D-16,  4.2D-17, r^2= 5.6D-02
   Bfn.  Coefficient  Atom+Function         Bfn.  Coefficient  Atom+Function  
  ----- ------------  ---------------      ----- ------------  ---------------
     2      1.052996  1 Ar s                  1     -0.313827  1 Ar s          

 Vector    3  Occ=2.000000D+00  E=-9.638161D+00
              MO Center=  4.6D-17,  2.4D-19, -3.7D-17, r^2= 4.9D-02
   Bfn.  Coefficient  Atom+Function         Bfn.  Coefficient  Atom+Function  
  ----- ------------  ---------------      ----- ------------  ---------------
     7      0.800415  1 Ar pz                 5     -0.485188  1 Ar px         
     6     -0.346863  1 Ar py         

 Vector    4  Occ=2.000000D+00  E=-9.638161D+00
              MO Center=  1.9D-17, -7.8D-18,  2.8D-17, r^2= 4.9D-02
   Bfn.  Coefficient  Atom+Function         Bfn.  Coefficient  Atom+Function  
  ----- ------------  ---------------      ----- ------------  ---------------
     5      0.866991  1 Ar px                 7      0.486343  1 Ar pz         

 Vector    5  Occ=2.000000D+00  E=-9.638161D+00
              MO Center= -1.5D-17,  6.4D-17,  2.9D-17, r^2= 4.9D-02
   Bfn.  Coefficient  Atom+Function         Bfn.  Coefficient  Atom+Function  
  ----- ------------  ---------------      ----- ------------  ---------------
     6      0.931606  1 Ar py                 7      0.345242  1 Ar pz         

 Vector    6  Occ=2.000000D+00  E=-1.332474D+00
              MO Center=  7.0D-17,  7.3D-17, -7.6D-17, r^2= 6.5D-01
   Bfn.  Coefficient  Atom+Function         Bfn.  Coefficient  Atom+Function  
  ----- ------------  ---------------      ----- ------------  ---------------
     3      0.633511  1 Ar s                  4      0.454124  1 Ar s          
     2      0.389452  1 Ar s          

 Vector    7  Occ=2.000000D+00  E=-6.446293D-01
              MO Center=  2.4D-17, -4.6D-17,  6.4D-17, r^2= 9.2D-01
   Bfn.  Coefficient  Atom+Function         Bfn.  Coefficient  Atom+Function  
  ----- ------------  ---------------      ----- ------------  ---------------
     9      0.767955  1 Ar py                12      0.307128  1 Ar py         
     6     -0.295579  1 Ar py                 8      0.204034  1 Ar px         
    10     -0.203447  1 Ar pz         

 Vector    8  Occ=2.000000D+00  E=-6.446293D-01
              MO Center= -1.3D-16, -5.5D-17,  2.0D-16, r^2= 9.2D-01
   Bfn.  Coefficient  Atom+Function         Bfn.  Coefficient  Atom+Function  
  ----- ------------  ---------------      ----- ------------  ---------------
     8      0.629517  1 Ar px                10     -0.442257  1 Ar pz         
     9     -0.284415  1 Ar py                11      0.251762  1 Ar px         
     5     -0.242296  1 Ar px                13     -0.176871  1 Ar pz         
     7      0.170221  1 Ar pz         

 Vector    9  Occ=2.000000D+00  E=-6.446293D-01
              MO Center=  4.4D-17,  1.1D-16,  5.0D-17, r^2= 9.2D-01
   Bfn.  Coefficient  Atom+Function         Bfn.  Coefficient  Atom+Function  
  ----- ------------  ---------------      ----- ------------  ---------------
    10      0.660147  1 Ar pz                 8      0.484617  1 Ar px         
    13      0.264012  1 Ar pz                 7     -0.254085  1 Ar pz         
    11      0.193812  1 Ar px                 5     -0.186525  1 Ar px         

 Vector   10  Occ=0.000000D+00  E= 5.696432D-01
              MO Center= -3.2D-16,  6.9D-16, -1.1D-16, r^2= 2.5D+00
   Bfn.  Coefficient  Atom+Function         Bfn.  Coefficient  Atom+Function  
  ----- ------------  ---------------      ----- ------------  ---------------
    12      1.098491  1 Ar py                 9     -0.958995  1 Ar py         
    11     -0.490962  1 Ar px                 8      0.428615  1 Ar px         
     6      0.265339  1 Ar py                13     -0.154371  1 Ar pz         

 Vector   11  Occ=0.000000D+00  E= 5.696432D-01
              MO Center=  3.3D-16,  2.0D-18, -4.8D-16, r^2= 2.5D+00
   Bfn.  Coefficient  Atom+Function         Bfn.  Coefficient  Atom+Function  
  ----- ------------  ---------------      ----- ------------  ---------------
    13      1.039948  1 Ar pz                10     -0.907886  1 Ar pz         
    11     -0.611472  1 Ar px                 8      0.533822  1 Ar px         
     7      0.251198  1 Ar pz         

 Vector   12  Occ=0.000000D+00  E= 5.696432D-01
              MO Center= -2.0D-16, -8.2D-17, -1.7D-16, r^2= 2.5D+00
   Bfn.  Coefficient  Atom+Function         Bfn.  Coefficient  Atom+Function  
  ----- ------------  ---------------      ----- ------------  ---------------
    11      0.925535  1 Ar px                 8     -0.808002  1 Ar px         
    13      0.605173  1 Ar pz                10     -0.528323  1 Ar pz         
    12      0.498705  1 Ar py                 9     -0.435375  1 Ar py         
     5      0.223562  1 Ar px         

 Vector   13  Occ=0.000000D+00  E= 6.873421D-01
              MO Center=  1.7D-16, -6.5D-16,  6.4D-16, r^2= 1.7D+00
   Bfn.  Coefficient  Atom+Function         Bfn.  Coefficient  Atom+Function  
  ----- ------------  ---------------      ----- ------------  ---------------
     4      1.968755  1 Ar s                  3     -1.279818  1 Ar s          
    14     -0.284461  1 Ar dxx               17     -0.284461  1 Ar dyy        
    19     -0.284461  1 Ar dzz        

 Vector   14  Occ=0.000000D+00  E= 1.159413D+00
              MO Center=  2.6D-17,  9.7D-17,  1.8D-16, r^2= 5.8D-01
   Bfn.  Coefficient  Atom+Function         Bfn.  Coefficient  Atom+Function  
  ----- ------------  ---------------      ----- ------------  ---------------
    18      1.715101  1 Ar dyz               15      0.201874  1 Ar dxy        

 Vector   15  Occ=0.000000D+00  E= 1.159413D+00
              MO Center= -2.8D-17, -1.8D-17,  2.3D-16, r^2= 5.8D-01
   Bfn.  Coefficient  Atom+Function         Bfn.  Coefficient  Atom+Function  
  ----- ------------  ---------------      ----- ------------  ---------------
    16      1.713258  1 Ar dxz        

 Vector   16  Occ=0.000000D+00  E= 1.159413D+00
              MO Center=  1.3D-16, -2.4D-18,  3.2D-17, r^2= 5.8D-01
   Bfn.  Coefficient  Atom+Function         Bfn.  Coefficient  Atom+Function  
  ----- ------------  ---------------      ----- ------------  ---------------
    15      1.513664  1 Ar dxy               14      0.405616  1 Ar dxx        
    19     -0.396570  1 Ar dzz               16      0.198455  1 Ar dxz        
    18     -0.160275  1 Ar dyz        

 Vector   17  Occ=0.000000D+00  E= 1.159413D+00
              MO Center=  5.4D-17, -6.7D-17,  4.3D-18, r^2= 5.8D-01
   Bfn.  Coefficient  Atom+Function         Bfn.  Coefficient  Atom+Function  
  ----- ------------  ---------------      ----- ------------  ---------------
    14      0.905110  1 Ar dxx               15     -0.716027  1 Ar dxy        
    17     -0.478961  1 Ar dyy               19     -0.426150  1 Ar dzz        

 Vector   18  Occ=0.000000D+00  E= 1.159413D+00
              MO Center=  1.7D-17, -8.7D-17,  3.3D-17, r^2= 5.8D-01
   Bfn.  Coefficient  Atom+Function         Bfn.  Coefficient  Atom+Function  
  ----- ------------  ---------------      ----- ------------  ---------------
    17      0.877183  1 Ar dyy               19     -0.808901  1 Ar dzz        
    15     -0.367990  1 Ar dxy        

 Vector   19  Occ=0.000000D+00  E= 4.630591D+00
              MO Center= -2.0D-17,  9.2D-18, -6.9D-18, r^2= 6.3D-01
   Bfn.  Coefficient  Atom+Function         Bfn.  Coefficient  Atom+Function  
  ----- ------------  ---------------      ----- ------------  ---------------
     3      3.847182  1 Ar s                 14     -2.021059  1 Ar dxx        
    17     -2.021059  1 Ar dyy               19     -2.021059  1 Ar dzz        
     4      0.889398  1 Ar s                  2      0.673450  1 Ar s          
     1     -0.196217  1 Ar s          


 Task  times  cpu:        0.7s     wall:        0.7s


                                NWChem Input Module
                                -------------------


  xc_inp: hfexch multiplicative factor not found.
  pbe96 is a nonlocal functional; adding pw91lda local functional. 

                                 NWChem DFT Module
                                 -----------------


  Caching 1-el integrals 

            General Information
            -------------------
          SCF calculation type: DFT
          Wavefunction type:  closed shell.
          No. of atoms     :     1
          No. of electrons :    18
           Alpha electrons :     9
            Beta electrons :     9
          Charge           :     0
          Spin multiplicity:     1
          Use of symmetry is: off; symmetry adaption is: off
          Maximum number of iterations:  30
          This is a Direct SCF calculation.
          AO basis - number of functions:    19
                     number of shells:     8
          Convergence on energy requested: 1.00D-06
          Convergence on density requested: 1.00D-05
          Convergence on gradient requested: 5.00D-04

              XC Information
              --------------
                     Hartree-Fock (Exact) Exchange  1.000          
            Perdew 1991 LDA Correlation Functional  1.000 local    
           PerdewBurkeErnz. Correlation Functional  1.000 non-local

             Grid Information
             ----------------
          Grid used for XC integration:  medium    
          Radial quadrature: Mura-Knowles        
          Angular quadrature: Lebedev. 
          Tag              B.-S. Rad. Rad. Pts. Rad. Cut. Ang. Pts.
          ---              ---------- --------- --------- ---------
          Ar                  1.00       88           4.0       590
          Grid pruning is: on 
          Number of quadrature shells:    88
          Spatial weights used:  Erf1

          Convergence Information
          -----------------------
          Convergence aids based upon iterative change in 
          total energy or number of iterations. 
          Levelshifting, if invoked, occurs when the 
          HOMO/LUMO gap drops below (HL_TOL): 1.00D-02
          DIIS, if invoked, will attempt to extrapolate 
          using up to (NFOCK): 10 stored Fock matrices.

                    Damping( 0%)  Levelshifting(0.5)       DIIS
                  --------------- ------------------- ---------------
          dE  on:    start            ASAP                start   
          dE off:    2 iters         30 iters            30 iters 


      Screening Tolerance Information
      -------------------------------
          Density screening/tol_rho: 1.00D-10
          AO Gaussian exp screening on grid/accAOfunc:  14
          CD Gaussian exp screening on grid/accCDfunc:  20
          XC Gaussian exp screening on grid/accXCfunc:  20
          Schwarz screening/accCoul: 1.00D-08


      Superposition of Atomic Density Guess
      -------------------------------------

 Sum of atomic energies:        -526.71772032

      Non-variational initial energy
      ------------------------------

 Total energy =    -526.717720
 1-e energy   =    -727.986939
 2-e energy   =     201.269218
 HOMO         =      -0.592639
 LUMO         =       0.610043

   Time after variat. SCF:      4.5
   Time prior to 1st pass:      4.5

 Grid_pts file          = /home/d3y133/nwchem-dev/nwchem-ref/QA/scratchdir/nwxc_dat.gridpts.0
 Record size in doubles =  12289        No. of grid_pts per rec  =   3070
 Max. records in memory =     20        Max. recs in file   =     31391


           Memory utilization after 1st SCF pass: 
           Heap Space remaining (MW):       12.86            12859027
          Stack Space remaining (MW):       13.11            13107002

   convergence    iter        energy       DeltaE   RMS-Dens  Diis-err    time
 ---------------- ----- ----------------- --------- --------- ---------  ------
 d= 0,ls=0.0,diis     1   -527.4266037219 -5.27D+02  3.66D-03  5.71D-03     4.7
  Resetting Diis
 d= 0,ls=0.0,diis     2   -527.4270915435 -4.88D-04  7.92D-04  2.54D-04     5.0
 d= 0,ls=0.0,diis     3   -527.4271101224 -1.86D-05  9.21D-05  2.54D-06     5.2
 d= 0,ls=0.0,diis     4   -527.4271104398 -3.17D-07  2.05D-05  1.78D-07     5.5
 d= 0,ls=0.0,diis     5   -527.4271104535 -1.37D-08  4.04D-06  3.42D-09     5.7


         Total DFT energy =     -527.427110453525
      One electron energy =     -728.411087707293
           Coulomb energy =      231.828097857668
    Exchange-Corr. energy =      -30.844120603900
 Nuclear repulsion energy =        0.000000000000

 Numeric. integr. density =       18.000000111347

     Total iterative time =      1.3s



                       DFT Final Molecular Orbital Analysis
                       ------------------------------------

 Vector    1  Occ=2.000000D+00  E=-1.186014D+02
              MO Center=  3.1D-18,  2.4D-18, -6.7D-19, r^2= 2.8D-03
   Bfn.  Coefficient  Atom+Function         Bfn.  Coefficient  Atom+Function  
  ----- ------------  ---------------      ----- ------------  ---------------
     1      0.996315  1 Ar s          

 Vector    2  Occ=2.000000D+00  E=-1.235448D+01
              MO Center= -1.2D-18,  1.7D-17,  3.3D-17, r^2= 5.6D-02
   Bfn.  Coefficient  Atom+Function         Bfn.  Coefficient  Atom+Function  
  ----- ------------  ---------------      ----- ------------  ---------------
     2      1.053073  1 Ar s                  1     -0.313920  1 Ar s          

 Vector    3  Occ=2.000000D+00  E=-9.604785D+00
              MO Center=  7.3D-18,  6.9D-18, -5.0D-18, r^2= 4.9D-02
   Bfn.  Coefficient  Atom+Function         Bfn.  Coefficient  Atom+Function  
  ----- ------------  ---------------      ----- ------------  ---------------
     5      0.996715  1 Ar px         

 Vector    4  Occ=2.000000D+00  E=-9.604785D+00
              MO Center= -3.7D-17, -1.4D-18, -4.1D-17, r^2= 4.9D-02
   Bfn.  Coefficient  Atom+Function         Bfn.  Coefficient  Atom+Function  
  ----- ------------  ---------------      ----- ------------  ---------------
     6      0.948217  1 Ar py                 7      0.309361  1 Ar pz         

 Vector    5  Occ=2.000000D+00  E=-9.604785D+00
              MO Center=  1.6D-17,  8.9D-18, -4.4D-17, r^2= 4.9D-02
   Bfn.  Coefficient  Atom+Function         Bfn.  Coefficient  Atom+Function  
  ----- ------------  ---------------      ----- ------------  ---------------
     7      0.948623  1 Ar pz                 6     -0.308058  1 Ar py         

 Vector    6  Occ=2.000000D+00  E=-1.319776D+00
              MO Center=  1.2D-16, -1.6D-16,  1.9D-17, r^2= 6.6D-01
   Bfn.  Coefficient  Atom+Function         Bfn.  Coefficient  Atom+Function  
  ----- ------------  ---------------      ----- ------------  ---------------
[...]
     7      0.281430  1 Ar pz         

 Vector   12  Occ=0.000000D+00  E= 4.200291D-01
              MO Center= -1.8D-16, -1.2D-15, -6.9D-17, r^2= 2.5D+00
   Bfn.  Coefficient  Atom+Function         Bfn.  Coefficient  Atom+Function  
  ----- ------------  ---------------      ----- ------------  ---------------
    12      1.198495  1 Ar py                 9     -1.059611  1 Ar py         
     6      0.298378  1 Ar py                11      0.153087  1 Ar px         

 Vector   13  Occ=0.000000D+00  E= 5.314801D-01
              MO Center=  3.3D-15,  9.1D-16, -6.6D-16, r^2= 1.7D+00
   Bfn.  Coefficient  Atom+Function         Bfn.  Coefficient  Atom+Function  
  ----- ------------  ---------------      ----- ------------  ---------------
     4      1.958109  1 Ar s                  3     -1.328866  1 Ar s          
    14     -0.257633  1 Ar dxx               17     -0.257633  1 Ar dyy        
    19     -0.257633  1 Ar dzz        

 Vector   14  Occ=0.000000D+00  E= 8.940428D-01
              MO Center=  1.7D-16, -1.2D-16,  1.2D-16, r^2= 5.8D-01
   Bfn.  Coefficient  Atom+Function         Bfn.  Coefficient  Atom+Function  
  ----- ------------  ---------------      ----- ------------  ---------------
    16      1.292508  1 Ar dxz               15     -1.113478  1 Ar dxy        
    18     -0.289409  1 Ar dyz        

 Vector   15  Occ=0.000000D+00  E= 8.940428D-01
              MO Center= -2.4D-16,  1.5D-16,  1.3D-16, r^2= 5.8D-01
   Bfn.  Coefficient  Atom+Function         Bfn.  Coefficient  Atom+Function  
  ----- ------------  ---------------      ----- ------------  ---------------
    15      1.313263  1 Ar dxy               16      1.128054  1 Ar dxz        

 Vector   16  Occ=0.000000D+00  E= 8.940428D-01
              MO Center= -2.2D-18, -4.9D-17, -6.4D-17, r^2= 5.8D-01
   Bfn.  Coefficient  Atom+Function         Bfn.  Coefficient  Atom+Function  
  ----- ------------  ---------------      ----- ------------  ---------------
    18      1.705899  1 Ar dyz               16      0.234795  1 Ar dxz        
    15     -0.169831  1 Ar dxy        

 Vector   17  Occ=0.000000D+00  E= 8.940428D-01
              MO Center=  9.4D-17, -5.1D-17, -6.1D-17, r^2= 5.8D-01
   Bfn.  Coefficient  Atom+Function         Bfn.  Coefficient  Atom+Function  
  ----- ------------  ---------------      ----- ------------  ---------------
    19      0.979586  1 Ar dzz               17     -0.657090  1 Ar dyy        
    14     -0.322495  1 Ar dxx        

 Vector   18  Occ=0.000000D+00  E= 8.940428D-01
              MO Center= -1.3D-16, -2.5D-17, -1.3D-17, r^2= 5.8D-01
   Bfn.  Coefficient  Atom+Function         Bfn.  Coefficient  Atom+Function  
  ----- ------------  ---------------      ----- ------------  ---------------
    14      0.945615  1 Ar dxx               17     -0.752370  1 Ar dyy        
    19     -0.193244  1 Ar dzz        

 Vector   19  Occ=0.000000D+00  E= 4.185191D+00
              MO Center= -1.0D-16, -1.4D-17,  4.2D-17, r^2= 6.5D-01
   Bfn.  Coefficient  Atom+Function         Bfn.  Coefficient  Atom+Function  
  ----- ------------  ---------------      ----- ------------  ---------------
     3      3.828602  1 Ar s                 14     -2.024777  1 Ar dxx        
    17     -2.024777  1 Ar dyy               19     -2.024777  1 Ar dzz        
     4      0.914219  1 Ar s                  2      0.679636  1 Ar s          
     1     -0.197410  1 Ar s          


 Task  times  cpu:        1.2s     wall:        1.2s


                                NWChem Input Module
                                -------------------



                                 NWChem DFT Module
                                 -----------------


  int_init: cando_txs set to always be  F
  Caching 1-el integrals 

            General Information
            -------------------
          SCF calculation type: DFT
          Wavefunction type:  closed shell.
          No. of atoms     :     1
          No. of electrons :    18
           Alpha electrons :     9
            Beta electrons :     9
          Charge           :     0
          Spin multiplicity:     1
          Use of symmetry is: off; symmetry adaption is: off
          Maximum number of iterations:  30
          This is a Direct SCF calculation.
          AO basis - number of functions:    19
                     number of shells:     8
          Convergence on energy requested: 1.00D-06
          Convergence on density requested: 1.00D-05
          Convergence on gradient requested: 5.00D-04

              XC Information
              --------------
                        HSE03 Method XC Functional
                     Hartree-Fock (Exact) Exchange  0.250          
          PerdewBurkeErnzerhof Exchange Functional  1.000          
                     CAM-PBE96 Exchange Functional -0.250          
            Perdew 1991 LDA Correlation Functional  1.000 local    
           PerdewBurkeErnz. Correlation Functional  1.000 non-local

           Range-Separation Parameters        
           ---------------------------
           Alpha           :  0.00
           Beta            :  1.00
           Gamma           :  0.33
           Short-Range HF  :     T

             Grid Information
             ----------------
          Grid used for XC integration:  medium    
          Radial quadrature: Mura-Knowles        
          Angular quadrature: Lebedev. 
          Tag              B.-S. Rad. Rad. Pts. Rad. Cut. Ang. Pts.
          ---              ---------- --------- --------- ---------
          Ar                  1.00       88           4.0       590
          Grid pruning is: on 
          Number of quadrature shells:    88
          Spatial weights used:  Erf1

          Convergence Information
          -----------------------
          Convergence aids based upon iterative change in 
          total energy or number of iterations. 
          Levelshifting, if invoked, occurs when the 
          HOMO/LUMO gap drops below (HL_TOL): 1.00D-02
          DIIS, if invoked, will attempt to extrapolate 
          using up to (NFOCK): 10 stored Fock matrices.

                    Damping( 0%)  Levelshifting(0.5)       DIIS
                  --------------- ------------------- ---------------
          dE  on:    start            ASAP                start   
          dE off:    2 iters         30 iters            30 iters 


      Screening Tolerance Information
      -------------------------------
          Density screening/tol_rho: 1.00D-10
          AO Gaussian exp screening on grid/accAOfunc:  14
          CD Gaussian exp screening on grid/accCDfunc:  20
          XC Gaussian exp screening on grid/accXCfunc:  20
          Schwarz screening/accCoul: 1.00D-08


      Superposition of Atomic Density Guess
      -------------------------------------

 Sum of atomic energies:        -526.71772032

      Non-variational initial energy
      ------------------------------

 Total energy =    -526.717720
 1-e energy   =    -727.986939
 2-e energy   =     201.269218
 HOMO         =      -0.592639
 LUMO         =       0.610043

   Time after variat. SCF:      9.7
   Time prior to 1st pass:      9.7

 Grid_pts file          = /home/d3y133/nwchem-dev/nwchem-ref/QA/scratchdir/nwxc_dat.gridpts.0
 Record size in doubles =  12289        No. of grid_pts per rec  =   3070
 Max. records in memory =     20        Max. recs in file   =     31391


           Memory utilization after 1st SCF pass: 
           Heap Space remaining (MW):       12.86            12860867
          Stack Space remaining (MW):       13.11            13107002

   convergence    iter        energy       DeltaE   RMS-Dens  Diis-err    time
 ---------------- ----- ----------------- --------- --------- ---------  ------
 d= 0,ls=0.0,diis     1   -527.3540152539 -5.27D+02  5.24D-03  9.40D-02     9.9
  Resetting Diis
 d= 0,ls=0.0,diis     2   -527.3557215180 -1.71D-03  2.54D-03  7.10D-04    10.2
 d= 0,ls=0.0,diis     3   -527.3557695983 -4.81D-05  2.01D-03  4.58D-04    10.4
 d= 0,ls=0.0,diis     4   -527.3557898169 -2.02D-05  8.99D-04  3.02D-04    10.6
 d= 0,ls=0.0,diis     5   -527.3558282735 -3.85D-05  1.68D-06  9.26D-10    10.9
 d= 0,ls=0.0,diis     6   -527.3558282736 -1.37D-10  2.69D-08  2.92D-13    11.1


         Total DFT energy =     -527.355828273590
      One electron energy =     -728.198491990376
           Coulomb energy =      231.581216041658
    Exchange-Corr. energy =      -30.738552324873
 Nuclear repulsion energy =        0.000000000000

 Numeric. integr. density =       18.000000114137

     Total iterative time =      1.4s



                       DFT Final Molecular Orbital Analysis
                       ------------------------------------

 Vector    1  Occ=2.000000D+00  E=-1.152538D+02
              MO Center=  1.9D-18, -2.6D-18, -1.6D-18, r^2= 2.8D-03
   Bfn.  Coefficient  Atom+Function         Bfn.  Coefficient  Atom+Function  
  ----- ------------  ---------------      ----- ------------  ---------------
     1      0.996266  1 Ar s          

 Vector    2  Occ=2.000000D+00  E=-1.116535D+01
              MO Center= -1.2D-16,  2.9D-18, -1.2D-17, r^2= 5.7D-02
   Bfn.  Coefficient  Atom+Function         Bfn.  Coefficient  Atom+Function  
  ----- ------------  ---------------      ----- ------------  ---------------
     2      1.047317  1 Ar s                  1     -0.311820  1 Ar s          

 Vector    3  Occ=2.000000D+00  E=-8.692571D+00
              MO Center=  1.2D-16, -5.8D-18,  3.0D-17, r^2= 5.0D-02
   Bfn.  Coefficient  Atom+Function         Bfn.  Coefficient  Atom+Function  
  ----- ------------  ---------------      ----- ------------  ---------------
     5      0.939626  1 Ar px                 7      0.326918  1 Ar pz         

 Vector    4  Occ=2.000000D+00  E=-8.692571D+00
              MO Center=  1.6D-17, -4.0D-18, -1.8D-17, r^2= 5.0D-02
   Bfn.  Coefficient  Atom+Function         Bfn.  Coefficient  Atom+Function  
  ----- ------------  ---------------      ----- ------------  ---------------
     6      0.863454  1 Ar py                 7      0.480721  1 Ar pz         

 Vector    5  Occ=2.000000D+00  E=-8.692571D+00
              MO Center=  1.2D-17, -8.0D-18, -1.4D-17, r^2= 5.0D-02
   Bfn.  Coefficient  Atom+Function         Bfn.  Coefficient  Atom+Function  
  ----- ------------  ---------------      ----- ------------  ---------------
     7      0.808721  1 Ar pz                 6     -0.494185  1 Ar py         
     5     -0.306186  1 Ar px         

 Vector    6  Occ=2.000000D+00  E=-9.447512D-01
              MO Center=  4.6D-17, -4.7D-17,  1.4D-16, r^2= 6.5D-01
   Bfn.  Coefficient  Atom+Function         Bfn.  Coefficient  Atom+Function  
  ----- ------------  ---------------      ----- ------------  ---------------
     3      0.643340  1 Ar s                  4      0.446604  1 Ar s          
     2      0.396176  1 Ar s          

 Vector    7  Occ=2.000000D+00  E=-4.015927D-01
              MO Center= -1.1D-16,  4.2D-17,  6.2D-17, r^2= 9.3D-01
   Bfn.  Coefficient  Atom+Function         Bfn.  Coefficient  Atom+Function  
  ----- ------------  ---------------      ----- ------------  ---------------
     8      0.655361  1 Ar px                 9     -0.485119  1 Ar py         
    11      0.268035  1 Ar px                 5     -0.255914  1 Ar px         
    12     -0.198408  1 Ar py                 6      0.189436  1 Ar py         

 Vector    8  Occ=2.000000D+00  E=-4.015927D-01
              MO Center= -1.0D-16, -3.5D-17, -3.3D-17, r^2= 9.3D-01
   Bfn.  Coefficient  Atom+Function         Bfn.  Coefficient  Atom+Function  
  ----- ------------  ---------------      ----- ------------  ---------------
     9      0.641748  1 Ar py                 8      0.472977  1 Ar px         
    12      0.262467  1 Ar py                 6     -0.250598  1 Ar py         
    11      0.193442  1 Ar px                 5     -0.184694  1 Ar px         
    10     -0.171328  1 Ar pz         

 Vector    9  Occ=2.000000D+00  E=-4.015927D-01
              MO Center=  3.5D-17, -4.0D-17, -1.7D-16, r^2= 9.3D-01
   Bfn.  Coefficient  Atom+Function         Bfn.  Coefficient  Atom+Function  
  ----- ------------  ---------------      ----- ------------  ---------------
    10      0.797173  1 Ar pz                13      0.326035  1 Ar pz         
     7     -0.311291  1 Ar pz         

 Vector   10  Occ=0.000000D+00  E= 4.131423D-01
              MO Center=  2.7D-15, -2.0D-16, -5.5D-17, r^2= 2.5D+00
   Bfn.  Coefficient  Atom+Function         Bfn.  Coefficient  Atom+Function  
  ----- ------------  ---------------      ----- ------------  ---------------
    11      1.210239  1 Ar px                 8     -1.061508  1 Ar px         
     5      0.297203  1 Ar px         

 Vector   11  Occ=0.000000D+00  E= 4.131423D-01
              MO Center=  1.6D-16,  1.4D-15, -6.1D-16, r^2= 2.5D+00
   Bfn.  Coefficient  Atom+Function         Bfn.  Coefficient  Atom+Function  
  ----- ------------  ---------------      ----- ------------  ---------------
    12      1.109585  1 Ar py                 9     -0.973223  1 Ar py         
    13     -0.484137  1 Ar pz                10      0.424639  1 Ar pz         
     6      0.272485  1 Ar py         

 Vector   12  Occ=0.000000D+00  E= 4.131423D-01
              MO Center=  5.6D-17, -1.5D-16, -4.8D-16, r^2= 2.5D+00
   Bfn.  Coefficient  Atom+Function         Bfn.  Coefficient  Atom+Function  
  ----- ------------  ---------------      ----- ------------  ---------------
    13      1.110628  1 Ar pz                10     -0.974139  1 Ar pz         
    12      0.483282  1 Ar py                 9     -0.423889  1 Ar py         
     7      0.272741  1 Ar pz         

 Vector   13  Occ=0.000000D+00  E= 5.145020D-01
              MO Center= -2.8D-15, -9.5D-16,  8.3D-16, r^2= 1.7D+00
   Bfn.  Coefficient  Atom+Function         Bfn.  Coefficient  Atom+Function  
  ----- ------------  ---------------      ----- ------------  ---------------
     4      1.960905  1 Ar s                  3     -1.318952  1 Ar s          
    14     -0.262361  1 Ar dxx               17     -0.262361  1 Ar dyy        
    19     -0.262361  1 Ar dzz        

 Vector   14  Occ=0.000000D+00  E= 8.914216D-01
              MO Center=  6.9D-17, -1.4D-17,  5.7D-17, r^2= 5.8D-01
   Bfn.  Coefficient  Atom+Function         Bfn.  Coefficient  Atom+Function  
  ----- ------------  ---------------      ----- ------------  ---------------
    19      0.956131  1 Ar dzz               14     -0.728951  1 Ar dxx        
    17     -0.227179  1 Ar dyy        

 Vector   15  Occ=0.000000D+00  E= 8.914216D-01
              MO Center=  1.2D-16,  1.4D-16, -1.2D-17, r^2= 5.8D-01
   Bfn.  Coefficient  Atom+Function         Bfn.  Coefficient  Atom+Function  
  ----- ------------  ---------------      ----- ------------  ---------------
    15      1.724811  1 Ar dxy               16     -0.154364  1 Ar dxz        

 Vector   16  Occ=0.000000D+00  E= 8.914216D-01
              MO Center= -1.6D-16,  2.5D-17,  1.0D-16, r^2= 5.8D-01
   Bfn.  Coefficient  Atom+Function         Bfn.  Coefficient  Atom+Function  
  ----- ------------  ---------------      ----- ------------  ---------------
    16      1.710128  1 Ar dxz               18     -0.214382  1 Ar dyz        
    15      0.151374  1 Ar dxy        

 Vector   17  Occ=0.000000D+00  E= 8.914216D-01
              MO Center=  6.6D-18, -1.1D-16, -2.2D-16, r^2= 5.8D-01
   Bfn.  Coefficient  Atom+Function         Bfn.  Coefficient  Atom+Function  
  ----- ------------  ---------------      ----- ------------  ---------------
    18      1.603174  1 Ar dyz               17      0.358531  1 Ar dyy        
    14     -0.234224  1 Ar dxx               16      0.177107  1 Ar dxz        

 Vector   18  Occ=0.000000D+00  E= 8.914216D-01
              MO Center=  1.3D-16, -6.6D-17,  7.2D-17, r^2= 5.8D-01
   Bfn.  Coefficient  Atom+Function         Bfn.  Coefficient  Atom+Function  
  ----- ------------  ---------------      ----- ------------  ---------------
    17      0.904612  1 Ar dyy               14     -0.643023  1 Ar dxx        
    18     -0.618609  1 Ar dyz               19     -0.261589  1 Ar dzz        

 Vector   19  Occ=0.000000D+00  E= 4.229519D+00
              MO Center=  7.9D-17,  3.7D-17,  1.1D-16, r^2= 6.5D-01
   Bfn.  Coefficient  Atom+Function         Bfn.  Coefficient  Atom+Function  
  ----- ------------  ---------------      ----- ------------  ---------------
     3      3.832596  1 Ar s                 14     -2.024137  1 Ar dxx        
    17     -2.024137  1 Ar dyy               19     -2.024137  1 Ar dzz        
     4      0.910298  1 Ar s                  2      0.678448  1 Ar s          
     1     -0.197180  1 Ar s          


 Task  times  cpu:        1.5s     wall:        1.5s
 Summary of allocated global arrays
-----------------------------------
  No active global arrays



                         GA Statistics for process    0
                         ------------------------------

       create   destroy   get      put      acc     scatter   gather  read&inc
calls: 1210     1210     8858     5050     2888        0        0        0     
number of processes/call 1.00e+00 1.00e+00 1.00e+00 0.00e+00 0.00e+00
bytes total:             1.31e+07 3.07e+06 8.34e+06 0.00e+00 0.00e+00 0.00e+00
bytes remote:            0.00e+00 0.00e+00 0.00e+00 0.00e+00 0.00e+00 0.00e+00
Max memory consumed for GA by this process: 112632 bytes
MA_summarize_allocated_blocks: starting scan ...
MA_summarize_allocated_blocks: scan completed: 0 heap blocks, 0 stack blocks
MA usage statistics:

	allocation statistics:
					      heap	     stack
					      ----	     -----
	current number of blocks	         0	         0
	maximum number of blocks	        23	        48
	current total bytes		         0	         0
	maximum total bytes		   3033696	  22510152
	maximum total K-bytes		      3034	     22511
	maximum total M-bytes		         4	        23


                                NWChem Input Module
                                -------------------





                                     CITATION
                                     --------
                Please cite the following reference when publishing
                           results obtained with NWChem:

                 M. Valiev, E.J. Bylaska, N. Govind, K. Kowalski,
              T.P. Straatsma, H.J.J. van Dam, D. Wang, J. Nieplocha,
                        E. Apra, T.L. Windus, W.A. de Jong
                 "NWChem: a comprehensive and scalable open-source
                  solution for large scale molecular simulations"
                      Comput. Phys. Commun. 181, 1477 (2010)
                           doi:10.1016/j.cpc.2010.04.018

                              AUTHORS & CONTRIBUTORS
                              ----------------------
          E. Apra, E. J. Bylaska, W. A. de Jong, N. Govind, K. Kowalski,
       T. P. Straatsma, M. Valiev, H. J. J. van Dam, D. Wang, T. L. Windus,
    J. Hammond, J. Autschbach, F. Aquino, S. Hirata, M. T. Hackler, K. Lopata,
      J. Mullin, P. Nichols, R. Peverati, Y. Zhao, P.-D. Fan, R. J. Harrison,
        M. Dupuis, D. M. A. Smith, J. Nieplocha, V. Tipparaju, M. Krishnan,
       B. E. Van Kuiken, A. Vazquez-Mayagoitia, L. Jensen, M. Swart, Q. Wu,
   T. Van Voorhis, A. A. Auer, M. Nooijen, L. D. Crosby, E. Brown, G. Cisneros,
      G. I. Fann, H. Fruchtl, J. Garza, K. Hirao, R. Kendall, J. A. Nichols,
        K. Tsemekhman, K. Wolinski, J. Anchell, D. Bernholdt, P. Borowski,
  T. Clark, D. Clerc, H. Dachsel, M. Deegan, K. Dyall, D. Elwood, E. Glendening,
         M. Gutowski, A. Hess, J. Jaffe, B. Johnson, J. Ju, R. Kobayashi,
     R. Kutteh, Z. Lin, R. Littlefield, X. Long, B. Meng, T. Nakajima, S. Niu,
      L. Pollack, M. Rosing, K. Glaesemann, G. Sandrone, M. Stave, H. Taylor,
                  G. Thomas, J. H. van Lenthe, A. Wong, Z. Zhang.

 Total times  cpu:       11.1s     wall:       11.5s
