 argument  1 = pspw.nw
                                         
                                         


              Northwest Computational Chemistry Package (NWChem) 4.0
              ------------------------------------------------------


                    Environmental Molecular Sciences Laboratory
                       Pacific Northwest National Laboratory
                                Richland, WA 99352

                                         
                                         


                COPYRIGHT (C) 1994, 1995, 1996, 1997, 1998, 1999, 2000
                        Pacific Northwest National Laboratory,
                             Battelle Memorial Institute.

                            >>> All Rights Reserved <<<


                                    DISCLAIMER
                                    ----------

            This material was prepared as an account of work sponsored
            by an agency of the United States Government.  Neither the
            United States Government nor the United States Department
            of Energy, nor Battelle, nor any of their employees, MAKES
            ANY WARRANTY, EXPRESS OR IMPLIED, OR ASSUMES ANY LEGAL
            LIABILITY OR RESPONSIBILITY FOR THE ACCURACY, COMPLETENESS,
            OR USEFULNESS OF ANY INFORMATION, APPARATUS, PRODUCT,
            SOFTWARE, OR PROCESS DISCLOSED, OR REPRESENTS THAT ITS USE
            WOULD NOT INFRINGE PRIVATELY OWNED RIGHTS.


                                    LIMITED USE
                                    -----------

            This software (including any documentation) is being made
            available to you for your internal use only, solely for use
            in performance of work directly for the U.S. Federal
            Government or work under contracts with the U.S. Department
            of Energy or other U.S. Federal Government agencies.  This
            software is a version which has not yet been evaluated and
            cleared for commercialization.  Adherence to this notice
            may be necessary for the author, Battelle Memorial
            Institute, to successfully assert copyright in and
            commercialize this software. This software is not intended
            for duplication or distribution to third parties without
            the permission of the Manager of Software Products at
            Pacific Northwest National Laboratory, Richland,
            Washington, 99352.


                                  ACKNOWLEDGMENT
                                  --------------

            This software and its documentation were produced with
            Government support under Contract Number DE-AC06-76RLO-1830
            awarded by the United States Department of Energy.  The
            Government retains a paid-up non-exclusive, irrevocable
            worldwide license to reproduce, prepare derivative works,
            perform publicly and display publicly by or for the
            Government, including the right to distribute to other
            Government contractors.


           Job information
           ---------------

    hostname      = pspw.emsl.pnl.gov
    program       = nwchem
    date          = Fri Oct 27 12:30:51 2000

    compiled      = Fri Oct 27 11:42:05 PDT 2000
    source        = /home/bylaska/nwchem
    nwchem branch = Development
    input         = pspw.nw
    prefix        = Si2.
    data base     = ./Si2.db
    status        = startup
    nproc         =    1
    time left     =     -1s



           Memory information
           ------------------

    heap      =    9502714 doubles =     76.0 Mbytes
    stack     =    2293747 doubles =     18.3 Mbytes
    global    =   11796484 doubles =     94.4 Mbytes (within heap+stack)
    total     =   11796461 doubles =     94.4 Mbytes
    verify    = yes
    hardfail  = no 


           Directory information
           ---------------------

  0 permanent = .
  0 scratch   = .




                                NWChem Input Module
                                -------------------


                                       Si2
                                       ---


 Scaling coordinates for geometry "geometry" by  1.889725989
 (inverse scale =  0.529177249)


          ------
          auto-z
          ------


                             Geometry "geometry" -> ""
                             -------------------------

 Output coordinates in angstroms (scale by  1.889725989 to convert to a.u.)

  No.       Tag          Charge          X              Y              Z
 ---- ---------------- ---------- -------------- -------------- --------------
    1 Si                  14.0000     1.12300000     0.00000000     0.00000000
    2 Si                  14.0000    -1.12300000     0.00000000     0.00000000

      Atomic Mass 
      ----------- 

      Si                27.976930


 Effective nuclear repulsion energy (a.u.)      46.1793146945

            Nuclear Dipole moment (a.u.) 
            ----------------------------
        X                 Y               Z
 ---------------- ---------------- ----------------
     0.0000000000     0.0000000000     0.0000000000



                                Z-matrix (autoz)
                                -------- 

 Units are Angstrom for bonds and degrees for angles

      Type          Name      I     J     K     L     M      Value
      ----------- --------  ----- ----- ----- ----- ----- ----------
    1 Stretch                  1     2                       2.24600

 ==============================================================================
                                internuclear distances
 ------------------------------------------------------------------------------
       center one      |      center two      | atomic units |  angstroms
 ------------------------------------------------------------------------------
    2 Si               |   1 Si               |     4.24432  |     2.24600
 ------------------------------------------------------------------------------
                         number of included internuclear distances:          1
 ==============================================================================



 >>>> PSPW Serial Module - 1d pseudopotential solver <<<<
All electron atom solver

Atom name: Si
Zcharge  : 1.400000e+01
Amass    : 2.800000e+01
Ncore    : 3
Nvalence : 2
         : restricted calculation

------ Solver information ------
solver type      : Pauli
hartree type     : On
exchange type    : PBE96 (Perdew, Kurke, and Ernzerhof) parameterization
correlation type : PBE96 (Perdew, Kurke, and Ernzerhof) parameterization
Solver iterations: 26

------- Grid information -------
Zcharge  : 1.400000e+01
amesh    : 1.005000e+00
R_max    : 4.470524e+01
Ngrid    : 2955
------------------------------------------------------------
n	l	population	Eigenvalue	Outer Peak
1	s	2.00		-6.563100e+01	7.252218e-02
2	s	2.00		-5.120790e+00	4.522885e-01
2	p	6.00		-3.508608e+00	3.874963e-01
3	s	2.00		-3.964564e-01	1.782717e+00
3	p	2.00		-1.483029e-01	2.144010e+00
------------------------------------------------------------
charge      = 1.400000e+01
core charge = 1.000000e+01

Total E       = -2.898368e+02

E_Hartree     = 1.321982e+02
<Vh>          = 2.643963e+02

E_exchange    = -2.015894e+01
<Vx>          = -2.598569e+01

E_correlation = -4.912244e-01
<Vc>          = -6.706340e-01


Hamann pseudopotential check

l	rcore     rmatch    E in       E psp      norm test slope test
0	1.069630  2.710389  -0.396456  -0.396456  1.000000  1.000005
1	1.286406  3.409342  -0.148303  -0.148303  1.000000  1.000004
2	1.286406  3.211277  -0.148303  -0.148303  1.000000  1.000000


PSP solver information

Atom name: Si
Zcharge  : 4.000000e+00
Nvalence : 3
         : restricted calculation

------ Solver information ------
solver type      : Hamann
hartree type     : On
exchange type    : PBE96 (Perdew, Kurke, and Ernzerhof) parameterization
correlation type : PBE96 (Perdew, Kurke, and Ernzerhof) parameterization
----------------------------------------------------------------------------
n	l	population	Ecut		Rcut		Outer Peak
1	s	2.00		-3.964564e-01	1.069630e+00	1.782717e+00
2	p	2.00		-1.483029e-01	1.286406e+00	2.144010e+00
3	d	0.00		-1.483029e-01	1.286406e+00	4.470524e+01
----------------------------------------------------------------------------
Pseudopotential Charge: 4.000000

Total E       = -3.752553e+00

E_Hartree     = 2.937515e+00
<Vh>          = 5.875029e+00

E_exchange    = -8.872716e-01
<Vx>          = -1.142175e+00

E_correlation = -9.988856e-02
<Vc>          = -1.194653e-01

Outputing pseudowavefunctions: Si.psw.plt
Outputing pseudopotentials: Si.psp.plt
Creating datafile for Kleinman-Bylander input: Si.psp
  + Appending pseudopotentials:    s thru d
  + Appending pseudowavefunctions: s thru d
Outputing all-electron wavefunctions: Si.1s Si.2s Si.2p Si.3s Si.3p Si.3d
Outputing atom density: Si.dns.plt
Outputing core density: Si.cdns.plt
Outputing core density gradient: Si.cddns.plt
Outputing semicore density: Si.sdns.plt
Outputing semicore density gradient: Si.sddns.plt
Outputing all-electron potential(non-screened): Si.pot.plt
     >>>  JOB COMPLETED     AT Fri Oct 27 12:30:57 2000  <<<

== Si.psp expansion coefficients ==

ATOM       S            P            D            F
Si :   0.21678E+00  0.34339E+00


 >>>> PSPW parallel Module - psp_formatter <<<<
      ********************************************
      *                                          *
      *     KBPPV3 - Pseudopotential Formatter   *
      *                                          *
      *      version last updated 4/15/99        *
      *                                          *
      * This code was written by Eric J. Bylaska *
      * and was based upon algorithms and code   *
      * developed by the group of                *
      * Prof. John H. Weare                      *
      ********************************************
     >>>  JOB STARTED       AT Fri Oct 27 12:30:58 2000  <<<

 Pseudpotential Data
 -------------------
   atom     :Si
   charge   :  4.
   mass no. :  28.
   highest angular component      : 2
   highest angular component used : 2
   local potential used           : 2
  cutoffs:      1.070     1.286     1.286

 Simulation Cell
 ---------------
  boundry: periodic
  ngrid  :   8   8   8
  unita  :    17.000    17.000     0.000
              17.000     0.000    17.000
               0.000    17.000    17.000

     >>>  JOB COMPLETED     AT Fri Oct 27 12:30:58 2000  <<<

 Task  times  cpu:        0.2s     wall:        0.3s


                                NWChem Input Module
                                -------------------


 >>>> PSPW parallel Module - psp_formatter <<<<
      ********************************************
      *                                          *
      *     KBPPV3 - Pseudopotential Formatter   *
      *                                          *
      *      version last updated 4/15/99        *
      *                                          *
      * This code was written by Eric J. Bylaska *
      * and was based upon algorithms and code   *
      * developed by the group of                *
      * Prof. John H. Weare                      *
      ********************************************
     >>>  JOB STARTED       AT Fri Oct 27 12:31:02 2000  <<<

 Pseudpotential Data
 -------------------
   atom     :Si
   charge   :  4.
   mass no. :  28.
   highest angular component      : 2
   highest angular component used : 2
   local potential used           : 2
  cutoffs:      1.070     1.286     1.286

 Simulation Cell
 ---------------
  boundry: periodic
  ngrid  :  24  24  24
  unita  :    17.000    17.000     0.000
              17.000     0.000    17.000
               0.000    17.000    17.000

     >>>  JOB COMPLETED     AT Fri Oct 27 12:31:02 2000  <<<

 Task  times  cpu:        4.3s     wall:        4.3s


                                NWChem Input Module
                                -------------------


 >>>> PSPW parallel Module - psp_formatter <<<<
      ********************************************
      *                                          *
      *     KBPPV3 - Pseudopotential Formatter   *
      *                                          *
      *      version last updated 4/15/99        *
      *                                          *
      * This code was written by Eric J. Bylaska *
      * and was based upon algorithms and code   *
      * developed by the group of                *
      * Prof. John H. Weare                      *
      ********************************************
     >>>  JOB STARTED       AT Fri Oct 27 12:31:42 2000  <<<

 Pseudpotential Data
 -------------------
   atom     :Si
   charge   :  4.
   mass no. :  28.
   highest angular component      : 2
   highest angular component used : 2
   local potential used           : 2
   aperiodic cutoff radius        :  1.
  cutoffs:      1.070     1.286     1.286

 Simulation Cell
 ---------------
  boundry: aperiodic
  ngrid  :  24  24  24
  unita  :    17.000    17.000     0.000
              17.000     0.000    17.000
               0.000    17.000    17.000

     >>>  JOB COMPLETED     AT Fri Oct 27 12:31:42 2000  <<<

 Task  times  cpu:       39.5s     wall:       39.6s


                                NWChem Input Module
                                -------------------


 >>>> PSPW Serial Module - wavefunction_initializer <<<<
 writing <spin= 1,psi=  1>    -     (  0  0  0 :   0)
 writing <spin= 1,psi=  2>    -     (  1  0  0 :  -1)
 writing <spin= 1,psi=  3>    -     (  0  1  0 :  -1)
 writing <spin= 1,psi=  4>    -     (  0  0  1 :  -1)
 writing <spin= 1,psi=  5>    -     (  0  0  1 :   1)
 writing <spin= 2,psi=  1>    -     (  0  0  0 :   0)
 writing <spin= 2,psi=  2>    -     (  1  0  0 :  -1)
 writing <spin= 2,psi=  3>    -     (  0  1  0 :  -1)
  JOB HAS BEEN COMPLETED.  CODE= 0
     >>>  JOB COMPLETED     AT Fri Oct 27 12:31:42 2000  <<<

 Task  times  cpu:        0.0s     wall:        0.0s


                                NWChem Input Module
                                -------------------


 >>>> PSPW Parallel Module - steepest_descent <<<<
          ****************************************************
          *                                                  *
          *     Car-Parrinello microcluster calculation      *
          *                                                  *
          *     [     steepest descent minimization   ]      *
          *                                                  *
          *      [ NortWest Chemistry implementation ]       *
          *                                                  *
          *            version #5.00   06/01/99              *
          *                                                  *
          *    This code was developed by Eric J. Bylaska,   *
          *    and was based upon algorithms and code        *
          *    developed by the group of Prof. John H. Weare *
          *                                                  *
          ****************************************************
     >>>  JOB STARTED       AT Fri Oct 27 12:31:42 2000  <<<
          ================ input data ========================

 number of processors used:  1

 options:
      ionic motion         = no
      boundry conditions   = periodic    (version3)
      electron spin        = unrestricted
      exchange-correlation = Vosko et al parameterization

 elements involved in the cluster:
      1: Si  mass no.:  28.0   core charge:  4.  lmax=2
             highest angular component      :  2
             local potential used           :  2
             number of non-local projections:  4
             cutoff =   1.070   1.286   1.286

 atomic composition:
     Si:  2

 initial position of ions:
        1 Si (    2.12216    0.00000    0.00000 )
        2 Si (   -2.12216    0.00000    0.00000 )
       G.C.  (    0.00000    0.00000    0.00000 )
      C.O.M. (    0.00000    0.00000    0.00000 )

 number of electrons: spin up=  5  spin down=  3 ( fourier space)

 supercell:
      lattice: a1=<  17.000  17.000   0.000 >
               a2=<  17.000   0.000  17.000 >
               a3=<   0.000  17.000  17.000 >
               b1=<   0.185   0.185  -0.185 >
               b2=<   0.185  -0.185   0.185 >
               b3=<  -0.185   0.185   0.185 >
      volume :     9826.0
      density cutoff=  0.820  fft=  8x  8x  8(      121 waves      121 per task)
      wavefnc cutoff=  0.820  fft=  8x  8x  8(      121 waves      121 per task)
      ewald summation: cut radius=    7.65  and  1
                        mandelung= 1.79174723

 technical parameters:
      time step=     51.80     fictacious mass=  400000.0
      tolerance=.100E-08 (energy)   0.100E-08 (electron)   0.100E-03 (ion)



          ================ iteration =========================
     >>>  ITERATION STARTED AT Fri Oct 27 12:31:47 2000  <<<
      10   -0.2395493824E+01   -0.46245E-02    0.27417E-01    0.00000E+00
      20   -0.4683929234E+01   -0.44178E-02    0.20441E-01    0.00000E+00
      30   -0.5822702573E+01   -0.21984E-02    0.49561E-02    0.00000E+00
      40   -0.6285738946E+01   -0.89389E-03    0.25922E-02    0.00000E+00
      50   -0.6504072485E+01   -0.42149E-03    0.13283E-02    0.00000E+00
      60   -0.6625203695E+01   -0.23384E-03    0.11500E-02    0.00000E+00
      70   -0.6701475144E+01   -0.14724E-03    0.10793E-02    0.00000E+00
      80   -0.6753194532E+01   -0.99844E-04    0.92410E-03    0.00000E+00
      90   -0.6789282829E+01   -0.69669E-04    0.73696E-03    0.00000E+00
     100   -0.6814528822E+01   -0.48737E-04    0.55788E-03    0.00000E+00
 *** arived at the Maximum iiteration.   terminated.
     >>>  ITERATION ENDED   AT Fri Oct 27 12:31:51 2000  <<<



          =============  summary of results  =================
 final position of ions:
        1 Si (    2.12216    0.00000    0.00000 )
        2 Si (   -2.12216    0.00000    0.00000 )
       G.C.  (    0.00000    0.00000    0.00000 )
      C.O.M. (    0.00000    0.00000    0.00000 )

 number of electrons: spin up=    5.00000  down=    3.00000 (real space)

 total     energy    :  -0.6814528822E+01 (   -0.34073E+01/ion)
 total orbital energy:  -0.3122653346E+01 (   -0.39033E+00/electron)
 hartree   energy    :   0.3714902520E+01 (    0.46436E+00/electron)
 exc-corr  energy    :  -0.1674287448E+01 (   -0.20929E+00/electron)
 ion-ion   energy    :  -0.4848940713E+00 (   -0.24245E+00/ion)

 K.S. kinetic energy :   0.1733496204E+01 (    0.21669E+00/electron)
 K.S. V_l  energy    :  -0.1117478717E+02 (   -0.13968E+01/electron)
 K.S. V_nl energy    :   0.1071041147E+01 (    0.13388E+00/electron)
 K.S. V_Hart energy  :   0.7429805040E+01 (    0.92873E+00/electron)
 K.S. V_xc energy    :  -0.2182208563E+01 (   -0.27278E+00/electron)
 Virial Coefficient  :  -0.2801361514E+01

 orbital energies:
    -0.2527679E+00 (  -6.878eV)
    -0.3185991E+00 (  -8.670eV)
    -0.3290536E+00 (  -8.954eV)    -0.3075614E+00 (  -8.369eV)
    -0.3487669E+00 (  -9.491eV)    -0.3274080E+00 (  -8.909eV)
    -0.6277846E+00 ( -17.083eV)    -0.6107118E+00 ( -16.618eV)


=== Spin Contamination ===

 <Sexact^2> =   2.
 <S^2>      =   2.00042887



== Center of Charge ==

spin up     (   -0.0835,   -0.1566,   -0.1566 )
spin down   (   -0.0229,   -0.0194,   -0.0194 )
     total  (   -0.0608,   -0.1051,   -0.1051 )
ionic       (    0.0000,    0.0000,    0.0000 )


== Molecular Dipole ==

mu   =  (    0.4865,    0.8411,    0.8411 ) au
|mu| =     1.2851 au,       3.2662 Debye



 *************************************************************
 **                                                         **
 **                  PSPW Mulliken analysis                 **
 **                                                         **
 ** Population analysis algorithm devloped by Ryoichi Kawai **
 **                                                         **
 **                   Fri Oct 27 12:31                      **
 **                                                         **
 *************************************************************


== EXPANSION COEFFICIENTS ==

ATOM       S            P            D            F
Si :   0.21678E+00  0.34339E+00


 ===============================================
 |  POPULATION ANALYSIS OF MOLECULAR ORBITALS  |
 ===============================================


------------------------------------------------


*** ORBITAL= 1***  SPIN=UP      SUM= 0.32398E+00 E=-0.25277E+00

NO  ATOM  L     POPULATION
 1   Si   0    0.25012    0.50012
 1   Si   1    0.24988    0.43128   -0.17872   -0.17872
 2   Si   0    0.25012    0.50012
 2   Si   1    0.24988   -0.43128    0.17872    0.17872


=== DISTRIBUTION ===

     1(Si)   0.5000     2(Si)   0.5000


== ANGULAR MOMENTUM POPULATIONS ===

      s         p         d         f
    0.5002    0.4998    0.0000    0.0000


------------------------------------------------


*** ORBITAL= 2***  SPIN=UP      SUM= 0.20831E+00 E=-0.31860E+00

NO  ATOM  L     POPULATION
 1   Si   0    0.00000    0.00000
 1   Si   1    0.50000    0.00000    0.50000   -0.50000
 2   Si   0    0.00000    0.00000
 2   Si   1    0.50000    0.00000    0.50000   -0.50000


=== DISTRIBUTION ===

     1(Si)   0.5000     2(Si)   0.5000


== ANGULAR MOMENTUM POPULATIONS ===

      s         p         d         f
    0.0000    1.0000    0.0000    0.0000


------------------------------------------------


*** ORBITAL= 3***  SPIN=UP      SUM= 0.14878E+00 E=-0.32905E+00

NO  ATOM  L     POPULATION
 1   Si   0    0.05066    0.22508
 1   Si   1    0.44934    0.03534    0.47333    0.47333
 2   Si   0    0.05066   -0.22508
 2   Si   1    0.44934    0.03534    0.47333    0.47333


=== DISTRIBUTION ===

     1(Si)   0.5000     2(Si)   0.5000


== ANGULAR MOMENTUM POPULATIONS ===

      s         p         d         f
    0.1013    0.8987    0.0000    0.0000


------------------------------------------------


*** ORBITAL= 4***  SPIN=UP      SUM= 0.27089E+01 E=-0.34877E+00

NO  ATOM  L     POPULATION
 1   Si   0    0.49364   -0.70260
 1   Si   1    0.00636   -0.07577    0.01757    0.01757
 2   Si   0    0.49364    0.70260
 2   Si   1    0.00636   -0.07577    0.01757    0.01757


=== DISTRIBUTION ===

     1(Si)   0.5000     2(Si)   0.5000


== ANGULAR MOMENTUM POPULATIONS ===

      s         p         d         f
    0.9873    0.0127    0.0000    0.0000


------------------------------------------------


*** ORBITAL= 5***  SPIN=UP      SUM= 0.34167E+01 E=-0.62778E+00

NO  ATOM  L     POPULATION
 1   Si   0    0.48364   -0.69544
 1   Si   1    0.01636    0.12551   -0.01743   -0.01743
 2   Si   0    0.48364   -0.69544
 2   Si   1    0.01636   -0.12551    0.01743    0.01743


=== DISTRIBUTION ===

     1(Si)   0.5000     2(Si)   0.5000


== ANGULAR MOMENTUM POPULATIONS ===

      s         p         d         f
    0.9673    0.0327    0.0000    0.0000


------------------------------------------------


*** ORBITAL= 6***  SPIN=DOWN    SUM= 0.20786E+00 E=-0.30756E+00

NO  ATOM  L     POPULATION
 1   Si   0    0.00000    0.00000
 1   Si   1    0.50000    0.00000   -0.50000    0.50000
 2   Si   0    0.00000    0.00000
 2   Si   1    0.50000    0.00000   -0.50000    0.50000


=== DISTRIBUTION ===

     1(Si)   0.5000     2(Si)   0.5000


== ANGULAR MOMENTUM POPULATIONS ===

      s         p         d         f
    0.0000    1.0000    0.0000    0.0000


------------------------------------------------


*** ORBITAL= 7***  SPIN=DOWN    SUM= 0.27022E+01 E=-0.32741E+00

NO  ATOM  L     POPULATION
 1   Si   0    0.49425   -0.70303
 1   Si   1    0.00575   -0.07582    0.00059    0.00059
 2   Si   0    0.49425    0.70303
 2   Si   1    0.00575   -0.07582    0.00059    0.00059


=== DISTRIBUTION ===

     1(Si)   0.5000     2(Si)   0.5000


== ANGULAR MOMENTUM POPULATIONS ===

      s         p         d         f
    0.9885    0.0115    0.0000    0.0000


------------------------------------------------


*** ORBITAL= 8***  SPIN=DOWN    SUM= 0.34521E+01 E=-0.61071E+00

NO  ATOM  L     POPULATION
 1   Si   0    0.48452    0.69607
 1   Si   1    0.01548   -0.12214    0.01682    0.01682
 2   Si   0    0.48452    0.69607
 2   Si   1    0.01548    0.12214   -0.01682   -0.01682


=== DISTRIBUTION ===

     1(Si)   0.5000     2(Si)   0.5000


== ANGULAR MOMENTUM POPULATIONS ===

      s         p         d         f
    0.9690    0.0310    0.0000    0.0000


 ========================================
 |   POPULATION ANALYSIS ON EACH ATOM   |
 ========================================


NO  ATOM  SPIN    TOTAL       s          p          d          f
 1   Si   UP      2.50000    1.27806    1.22194
 1   Si   DOWN    1.50000    0.97877    0.52123
 2   Si   UP      2.50000    1.27806    1.22194
 2   Si   DOWN    1.50000    0.97877    0.52123



=== TOTAL ANGULAR MOMENTUM POPULATION ===

 SPIN       s           p           d           f
  UP       51.12%      48.88%       0.00%       0.00% 
  DOWN     65.25%      34.75%       0.00%       0.00% 
 TOTAL     56.42%      43.58%       0.00%       0.00% 

 -----------------
 cputime in seconds
 prologue    :   5.19487
 main loop   :   4.349268
 epilogue    :   0.049014
 total       :   9.593152
 cputime/step:   0.04349268

 -------------------------------
 Time spent doing:
   FFTs                       :   2.003566
   dot products               :   0.000112
   orthonormalization         :   0.157388
   exchange correlation       :   0.818962
   local pseudopotentials     :   0.193416
   non-local pseudopotentials :   0.385598
   hartree potentials         :   0.004968
   structure factors          :   0.05087
   masking                    :   0.

     >>>  JOB COMPLETED     AT Fri Oct 27 12:31:51 2000  <<<

 Task  times  cpu:        9.5s     wall:        9.6s


                                NWChem Input Module
                                -------------------


          ****************************************************
          *                                                  *
          *     Car-Parrinello microcluster calculation      *
          *                                                  *
          *     [     conjugate gradient minimization   ]    *
          *     [   (Grassman manifold implementation)  ]    *
          *                                                  *
          *      [ NortWest Chemistry implementation ]       *
          *                                                  *
          *            version #5.00   06/01/00              *
          *                                                  *
          *    This code was developed by Eric J. Bylaska,   *
          *    and was based upon algorithms and code        *
          *    developed by the group of Prof. John H. Weare *
          *                                                  *
          ****************************************************
     >>>  JOB STARTED       AT Fri Oct 27 12:31:51 2000  <<<
          ================ input data ========================

 number of processors used:  1

 options:
      boundry conditions   = periodic    (version3)
      electron spin        = unrestricted
      exchange-correlation = Vosko et al parameterization

 elements involved in the cluster:
      1: Si  mass no.:  28.0   core charge:  4.  lmax=2
             highest angular component      :  2
             local potential used           :  2
             number of non-local projections:  4
             cutoff =   1.070   1.286   1.286

 atomic composition:
     Si:  2

 initial position of ions:
        1 Si (    2.12216    0.00000    0.00000 )
        2 Si (   -2.12216    0.00000    0.00000 )
       G.C.  (    0.00000    0.00000    0.00000 )
      C.O.M. (    0.00000    0.00000    0.00000 )

 number of electrons: spin up=  5  spin down=  3 (fourier space)

 supercell:
      lattice: a1=<  17.000  17.000   0.000 >
               a2=<  17.000   0.000  17.000 >
               a3=<   0.000  17.000  17.000 >
               b1=<   0.185   0.185  -0.185 >
               b2=<   0.185  -0.185   0.185 >
               b3=<  -0.185   0.185   0.185 >
      volume :     9826.0
      density cutoff=  0.820  fft=  8x  8x  8(      121 waves      121 per task)
      wavefnc cutoff=  0.820  fft=  8x  8x  8(      121 waves      121 per task)
      ewald summation: cut radius=    7.65  and  1
                        mandelung= 1.79174723

 technical parameters:
      time step=      5.80     fictacious mass=  400000.0
      tolerance=.100E-08 (energy)   0.100E-08 (density)   0.100E-03 (ion)





======================
= energy calculation =
======================


          ============ electron iteration ====================
     >>>  ITERATION STARTED AT Fri Oct 27 12:31:56 2000  <<<
      25   -0.6870573942E+01   -0.18656E-09    0.70842E-13
  *** tolerance ok.     iteration terminated.
     >>>  ITERATION ENDED   AT Fri Oct 27 12:31:59 2000  <<<


          =============  summary of results  =================
 final position of ions:
        1 Si (    2.12216    0.00000    0.00000 )
        2 Si (   -2.12216    0.00000    0.00000 )
       G.C.  (    0.00000    0.00000    0.00000 )
      C.O.M. (    0.00000    0.00000    0.00000 )

 number of electrons: spin up=    5.00000  down=    3.00000 (real space)

 total     energy    :  -0.6870573942E+01 (   -0.34353E+01/ion)
 total orbital energy:  -0.3044384882E+01 (   -0.38055E+00/electron)
 hartree   energy    :   0.3861762876E+01 (    0.48272E+00/electron)
 exc-corr  energy    :  -0.1714984931E+01 (   -0.21437E+00/electron)
 ion-ion   energy    :  -0.4848940713E+00 (   -0.24245E+00/ion)

 K.S. kinetic energy :   0.1800515947E+01 (    0.22506E+00/electron)
 K.S. V_l  energy    :  -0.1140124352E+02 (   -0.14252E+01/electron)
 K.S. V_nl energy    :   0.1068269756E+01 (    0.13353E+00/electron)
 K.S. V_Hart energy  :   0.7723525753E+01 (    0.96544E+00/electron)
 K.S. V_xc energy    :  -0.2235452818E+01 (   -0.27943E+00/electron)
 Virial Coefficient  :  -0.2690840277E+01

 orbital energies:
    -0.2878149E+00 (  -7.832eV)
    -0.3036469E+00 (  -8.263eV)
    -0.3186431E+00 (  -8.671eV)    -0.2926278E+00 (  -7.963eV)
    -0.3317778E+00 (  -9.028eV)    -0.3055729E+00 (  -8.315eV)
    -0.6105723E+00 ( -16.615eV)    -0.5937292E+00 ( -16.156eV)


=== Spin Contamination ===

 <Sexact^2> =   2.
 <S^2>      =   2.00086658



== Center of Charge ==

spin up     (   -0.0293,   -0.0313,   -0.0313 )
spin down   (   -0.0238,   -0.0175,   -0.0175 )
     total  (   -0.0272,   -0.0261,   -0.0261 )
ionic       (    0.0000,    0.0000,    0.0000 )


== Molecular Dipole ==

mu   =  (    0.2176,    0.2091,    0.2091 ) au
|mu| =     0.3672 au,       0.9332 Debye


========================
= Gradient calculation =
========================


Translation force removed: (    0.00000    0.00000    0.00000)


          =============  Ion Gradients =================
 Ion Positions:
        1 Si (    2.12216    0.00000    0.00000 )
        2 Si (   -2.12216    0.00000    0.00000 )
 Ion Forces:
        1 Si (    0.21968    0.00407    0.00407 )
        2 Si (   -0.21968   -0.00407   -0.00407 )
      C.O.M. (    0.00000    0.00000    0.00000 )
          ===============================================
          |F|=     0.3107822792E+00





 *************************************************************
 **                                                         **
 **                  PSPW Mulliken analysis                 **
 **                                                         **
 ** Population analysis algorithm devloped by Ryoichi Kawai **
 **                                                         **
 **                   Fri Oct 27 12:31                      **
 **                                                         **
 *************************************************************


== EXPANSION COEFFICIENTS ==

ATOM       S            P            D            F
Si :   0.21678E+00  0.34339E+00


 ===============================================
 |  POPULATION ANALYSIS OF MOLECULAR ORBITALS  |
 ===============================================


------------------------------------------------


*** ORBITAL= 1***  SPIN=UP      SUM= 0.49185E+00 E=-0.28781E+00

NO  ATOM  L     POPULATION
 1   Si   0    0.30513    0.55239
 1   Si   1    0.19487    0.41703   -0.10234   -0.10234
 2   Si   0    0.30513    0.55239
 2   Si   1    0.19487   -0.41703    0.10234    0.10234


=== DISTRIBUTION ===

     1(Si)   0.5000     2(Si)   0.5000


== ANGULAR MOMENTUM POPULATIONS ===

      s         p         d         f
    0.6103    0.3897    0.0000    0.0000


------------------------------------------------


*** ORBITAL= 2***  SPIN=UP      SUM= 0.21019E+00 E=-0.30365E+00

NO  ATOM  L     POPULATION
 1   Si   0    0.00000    0.00000
 1   Si   1    0.50000    0.00000   -0.50000    0.50000
 2   Si   0    0.00000    0.00000
 2   Si   1    0.50000    0.00000   -0.50000    0.50000


=== DISTRIBUTION ===

     1(Si)   0.5000     2(Si)   0.5000


== ANGULAR MOMENTUM POPULATIONS ===

      s         p         d         f
    0.0000    1.0000    0.0000    0.0000


------------------------------------------------


*** ORBITAL= 3***  SPIN=UP      SUM= 0.22434E+00 E=-0.31864E+00

NO  ATOM  L     POPULATION
 1   Si   0    0.20920    0.45738
 1   Si   1    0.29080    0.06186    0.37880    0.37880
 2   Si   0    0.20920   -0.45738
 2   Si   1    0.29080    0.06186    0.37880    0.37880


=== DISTRIBUTION ===

     1(Si)   0.5000     2(Si)   0.5000


== ANGULAR MOMENTUM POPULATIONS ===

      s         p         d         f
    0.4184    0.5816    0.0000    0.0000


------------------------------------------------


*** ORBITAL= 4***  SPIN=UP      SUM= 0.25600E+01 E=-0.33178E+00

NO  ATOM  L     POPULATION
 1   Si   0    0.49204   -0.70146
 1   Si   1    0.00796   -0.07704    0.03182    0.03182
 2   Si   0    0.49204    0.70146
 2   Si   1    0.00796   -0.07704    0.03182    0.03182


=== DISTRIBUTION ===

     1(Si)   0.5000     2(Si)   0.5000


== ANGULAR MOMENTUM POPULATIONS ===

      s         p         d         f
    0.9841    0.0159    0.0000    0.0000


------------------------------------------------


*** ORBITAL= 5***  SPIN=UP      SUM= 0.33553E+01 E=-0.61057E+00

NO  ATOM  L     POPULATION
 1   Si   0    0.48287   -0.69489
 1   Si   1    0.01713    0.12867   -0.01691   -0.01691
 2   Si   0    0.48287   -0.69489
 2   Si   1    0.01713   -0.12867    0.01691    0.01691


=== DISTRIBUTION ===

     1(Si)   0.5000     2(Si)   0.5000


== ANGULAR MOMENTUM POPULATIONS ===

      s         p         d         f
    0.9657    0.0343    0.0000    0.0000


------------------------------------------------


*** ORBITAL= 6***  SPIN=DOWN    SUM= 0.20981E+00 E=-0.29263E+00

NO  ATOM  L     POPULATION
 1   Si   0    0.00000    0.00000
 1   Si   1    0.50000    0.00000   -0.50000    0.50000
 2   Si   0    0.00000    0.00000
 2   Si   1    0.50000    0.00000   -0.50000    0.50000


=== DISTRIBUTION ===

     1(Si)   0.5000     2(Si)   0.5000


== ANGULAR MOMENTUM POPULATIONS ===

      s         p         d         f
    0.0000    1.0000    0.0000    0.0000


------------------------------------------------


*** ORBITAL= 7***  SPIN=DOWN    SUM= 0.26558E+01 E=-0.30557E+00

NO  ATOM  L     POPULATION
 1   Si   0    0.49425    0.70303
 1   Si   1    0.00575    0.07568   -0.00352   -0.00352
 2   Si   0    0.49425   -0.70303
 2   Si   1    0.00575    0.07568   -0.00352   -0.00352


=== DISTRIBUTION ===

     1(Si)   0.5000     2(Si)   0.5000


== ANGULAR MOMENTUM POPULATIONS ===

      s         p         d         f
    0.9885    0.0115    0.0000    0.0000


------------------------------------------------


*** ORBITAL= 8***  SPIN=DOWN    SUM= 0.33548E+01 E=-0.59373E+00

NO  ATOM  L     POPULATION
 1   Si   0    0.48251    0.69463
 1   Si   1    0.01749   -0.12982    0.01783    0.01783
 2   Si   0    0.48251    0.69463
 2   Si   1    0.01749    0.12982   -0.01783   -0.01783


=== DISTRIBUTION ===

     1(Si)   0.5000     2(Si)   0.5000


== ANGULAR MOMENTUM POPULATIONS ===

      s         p         d         f
    0.9650    0.0350    0.0000    0.0000


 ========================================
 |   POPULATION ANALYSIS ON EACH ATOM   |
 ========================================


NO  ATOM  SPIN    TOTAL       s          p          d          f
 1   Si   UP      2.50000    1.48925    1.01075
 1   Si   DOWN    1.50000    0.97676    0.52324
 2   Si   UP      2.50000    1.48925    1.01075
 2   Si   DOWN    1.50000    0.97676    0.52324



=== TOTAL ANGULAR MOMENTUM POPULATION ===

 SPIN       s           p           d           f
  UP       59.57%      40.43%       0.00%       0.00% 
  DOWN     65.12%      34.88%       0.00%       0.00% 
 TOTAL     61.65%      38.35%       0.00%       0.00% 

 -----------------
 cputime in seconds
 prologue    :   4.4489
 main loop   :   3.647018
 epilogue    :   0.042844
 total       :   8.138762
 cputime/step:   0.0444758293   ( 82 evalulations)

 -------------------------------
 Time spent doing:
   FFTs                       :   1.542578
   dot products               :   0.006868
   geodesic                   :   0.149202
   exchange correlation       :   0.78217
   local pseudopotentials     :   0.003966
   non-local pseudopotentials :   0.319088
   hartree potentials         :   0.01324
   structure factors          :   0.021974
   masking                    :   0.

     >>>  JOB COMPLETED     AT Fri Oct 27 12:31:59 2000  <<<

 Task  times  cpu:        8.1s     wall:        8.1s


                                NWChem Input Module
                                -------------------


 >>>> PSPW Parallel Module - steepest_descent <<<<
          ****************************************************
          *                                                  *
          *     Car-Parrinello microcluster calculation      *
          *                                                  *
          *     [     steepest descent minimization   ]      *
          *                                                  *
          *      [ NortWest Chemistry implementation ]       *
          *                                                  *
          *            version #5.00   06/01/99              *
          *                                                  *
          *    This code was developed by Eric J. Bylaska,   *
          *    and was based upon algorithms and code        *
          *    developed by the group of Prof. John H. Weare *
          *                                                  *
          ****************************************************
     >>>  JOB STARTED       AT Fri Oct 27 12:31:59 2000  <<<
          ================ input data ========================

 number of processors used:  1

 options:
      ionic motion         = no
      boundry conditions   = periodic    (version3)
      electron spin        = unrestricted
      exchange-correlation = Vosko et al parameterization

 elements involved in the cluster:
      1: Si  mass no.:  28.0   core charge:  4.  lmax=2
             highest angular component      :  2
             local potential used           :  2
             number of non-local projections:  4
             cutoff =   1.070   1.286   1.286

 atomic composition:
     Si:  2

 initial position of ions:
        1 Si (    2.12216    0.00000    0.00000 )
        2 Si (   -2.12216    0.00000    0.00000 )
       G.C.  (    0.00000    0.00000    0.00000 )
      C.O.M. (    0.00000    0.00000    0.00000 )

 number of electrons: spin up=  5  spin down=  3 ( fourier space)

 supercell:
      lattice: a1=<  17.000  17.000   0.000 >
               a2=<  17.000   0.000  17.000 >
               a3=<   0.000  17.000  17.000 >
               b1=<   0.185   0.185  -0.185 >
               b2=<   0.185  -0.185   0.185 >
               b3=<  -0.185   0.185   0.185 >
      volume :     9826.0
      density cutoff=  0.820  fft=  8x  8x  8(      121 waves      121 per task)
      wavefnc cutoff=  0.820  fft=  8x  8x  8(      121 waves      121 per task)
      ewald summation: cut radius=    7.65  and  1
                        mandelung= 1.79174723

 technical parameters:
      time step=     51.80     fictacious mass=  400000.0
      tolerance=.100E-08 (energy)   0.100E-08 (electron)   0.100E-03 (ion)



          ================ iteration =========================
     >>>  ITERATION STARTED AT Fri Oct 27 12:32:05 2000  <<<
      10   -0.6870573942E+01   -0.13264E-01    0.18087E-12    0.00000E+00
      20   -0.6870573942E+01   -0.16114E-13    0.16180E-12    0.00000E+00
  *** tolerance ok.     iteration terminated.
     >>>  ITERATION ENDED   AT Fri Oct 27 12:32:05 2000  <<<



          =============  summary of results  =================
 final position of ions:
        1 Si (    2.12216    0.00000    0.00000 )
        2 Si (   -2.12216    0.00000    0.00000 )
       G.C.  (    0.00000    0.00000    0.00000 )
      C.O.M. (    0.00000    0.00000    0.00000 )

 number of electrons: spin up=    5.00000  down=    3.00000 (real space)

 total     energy    :  -0.6870573942E+01 (   -0.34353E+01/ion)
 total orbital energy:  -0.3044385118E+01 (   -0.38055E+00/electron)
 hartree   energy    :   0.3861762613E+01 (    0.48272E+00/electron)
 exc-corr  energy    :  -0.1714984847E+01 (   -0.21437E+00/electron)
 ion-ion   energy    :  -0.4848940713E+00 (   -0.24245E+00/ion)

 K.S. kinetic energy :   0.1800515790E+01 (    0.22506E+00/electron)
 K.S. V_l  energy    :  -0.1140124312E+02 (   -0.14252E+01/electron)
 K.S. V_nl energy    :   0.1068269693E+01 (    0.13353E+00/electron)
 K.S. V_Hart energy  :   0.7723525225E+01 (    0.96544E+00/electron)
 K.S. V_xc energy    :  -0.2235452707E+01 (   -0.27943E+00/electron)
 Virial Coefficient  :  -0.2690840555E+01

 orbital energies:
    -0.2878149E+00 (  -7.832eV)
    -0.3036470E+00 (  -8.263eV)
    -0.3186432E+00 (  -8.671eV)    -0.2926279E+00 (  -7.963eV)
    -0.3317778E+00 (  -9.028eV)    -0.3055729E+00 (  -8.315eV)
    -0.6105723E+00 ( -16.615eV)    -0.5937292E+00 ( -16.156eV)


=== Spin Contamination ===

 <Sexact^2> =   2.
 <S^2>      =   2.00086654



== Center of Charge ==

spin up     (   -0.0293,   -0.0313,   -0.0313 )
spin down   (   -0.0238,   -0.0175,   -0.0175 )
     total  (   -0.0272,   -0.0261,   -0.0261 )
ionic       (    0.0000,    0.0000,    0.0000 )


== Molecular Dipole ==

mu   =  (    0.2176,    0.2091,    0.2091 ) au
|mu| =     0.3672 au,       0.9332 Debye



 *************************************************************
 **                                                         **
 **                  PSPW Mulliken analysis                 **
 **                                                         **
 ** Population analysis algorithm devloped by Ryoichi Kawai **
 **                                                         **
 **                   Fri Oct 27 12:32                      **
 **                                                         **
 *************************************************************


== EXPANSION COEFFICIENTS ==

ATOM       S            P            D            F
Si :   0.21678E+00  0.34339E+00


 ===============================================
 |  POPULATION ANALYSIS OF MOLECULAR ORBITALS  |
 ===============================================


------------------------------------------------


*** ORBITAL= 1***  SPIN=UP      SUM= 0.49185E+00 E=-0.28781E+00

NO  ATOM  L     POPULATION
 1   Si   0    0.30513   -0.55239
 1   Si   1    0.19487   -0.41703    0.10234    0.10234
 2   Si   0    0.30513   -0.55239
 2   Si   1    0.19487    0.41703   -0.10234   -0.10234


=== DISTRIBUTION ===

     1(Si)   0.5000     2(Si)   0.5000


== ANGULAR MOMENTUM POPULATIONS ===

      s         p         d         f
    0.6103    0.3897    0.0000    0.0000


------------------------------------------------


*** ORBITAL= 2***  SPIN=UP      SUM= 0.21019E+00 E=-0.30365E+00

NO  ATOM  L     POPULATION
 1   Si   0    0.00000    0.00000
 1   Si   1    0.50000    0.00000   -0.50000    0.50000
 2   Si   0    0.00000    0.00000
 2   Si   1    0.50000    0.00000   -0.50000    0.50000


=== DISTRIBUTION ===

     1(Si)   0.5000     2(Si)   0.5000


== ANGULAR MOMENTUM POPULATIONS ===

      s         p         d         f
    0.0000    1.0000    0.0000    0.0000


------------------------------------------------


*** ORBITAL= 3***  SPIN=UP      SUM= 0.22433E+00 E=-0.31864E+00

NO  ATOM  L     POPULATION
 1   Si   0    0.20920   -0.45738
 1   Si   1    0.29080   -0.06186   -0.37880   -0.37880
 2   Si   0    0.20920    0.45738
 2   Si   1    0.29080   -0.06186   -0.37880   -0.37880


=== DISTRIBUTION ===

     1(Si)   0.5000     2(Si)   0.5000


== ANGULAR MOMENTUM POPULATIONS ===

      s         p         d         f
    0.4184    0.5816    0.0000    0.0000


------------------------------------------------


*** ORBITAL= 4***  SPIN=UP      SUM= 0.25600E+01 E=-0.33178E+00

NO  ATOM  L     POPULATION
 1   Si   0    0.49204   -0.70146
 1   Si   1    0.00796   -0.07704    0.03182    0.03182
 2   Si   0    0.49204    0.70146
 2   Si   1    0.00796   -0.07704    0.03182    0.03182


=== DISTRIBUTION ===

     1(Si)   0.5000     2(Si)   0.5000


== ANGULAR MOMENTUM POPULATIONS ===

      s         p         d         f
    0.9841    0.0159    0.0000    0.0000


------------------------------------------------


*** ORBITAL= 5***  SPIN=UP      SUM= 0.33553E+01 E=-0.61057E+00

NO  ATOM  L     POPULATION
 1   Si   0    0.48287   -0.69489
 1   Si   1    0.01713    0.12867   -0.01691   -0.01691
 2   Si   0    0.48287   -0.69489
 2   Si   1    0.01713   -0.12867    0.01691    0.01691


=== DISTRIBUTION ===

     1(Si)   0.5000     2(Si)   0.5000


== ANGULAR MOMENTUM POPULATIONS ===

      s         p         d         f
    0.9657    0.0343    0.0000    0.0000


------------------------------------------------


*** ORBITAL= 6***  SPIN=DOWN    SUM= 0.20981E+00 E=-0.29263E+00

NO  ATOM  L     POPULATION
 1   Si   0    0.00000    0.00000
 1   Si   1    0.50000    0.00000    0.50000   -0.50000
 2   Si   0    0.00000    0.00000
 2   Si   1    0.50000    0.00000    0.50000   -0.50000


=== DISTRIBUTION ===

     1(Si)   0.5000     2(Si)   0.5000


== ANGULAR MOMENTUM POPULATIONS ===

      s         p         d         f
    0.0000    1.0000    0.0000    0.0000


------------------------------------------------


*** ORBITAL= 7***  SPIN=DOWN    SUM= 0.26558E+01 E=-0.30557E+00

NO  ATOM  L     POPULATION
 1   Si   0    0.49425   -0.70303
 1   Si   1    0.00575   -0.07568    0.00352    0.00352
 2   Si   0    0.49425    0.70303
 2   Si   1    0.00575   -0.07568    0.00352    0.00352


=== DISTRIBUTION ===

     1(Si)   0.5000     2(Si)   0.5000


== ANGULAR MOMENTUM POPULATIONS ===

      s         p         d         f
    0.9885    0.0115    0.0000    0.0000


------------------------------------------------


*** ORBITAL= 8***  SPIN=DOWN    SUM= 0.33548E+01 E=-0.59373E+00

NO  ATOM  L     POPULATION
 1   Si   0    0.48251    0.69463
 1   Si   1    0.01749   -0.12982    0.01783    0.01783
 2   Si   0    0.48251    0.69463
 2   Si   1    0.01749    0.12982   -0.01783   -0.01783


=== DISTRIBUTION ===

     1(Si)   0.5000     2(Si)   0.5000


== ANGULAR MOMENTUM POPULATIONS ===

      s         p         d         f
    0.9650    0.0350    0.0000    0.0000


 ========================================
 |   POPULATION ANALYSIS ON EACH ATOM   |
 ========================================


NO  ATOM  SPIN    TOTAL       s          p          d          f
 1   Si   UP      2.50000    1.48924    1.01076
 1   Si   DOWN    1.50000    0.97676    0.52324
 2   Si   UP      2.50000    1.48924    1.01076
 2   Si   DOWN    1.50000    0.97676    0.52324



=== TOTAL ANGULAR MOMENTUM POPULATION ===

 SPIN       s           p           d           f
  UP       59.57%      40.43%       0.00%       0.00% 
  DOWN     65.12%      34.88%       0.00%       0.00% 
 TOTAL     61.65%      38.35%       0.00%       0.00% 

 -----------------
 cputime in seconds
 prologue    :   5.193444
 main loop   :   0.869702
 epilogue    :   0.049482
 total       :   6.112628
 cputime/step:   0.0434851

 -------------------------------
 Time spent doing:
   FFTs                       :   0.400904
   dot products               :   0.00011
   orthonormalization         :   0.030246
   exchange correlation       :   0.164056
   local pseudopotentials     :   0.038776
   non-local pseudopotentials :   0.077176
   hartree potentials         :   0.001282
   structure factors          :   0.010354
   masking                    :   0.

     >>>  JOB COMPLETED     AT Fri Oct 27 12:32:05 2000  <<<

 Task  times  cpu:        6.1s     wall:        6.1s


                                NWChem Input Module
                                -------------------


 >>>> PSPW Serial Module - wavefunction_expander <<<<
 not finished
 old_filename: Si2.elc00                
 new_filename: Si2.elc01                
 converting  :   8x  8x  8 -->  24x 24x 24
 converting .... psi: 1 spin: 1
 converting .... psi: 2 spin: 1
 converting .... psi: 3 spin: 1
 converting .... psi: 4 spin: 1
 converting .... psi: 5 spin: 1
 converting .... psi: 1 spin: 2
 converting .... psi: 2 spin: 2
 converting .... psi: 3 spin: 2
  JOB HAS BEEN COMPLETED.  CODE= 0
     >>>  JOB COMPLETED     AT Fri Oct 27 12:32:05 2000  <<<

 Task  times  cpu:        0.0s     wall:        0.0s


                                NWChem Input Module
                                -------------------




                           NWChem Geometry Optimization
                           ----------------------------




                                        Si2


 maximum gradient threshold         (gmax) =   0.000450
 rms gradient threshold             (grms) =   0.000300
 maximum cartesian step threshold   (xmax) =   0.001800
 rms cartesian step threshold       (xrms) =   0.001200
 fixed trust radius                (trust) =   0.300000
 maximum step size to saddle      (sadstp) =   0.100000
 energy precision                  (eprec) =   1.0E-07
 maximum number of steps          (nptopt) =   20
 initial hessian option           (inhess) =    0
 line search option               (linopt) =    1
 hessian update option            (modupd) =    1
 saddle point option              (modsad) =    0
 initial eigen-mode to follow     (moddir) =    0
 initial variable to follow       (vardir) =    0
 follow first negative mode     (firstneg) =    T
 apply conjugacy                    (opcg) =    F
 source of zmatrix                         =   autoz   


          -------------------
          Energy Minimization
          -------------------


 Names of Z-matrix variables 
    1         

 Variables with the same non-blank name are constrained to be equal


 Using old Hessian from previous optimization

          --------
          Step   0
          --------


                         Geometry "geometry" -> "geometry"
                         ---------------------------------

 Output coordinates in angstroms (scale by  1.889725989 to convert to a.u.)

  No.       Tag          Charge          X              Y              Z
 ---- ---------------- ---------- -------------- -------------- --------------
    1 Si                  14.0000     1.12300000     0.00000000     0.00000000
    2 Si                  14.0000    -1.12300000     0.00000000     0.00000000

      Atomic Mass 
      ----------- 

      Si                27.976930


 Effective nuclear repulsion energy (a.u.)      46.1793146945

            Nuclear Dipole moment (a.u.) 
            ----------------------------
        X                 Y               Z
 ---------------- ---------------- ----------------
     0.0000000000     0.0000000000     0.0000000000

          ****************************************************
          *                                                  *
          *     Car-Parrinello microcluster calculation      *
          *                                                  *
          *     [     conjugate gradient minimization   ]    *
          *     [   (Grassman manifold implementation)  ]    *
          *                                                  *
          *      [ NortWest Chemistry implementation ]       *
          *                                                  *
          *            version #5.00   06/01/00              *
          *                                                  *
          *    This code was developed by Eric J. Bylaska,   *
          *    and was based upon algorithms and code        *
          *    developed by the group of Prof. John H. Weare *
          *                                                  *
          ****************************************************
     >>>  JOB STARTED       AT Fri Oct 27 12:32:06 2000  <<<
          ================ input data ========================

 number of processors used:  1

 options:
      boundry conditions   = periodic    (version3)
      electron spin        = unrestricted
      exchange-correlation = PBE96 (White and Bird) parameterization

 elements involved in the cluster:
      1: Si  mass no.:  28.0   core charge:  4.  lmax=2
             highest angular component      :  2
             local potential used           :  2
             number of non-local projections:  4
             cutoff =   1.070   1.286   1.286

 atomic composition:
     Si:  2

 initial position of ions:
        1 Si (    2.12216    0.00000    0.00000 )
        2 Si (   -2.12216    0.00000    0.00000 )
       G.C.  (    0.00000    0.00000    0.00000 )
      C.O.M. (    0.00000    0.00000    0.00000 )

 number of electrons: spin up=  5  spin down=  3 (fourier space)

 supercell:
      lattice: a1=<  17.000  17.000   0.000 >
               a2=<  17.000   0.000  17.000 >
               a3=<   0.000  17.000  17.000 >
               b1=<   0.185   0.185  -0.185 >
               b2=<   0.185  -0.185   0.185 >
               b3=<  -0.185   0.185   0.185 >
      volume :     9826.0
      density cutoff=  7.377  fft= 24x 24x 24(     3816 waves     3816 per task)
      wavefnc cutoff=  7.377  fft= 24x 24x 24(     3816 waves     3816 per task)
      ewald summation: cut radius=    7.65  and  1
                        mandelung= 1.79174723

 technical parameters:
      time step=      5.80     fictacious mass=  400000.0
      tolerance=.100E-08 (energy)   0.100E-08 (density)   0.100E-03 (ion)





======================
= energy calculation =
======================


          ============ electron iteration ====================
     >>>  ITERATION STARTED AT Fri Oct 27 12:32:12 2000  <<<
      25   -0.7678962729E+01   -0.15028E-04    0.60012E-07
      50   -0.7679002981E+01   -0.98412E-09    0.46601E-11
  *** tolerance ok.     iteration terminated.
     >>>  ITERATION ENDED   AT Fri Oct 27 12:39:06 2000  <<<


          =============  summary of results  =================
 final position of ions:
        1 Si (    2.12216    0.00000    0.00000 )
        2 Si (   -2.12216    0.00000    0.00000 )
       G.C.  (    0.00000    0.00000    0.00000 )
      C.O.M. (    0.00000    0.00000    0.00000 )

 number of electrons: spin up=    5.00000  down=    3.00000 (real space)

 total     energy    :  -0.7679002981E+01 (   -0.38395E+01/ion)
 total orbital energy:  -0.2329630227E+01 (   -0.29120E+00/electron)
 hartree   energy    :   0.5492221433E+01 (    0.68653E+00/electron)
 exc-corr  energy    :  -0.2137211336E+01 (   -0.26715E+00/electron)
 ion-ion   energy    :  -0.4848940799E+00 (   -0.24245E+00/ion)

 K.S. kinetic energy :   0.2647177730E+01 (    0.33090E+00/electron)
 K.S. V_l  energy    :  -0.1486239796E+02 (   -0.18578E+01/electron)
 K.S. V_nl energy    :   0.1666101234E+01 (    0.20826E+00/electron)
 K.S. V_Hart energy  :   0.1098444287E+02 (    0.13731E+01/electron)
 K.S. V_xc energy    :  -0.2764954094E+01 (   -0.34562E+00/electron)
 Virial Coefficient  :  -0.1880042999E+01

 orbital energies:
    -0.1789906E+00 (  -4.871eV)
    -0.2044965E+00 (  -5.565eV)
    -0.2108936E+00 (  -5.739eV)    -0.1701830E+00 (  -4.631eV)
    -0.3442220E+00 (  -9.367eV)    -0.3061587E+00 (  -8.331eV)
    -0.4772282E+00 ( -12.986eV)    -0.4374577E+00 ( -11.904eV)


=== Spin Contamination ===

 <Sexact^2> =   2.
 <S^2>      =   2.00611351



== Center of Charge ==

spin up     (   -0.0002,   -0.0002,   -0.0002 )
spin down   (   -0.0003,   -0.0002,   -0.0002 )
     total  (   -0.0002,   -0.0002,   -0.0002 )
ionic       (    0.0000,    0.0000,    0.0000 )


== Molecular Dipole ==

mu   =  (    0.0020,    0.0016,    0.0016 ) au
|mu| =     0.0029 au,       0.0075 Debye


========================
= Gradient calculation =
========================


Translation force removed: (    0.00000    0.00000    0.00000)


          =============  Ion Gradients =================
 Ion Positions:
        1 Si (    2.12216    0.00000    0.00000 )
        2 Si (   -2.12216    0.00000    0.00000 )
 Ion Forces:
        1 Si (   -0.02069   -0.00048   -0.00049 )
        2 Si (    0.02069    0.00048    0.00049 )
      C.O.M. (    0.00000    0.00000    0.00000 )
          ===============================================
          |F|=     0.2927365703E-01



 -----------------
 cputime in seconds
 prologue    :   6.016074
 main loop   :   414.791028
 epilogue    :   0.07736
 total       :   420.884462
 cputime/step:   1.75017311   ( 237 evalulations)

 -------------------------------
 Time spent doing:
   FFTs                       :   160.23995
   dot products               :   0.026116
   geodesic                   :   15.411366
   exchange correlation       :   240.489634
   local pseudopotentials     :   0.04147
   non-local pseudopotentials :   26.368064
   hartree potentials         :   0.631108
   structure factors          :   1.440192
   masking                    :   0.43251

     >>>  JOB COMPLETED     AT Fri Oct 27 12:39:06 2000  <<<

@ Step       Energy      Delta E   Gmax     Grms     Xrms     Xmax   Walltime
@ ---- ---------------- -------- -------- -------- -------- -------- --------
@    0      -7.67900298  0.0E+00  0.02069  0.02069  0.00000  0.00000    496.0
                                                       ok       ok  



                                Z-matrix (autoz)
                                -------- 

 Units are Angstrom for bonds and degrees for angles

      Type          Name      I     J     K     L     M      Value     Gradient
      ----------- --------  ----- ----- ----- ----- ----- ---------- ----------
    1 Stretch                  1     2                       2.24600    0.02069

          ****************************************************
          *                                                  *
          *     Car-Parrinello microcluster calculation      *
          *                                                  *
          *     [     conjugate gradient minimization   ]    *
          *     [   (Grassman manifold implementation)  ]    *
          *                                                  *
          *      [ NortWest Chemistry implementation ]       *
          *                                                  *
          *            version #5.00   06/01/00              *
          *                                                  *
          *    This code was developed by Eric J. Bylaska,   *
          *    and was based upon algorithms and code        *
          *    developed by the group of Prof. John H. Weare *
          *                                                  *
          ****************************************************
     >>>  JOB STARTED       AT Fri Oct 27 12:39:06 2000  <<<
          ================ input data ========================

 number of processors used:  1

 options:
      boundry conditions   = periodic    (version3)
      electron spin        = unrestricted
      exchange-correlation = PBE96 (White and Bird) parameterization

 elements involved in the cluster:
      1: Si  mass no.:  28.0   core charge:  4.  lmax=2
             highest angular component      :  2
             local potential used           :  2
             number of non-local projections:  4
             cutoff =   1.070   1.286   1.286

 atomic composition:
     Si:  2

 initial position of ions:
        1 Si (    2.07606    0.00000    0.00000 )
        2 Si (   -2.07606    0.00000    0.00000 )
       G.C.  (    0.00000    0.00000    0.00000 )
      C.O.M. (    0.00000    0.00000    0.00000 )

 number of electrons: spin up=  5  spin down=  3 (fourier space)

 supercell:
      lattice: a1=<  17.000  17.000   0.000 >
               a2=<  17.000   0.000  17.000 >
               a3=<   0.000  17.000  17.000 >
               b1=<   0.185   0.185  -0.185 >
               b2=<   0.185  -0.185   0.185 >
               b3=<  -0.185   0.185   0.185 >
      volume :     9826.0
      density cutoff=  7.377  fft= 24x 24x 24(     3816 waves     3816 per task)
      wavefnc cutoff=  7.377  fft= 24x 24x 24(     3816 waves     3816 per task)
      ewald summation: cut radius=    7.65  and  1
                        mandelung= 1.79174723

 technical parameters:
      time step=      5.80     fictacious mass=  400000.0
      tolerance=.100E-08 (energy)   0.100E-08 (density)   0.100E-03 (ion)





======================
= energy calculation =
======================


          ============ electron iteration ====================
     >>>  ITERATION STARTED AT Fri Oct 27 12:39:12 2000  <<<
      25   -0.7680437748E+01   -0.75842E-09    0.27526E-11
  *** tolerance ok.     iteration terminated.
     >>>  ITERATION ENDED   AT Fri Oct 27 12:42:02 2000  <<<


          =============  summary of results  =================
 final position of ions:
        1 Si (    2.07606    0.00000    0.00000 )
        2 Si (   -2.07606    0.00000    0.00000 )
       G.C.  (    0.00000    0.00000    0.00000 )
      C.O.M. (    0.00000    0.00000    0.00000 )

 number of electrons: spin up=    5.00000  down=    3.00000 (real space)

 total     energy    :  -0.7680437748E+01 (   -0.38402E+01/ion)
 total orbital energy:  -0.2338991036E+01 (   -0.29237E+00/electron)
 hartree   energy    :   0.5568950434E+01 (    0.69612E+00/electron)
 exc-corr  energy    :  -0.2148205688E+01 (   -0.26853E+00/electron)
 ion-ion   energy    :  -0.4037353980E+00 (   -0.20187E+00/ion)

 K.S. kinetic energy :   0.2670435851E+01 (    0.33380E+00/electron)
 K.S. V_l  energy    :  -0.1504245155E+02 (   -0.18803E+01/electron)
 K.S. V_nl energy    :   0.1674568609E+01 (    0.20932E+00/electron)
 K.S. V_Hart energy  :   0.1113790087E+02 (    0.13922E+01/electron)
 K.S. V_xc energy    :  -0.2779444809E+01 (   -0.34743E+00/electron)
 Virial Coefficient  :  -0.1875883626E+01

 orbital energies:
    -0.1811955E+00 (  -4.931eV)
    -0.2071720E+00 (  -5.637eV)
    -0.2103485E+00 (  -5.724eV)    -0.1723547E+00 (  -4.690eV)
    -0.3411466E+00 (  -9.283eV)    -0.3027719E+00 (  -8.239eV)
    -0.4820273E+00 ( -13.117eV)    -0.4419746E+00 ( -12.027eV)


=== Spin Contamination ===

 <Sexact^2> =   2.
 <S^2>      =   2.00605213



== Center of Charge ==

spin up     (   -0.0002,   -0.0002,   -0.0002 )
spin down   (   -0.0002,   -0.0001,   -0.0001 )
     total  (   -0.0002,   -0.0002,   -0.0002 )
ionic       (    0.0000,    0.0000,    0.0000 )


== Molecular Dipole ==

mu   =  (    0.0018,    0.0015,    0.0015 ) au
|mu| =     0.0028 au,       0.0070 Debye


========================
= Gradient calculation =
========================


Translation force removed: (    0.00000    0.00000    0.00000)


          =============  Ion Gradients =================
 Ion Positions:
        1 Si (    2.07606    0.00000    0.00000 )
        2 Si (   -2.07606    0.00000    0.00000 )
 Ion Forces:
        1 Si (   -0.01003   -0.00063   -0.00064 )
        2 Si (    0.01003    0.00063    0.00064 )
      C.O.M. (    0.00000    0.00000    0.00000 )
          ===============================================
          |F|=     0.1424368093E-01



 -----------------
 cputime in seconds
 prologue    :   5.54691
 main loop   :   170.48956
 epilogue    :   0.077622
 total       :   176.114092
 cputime/step:   1.77593292   ( 96 evalulations)

 -------------------------------
 Time spent doing:
   FFTs                       :   66.6704
   dot products               :   0.012956
   geodesic                   :   6.204712
   exchange correlation       :   97.065482
   local pseudopotentials     :   0.040512
   non-local pseudopotentials :   10.892956
   hartree potentials         :   0.259776
   structure factors          :   0.586646
   masking                    :   0.175078

     >>>  JOB COMPLETED     AT Fri Oct 27 12:42:03 2000  <<<
 Line search: 
     step= 1.00 grad=-1.9E-03 hess= 4.7E-04 energy=     -7.680438 mode=downhill
 new step= 2.02                   predicted energy=     -7.680927

          --------
          Step   1
          --------


                         Geometry "geometry" -> "geometry"
                         ---------------------------------

 Output coordinates in angstroms (scale by  1.889725989 to convert to a.u.)

  No.       Tag          Charge          X              Y              Z
 ---- ---------------- ---------- -------------- -------------- --------------
    1 Si                  14.0000     1.07379309     0.00000000     0.00000000
    2 Si                  14.0000    -1.07379309     0.00000000     0.00000000

      Atomic Mass 
      ----------- 

      Si                27.976930


 Effective nuclear repulsion energy (a.u.)      48.2954965044

            Nuclear Dipole moment (a.u.) 
            ----------------------------
        X                 Y               Z
 ---------------- ---------------- ----------------
     0.0000000000     0.0000000000     0.0000000000

          ****************************************************
          *                                                  *
          *     Car-Parrinello microcluster calculation      *
          *                                                  *
          *     [     conjugate gradient minimization   ]    *
          *     [   (Grassman manifold implementation)  ]    *
          *                                                  *
          *      [ NortWest Chemistry implementation ]       *
          *                                                  *
          *            version #5.00   06/01/00              *
          *                                                  *
          *    This code was developed by Eric J. Bylaska,   *
          *    and was based upon algorithms and code        *
          *    developed by the group of Prof. John H. Weare *
          *                                                  *
          ****************************************************
     >>>  JOB STARTED       AT Fri Oct 27 12:42:03 2000  <<<
          ================ input data ========================

 number of processors used:  1

 options:
      boundry conditions   = periodic    (version3)
      electron spin        = unrestricted
      exchange-correlation = PBE96 (White and Bird) parameterization

 elements involved in the cluster:
      1: Si  mass no.:  28.0   core charge:  4.  lmax=2
             highest angular component      :  2
             local potential used           :  2
             number of non-local projections:  4
             cutoff =   1.070   1.286   1.286

 atomic composition:
     Si:  2

 initial position of ions:
        1 Si (    2.02917    0.00000    0.00000 )
        2 Si (   -2.02917    0.00000    0.00000 )
       G.C.  (    0.00000    0.00000    0.00000 )
      C.O.M. (    0.00000    0.00000    0.00000 )

 number of electrons: spin up=  5  spin down=  3 (fourier space)

 supercell:
      lattice: a1=<  17.000  17.000   0.000 >
               a2=<  17.000   0.000  17.000 >
               a3=<   0.000  17.000  17.000 >
               b1=<   0.185   0.185  -0.185 >
               b2=<   0.185  -0.185   0.185 >
               b3=<  -0.185   0.185   0.185 >
      volume :     9826.0
      density cutoff=  7.377  fft= 24x 24x 24(     3816 waves     3816 per task)
      wavefnc cutoff=  7.377  fft= 24x 24x 24(     3816 waves     3816 per task)
      ewald summation: cut radius=    7.65  and  1
                        mandelung= 1.79174723

 technical parameters:
      time step=      5.80     fictacious mass=  400000.0
      tolerance=.100E-08 (energy)   0.100E-08 (density)   0.100E-03 (ion)





======================
= energy calculation =
======================


          ============ electron iteration ====================
     >>>  ITERATION STARTED AT Fri Oct 27 12:42:09 2000  <<<
      25   -0.7680776848E+01   -0.75373E-09    0.29633E-11
  *** tolerance ok.     iteration terminated.
     >>>  ITERATION ENDED   AT Fri Oct 27 12:44:57 2000  <<<


          =============  summary of results  =================
 final position of ions:
        1 Si (    2.02917    0.00000    0.00000 )
        2 Si (   -2.02917    0.00000    0.00000 )
       G.C.  (    0.00000    0.00000    0.00000 )
      C.O.M. (    0.00000    0.00000    0.00000 )

 number of electrons: spin up=    5.00000  down=    3.00000 (real space)

 total     energy    :  -0.7680776848E+01 (   -0.38404E+01/ion)
 total orbital energy:  -0.2349012185E+01 (   -0.29363E+00/electron)
 hartree   energy    :   0.5649517794E+01 (    0.70619E+00/electron)
 exc-corr  energy    :  -0.2159979509E+01 (   -0.27000E+00/electron)
 ion-ion   energy    :  -0.3172588539E+00 (   -0.15863E+00/ion)

 K.S. kinetic energy :   0.2696307508E+01 (    0.33704E+00/electron)
 K.S. V_l  energy    :  -0.1523477841E+02 (   -0.19043E+01/electron)
 K.S. V_nl energy    :   0.1685414621E+01 (    0.21068E+00/electron)
 K.S. V_Hart energy  :   0.1129903559E+02 (    0.14124E+01/electron)
 K.S. V_xc energy    :  -0.2794991493E+01 (   -0.34937E+00/electron)
 Virial Coefficient  :  -0.1871195952E+01

 orbital energies:
    -0.1835620E+00 (  -4.995eV)
    -0.2096559E+00 (  -5.705eV)
    -0.2100510E+00 (  -5.716eV)    -0.1746955E+00 (  -4.754eV)
    -0.3379317E+00 (  -9.196eV)    -0.2992459E+00 (  -8.143eV)
    -0.4871129E+00 ( -13.255eV)    -0.4467572E+00 ( -12.157eV)


=== Spin Contamination ===

 <Sexact^2> =   2.
 <S^2>      =   2.00599451



== Center of Charge ==

spin up     (   -0.0002,   -0.0002,   -0.0002 )
spin down   (   -0.0002,   -0.0001,   -0.0001 )
     total  (   -0.0002,   -0.0002,   -0.0002 )
ionic       (    0.0000,    0.0000,    0.0000 )


== Molecular Dipole ==

mu   =  (    0.0017,    0.0014,    0.0014 ) au
|mu| =     0.0026 au,       0.0066 Debye


========================
= Gradient calculation =
========================


Translation force removed: (    0.00000    0.00000    0.00000)


          =============  Ion Gradients =================
 Ion Positions:
        1 Si (    2.02917    0.00000    0.00000 )
        2 Si (   -2.02917    0.00000    0.00000 )
 Ion Forces:
        1 Si (    0.00321   -0.00068   -0.00069 )
        2 Si (   -0.00321    0.00068    0.00069 )
      C.O.M. (    0.00000    0.00000    0.00000 )
          ===============================================
          |F|=     0.4745406111E-02



 -----------------
 cputime in seconds
 prologue    :   6.006242
 main loop   :   168.685552
 epilogue    :   0.077502
 total       :   174.769296
 cputime/step:   1.75714117   ( 96 evalulations)

 -------------------------------
 Time spent doing:
   FFTs                       :   64.933018
   dot products               :   0.01294
   geodesic                   :   6.021464
   exchange correlation       :   97.32988
   local pseudopotentials     :   0.040762
   non-local pseudopotentials :   10.858662
   hartree potentials         :   0.254128
   structure factors          :   0.608632
   masking                    :   0.174924

     >>>  JOB COMPLETED     AT Fri Oct 27 12:44:57 2000  <<<

  Step       Energy      Delta E   Gmax     Grms     Xrms     Xmax   Walltime
  ---- ---------------- -------- -------- -------- -------- -------- --------
@    1      -7.68077685 -1.8E-03  0.00321  0.00321  0.05369  0.09299    847.0
                                                                    



                                Z-matrix (autoz)
                                -------- 

 Units are Angstrom for bonds and degrees for angles

      Type          Name      I     J     K     L     M      Value     Gradient
      ----------- --------  ----- ----- ----- ----- ----- ---------- ----------
    1 Stretch                  1     2                       2.14759   -0.00321

          ****************************************************
          *                                                  *
          *     Car-Parrinello microcluster calculation      *
          *                                                  *
          *     [     conjugate gradient minimization   ]    *
          *     [   (Grassman manifold implementation)  ]    *
          *                                                  *
          *      [ NortWest Chemistry implementation ]       *
          *                                                  *
          *            version #5.00   06/01/00              *
          *                                                  *
          *    This code was developed by Eric J. Bylaska,   *
          *    and was based upon algorithms and code        *
          *    developed by the group of Prof. John H. Weare *
          *                                                  *
          ****************************************************
     >>>  JOB STARTED       AT Fri Oct 27 12:44:58 2000  <<<
          ================ input data ========================

 number of processors used:  1

 options:
      boundry conditions   = periodic    (version3)
      electron spin        = unrestricted
      exchange-correlation = PBE96 (White and Bird) parameterization

 elements involved in the cluster:
      1: Si  mass no.:  28.0   core charge:  4.  lmax=2
             highest angular component      :  2
             local potential used           :  2
             number of non-local projections:  4
             cutoff =   1.070   1.286   1.286

 atomic composition:
     Si:  2

 initial position of ions:
        1 Si (    2.04167    0.00000    0.00000 )
        2 Si (   -2.04167    0.00000    0.00000 )
       G.C.  (    0.00000    0.00000    0.00000 )
      C.O.M. (    0.00000    0.00000    0.00000 )

 number of electrons: spin up=  5  spin down=  3 (fourier space)

 supercell:
      lattice: a1=<  17.000  17.000   0.000 >
               a2=<  17.000   0.000  17.000 >
               a3=<   0.000  17.000  17.000 >
               b1=<   0.185   0.185  -0.185 >
               b2=<   0.185  -0.185   0.185 >
               b3=<  -0.185   0.185   0.185 >
      volume :     9826.0
      density cutoff=  7.377  fft= 24x 24x 24(     3816 waves     3816 per task)
      wavefnc cutoff=  7.377  fft= 24x 24x 24(     3816 waves     3816 per task)
      ewald summation: cut radius=    7.65  and  1
                        mandelung= 1.79174723

 technical parameters:
      time step=      5.80     fictacious mass=  400000.0
      tolerance=.100E-08 (energy)   0.100E-08 (density)   0.100E-03 (ion)





======================
= energy calculation =
======================


          ============ electron iteration ====================
     >>>  ITERATION STARTED AT Fri Oct 27 12:45:03 2000  <<<
      25   -0.7680809493E+01   -0.90346E-09    0.11652E-11
  *** tolerance ok.     iteration terminated.
     >>>  ITERATION ENDED   AT Fri Oct 27 12:47:09 2000  <<<


          =============  summary of results  =================
 final position of ions:
        1 Si (    2.04167    0.00000    0.00000 )
        2 Si (   -2.04167    0.00000    0.00000 )
       G.C.  (    0.00000    0.00000    0.00000 )
      C.O.M. (    0.00000    0.00000    0.00000 )

 number of electrons: spin up=    5.00000  down=    3.00000 (real space)

 total     energy    :  -0.7680809493E+01 (   -0.38404E+01/ion)
 total orbital energy:  -0.2346291794E+01 (   -0.29329E+00/electron)
 hartree   energy    :   0.5627781228E+01 (    0.70347E+00/electron)
 exc-corr  energy    :  -0.2156782295E+01 (   -0.26960E+00/electron)
 ion-ion   energy    :  -0.3407214886E+00 (   -0.17036E+00/ion)

 K.S. kinetic energy :   0.2689183127E+01 (    0.33615E+00/electron)
 K.S. V_l  energy    :  -0.1518254886E+02 (   -0.18978E+01/electron)
 K.S. V_nl energy    :   0.1682278791E+01 (    0.21028E+00/electron)
 K.S. V_Hart energy  :   0.1125556246E+02 (    0.14069E+01/electron)
 K.S. V_xc energy    :  -0.2790767314E+01 (   -0.34885E+00/electron)
 Virial Coefficient  :  -0.1872492383E+01

 orbital energies:
    -0.1829177E+00 (  -4.977eV)
    -0.2092680E+00 (  -5.695eV)
    -0.2098559E+00 (  -5.711eV)    -0.1740576E+00 (  -4.736eV)
    -0.3387972E+00 (  -9.219eV)    -0.3001950E+00 (  -8.169eV)
    -0.4857365E+00 ( -13.218eV)    -0.4454639E+00 ( -12.122eV)


=== Spin Contamination ===

 <Sexact^2> =   2.
 <S^2>      =   2.0060099



== Center of Charge ==

spin up     (   -0.0002,   -0.0002,   -0.0002 )
spin down   (   -0.0002,   -0.0001,   -0.0001 )
     total  (   -0.0002,   -0.0002,   -0.0002 )
ionic       (    0.0000,    0.0000,    0.0000 )


== Molecular Dipole ==

mu   =  (    0.0018,    0.0014,    0.0014 ) au
|mu| =     0.0027 au,       0.0067 Debye


========================
= Gradient calculation =
========================


Translation force removed: (    0.00000    0.00000    0.00000)


          =============  Ion Gradients =================
 Ion Positions:
        1 Si (    2.04167    0.00000    0.00000 )
        2 Si (   -2.04167    0.00000    0.00000 )
 Ion Forces:
        1 Si (   -0.00057   -0.00067   -0.00068 )
        2 Si (    0.00057    0.00067    0.00068 )
      C.O.M. (    0.00000    0.00000    0.00000 )
          ===============================================
          |F|=     0.1568716163E-02



 -----------------
 cputime in seconds
 prologue    :   5.547884
 main loop   :   126.378748
 epilogue    :   0.077708
 total       :   132.00434
 cputime/step:   1.77998237   ( 71 evalulations)

 -------------------------------
 Time spent doing:
   FFTs                       :   49.448038
   dot products               :   0.010142
   geodesic                   :   4.574956
   exchange correlation       :   71.835984
   local pseudopotentials     :   0.040814
   non-local pseudopotentials :   8.184584
   hartree potentials         :   0.19284
   structure factors          :   0.454302
   masking                    :   0.129602

     >>>  JOB COMPLETED     AT Fri Oct 27 12:47:10 2000  <<<
 Line search: 
     step= 1.00 grad=-8.0E-05 hess= 4.8E-05 energy=     -7.680809 mode=downhill
 new step= 0.84                   predicted energy=     -7.680811

          --------
          Step   2
          --------


                         Geometry "geometry" -> "geometry"
                         ---------------------------------

 Output coordinates in angstroms (scale by  1.889725989 to convert to a.u.)

  No.       Tag          Charge          X              Y              Z
 ---- ---------------- ---------- -------------- -------------- --------------
    1 Si                  14.0000     1.07936487     0.00000000     0.00000000
    2 Si                  14.0000    -1.07936487     0.00000000     0.00000000

      Atomic Mass 
      ----------- 

      Si                27.976930


 Effective nuclear repulsion energy (a.u.)      48.0461907660

            Nuclear Dipole moment (a.u.) 
            ----------------------------
        X                 Y               Z
 ---------------- ---------------- ----------------
     0.0000000000     0.0000000000     0.0000000000

[...]
spin down   (   -0.0002,   -0.0001,    0.0004 )
     total  (   -0.0002,   -0.0002,    0.0003 )
ionic       (    0.0000,    0.0000,    0.0005 )


== Molecular Dipole ==

mu   =  (    0.0017,    0.0014,    0.0014 ) au
|mu| =     0.0026 au,       0.0066 Debye


========================
= Gradient calculation =
========================


Translation force removed: (    0.00000    0.00000    0.00000)


          =============  Ion Gradients =================
 Ion Positions:
        1 Si (    2.03981    0.00000    0.00000 )
        2 Si (   -2.03981    0.00000    0.00100 )
 Ion Forces:
        1 Si (    0.00001   -0.00057   -0.00058 )
        2 Si (   -0.00001    0.00057    0.00058 )
      C.O.M. (    0.00000    0.00000    0.00000 )
          ===============================================
          |F|=     0.1150821857E-02



 -----------------
 cputime in seconds
 prologue    :   0.723296
 main loop   :   202.606004
 epilogue    :   0.08458
 total       :   203.41388
 cputime/step:   2.2264396   ( 91 evalulations)

 -------------------------------
 Time spent doing:
   FFTs                       :   99.747236
   dot products               :   0.013996
   geodesic                   :   5.535142
   exchange correlation       :   92.749386
   local pseudopotentials     :   0.04212
   non-local pseudopotentials :   10.406984
   hartree potentials         :   0.
   structure factors          :   0.519144
   masking                    :   0.167822

     >>>  JOB COMPLETED     AT Fri Oct 27 13:46:21 2000  <<<
 atom:   2 xyz: 3(-) wall time:    4530.2      date:  Fri Oct 27 13:46:21 2000

          ****************************************************
          *                                                  *
          *     Car-Parrinello microcluster calculation      *
          *                                                  *
          *     [     conjugate gradient minimization   ]    *
          *     [   (Grassman manifold implementation)  ]    *
          *                                                  *
          *      [ NortWest Chemistry implementation ]       *
          *                                                  *
          *            version #5.00   06/01/00              *
          *                                                  *
          *    This code was developed by Eric J. Bylaska,   *
          *    and was based upon algorithms and code        *
          *    developed by the group of Prof. John H. Weare *
          *                                                  *
          ****************************************************
     >>>  JOB STARTED       AT Fri Oct 27 13:46:21 2000  <<<
          ================ input data ========================

 number of processors used:  1

 options:
      boundry conditions   = aperiodic   (version4)
      electron spin        = unrestricted
      exchange-correlation = PBE96 (White and Bird) parameterization

 elements involved in the cluster:
      1: Si  mass no.:  28.0   core charge:  4.  lmax=2
             highest angular component      :  2
             local potential used           :  2
             number of non-local projections:  4
             aperiodic cutoff radius        :  1.000
             cutoff =   1.070   1.286   1.286

 atomic composition:
     Si:  2

 initial position of ions:
        1 Si (    2.03981    0.00000    0.00000 )
        2 Si (   -2.03981    0.00000   -0.00100 )
       G.C.  (    0.00000    0.00000   -0.00050 )
      C.O.M. (    0.00000    0.00000   -0.00050 )

 number of electrons: spin up=  5  spin down=  3 (fourier space)

 supercell:
      lattice: a1=<  17.000  17.000   0.000 >
               a2=<  17.000   0.000  17.000 >
               a3=<   0.000  17.000  17.000 >
               b1=<   0.185   0.185  -0.185 >
               b2=<   0.185  -0.185   0.185 >
               b3=<  -0.185   0.185   0.185 >
      volume :     9826.0
      density cutoff=  7.377  fft= 24x 24x 24(     3816 waves     3816 per task)
      wavefnc cutoff=  7.377  fft= 24x 24x 24(     3816 waves     3816 per task)

 technical parameters:
      time step=      5.80     fictacious mass=  400000.0
      tolerance=.100E-08 (energy)   0.100E-08 (density)   0.100E-03 (ion)





======================
= energy calculation =
======================


          ============ electron iteration ====================
     >>>  ITERATION STARTED AT Fri Oct 27 13:46:22 2000  <<<
      25   -0.7679696553E+01   -0.86259E-09    0.82100E-11
  *** tolerance ok.     iteration terminated.
     >>>  ITERATION ENDED   AT Fri Oct 27 13:48:22 2000  <<<


          =============  summary of results  =================
 final position of ions:
        1 Si (    2.03981    0.00000    0.00000 )
        2 Si (   -2.03981    0.00000   -0.00100 )
       G.C.  (    0.00000    0.00000   -0.00050 )
      C.O.M. (    0.00000    0.00000   -0.00050 )

 number of electrons: spin up=    5.00000  down=    3.00000 (real space)

 total     energy    :  -0.7679696553E+01 (   -0.38398E+01/ion)
 total orbital energy:  -0.2438307789E+01 (   -0.30479E+00/electron)
 hartree   energy    :   0.9797358948E+01 (    0.12247E+01/electron)
 exc-corr  energy    :  -0.2156950377E+01 (   -0.26962E+00/electron)
 ion-ion   energy    :   0.3921941364E+01 (    0.19610E+01/ion)

 K.S. kinetic energy :   0.2688519847E+01 (    0.33606E+00/electron)
 K.S. V_l  energy    :  -0.2361006994E+02 (   -0.29513E+01/electron)
 K.S. V_nl energy    :   0.1679503608E+01 (    0.20994E+00/electron)
 K.S. V_Hart energy  :   0.1959471790E+02 (    0.24493E+01/electron)
 K.S. V_xc energy    :  -0.2790979197E+01 (   -0.34887E+00/electron)
 Virial Coefficient  :  -0.1906933156E+01

 orbital energies:
    -0.1945634E+00 (  -5.294eV)
    -0.2208055E+00 (  -6.008eV)
    -0.2213489E+00 (  -6.023eV)    -0.1856853E+00 (  -5.053eV)
    -0.3500252E+00 (  -9.525eV)    -0.3114297E+00 (  -8.474eV)
    -0.4973627E+00 ( -13.534eV)    -0.4570872E+00 ( -12.438eV)


=== Spin Contamination ===

 <Sexact^2> =   2.
 <S^2>      =   2.00599863



== Center of Charge ==

spin up     (   -0.0002,   -0.0002,   -0.0007 )
spin down   (   -0.0002,   -0.0001,   -0.0006 )
     total  (   -0.0002,   -0.0002,   -0.0007 )
ionic       (    0.0000,    0.0000,   -0.0005 )


== Molecular Dipole ==

mu   =  (    0.0017,    0.0014,    0.0015 ) au
|mu| =     0.0026 au,       0.0066 Debye


========================
= Gradient calculation =
========================


Translation force removed: (    0.00000    0.00000    0.00000)


          =============  Ion Gradients =================
 Ion Positions:
        1 Si (    2.03981    0.00000    0.00000 )
        2 Si (   -2.03981    0.00000   -0.00100 )
 Ion Forces:
        1 Si (    0.00001   -0.00057   -0.00059 )
        2 Si (   -0.00001    0.00057    0.00059 )
      C.O.M. (    0.00000    0.00000    0.00000 )
          ===============================================
          |F|=     0.1155041292E-02



 -----------------
 cputime in seconds
 prologue    :   0.723412
 main loop   :   121.33175
 epilogue    :   0.084968
 total       :   122.14013
 cputime/step:   2.24688426   ( 54 evalulations)

 -------------------------------
 Time spent doing:
   FFTs                       :   59.665206
   dot products               :   0.0093
   geodesic                   :   3.283898
   exchange correlation       :   55.240646
   local pseudopotentials     :   0.041926
   non-local pseudopotentials :   6.421206
   hartree potentials         :   0.
   structure factors          :   0.331932
   masking                    :   0.099508

     >>>  JOB COMPLETED     AT Fri Oct 27 13:48:23 2000  <<<
  
  finite difference hessian delta =   0.001

              1        2        3        4        5        6      
    1    0.1563   0.0000   0.0000  -0.1564   0.0003   0.0004
    2    0.0000   0.0065  -0.0023  -0.0001  -0.0068   0.0016
    3    0.0000  -0.0023   0.0034   0.0000   0.0018  -0.0036
    4   -0.1564  -0.0001   0.0000   0.1564  -0.0001  -0.0002
    5    0.0003  -0.0068   0.0018  -0.0001   0.0068  -0.0017
    6    0.0004   0.0016  -0.0036  -0.0002  -0.0017   0.0036
  

  finite difference derivative dipole; delta =   0.001

  
  
 X vector of derivative dipole (au) [debye/angstrom]
 d_dipole_x/<atom=   1,x> =    -0.0359     [   -0.1724]
 d_dipole_x/<atom=   1,y> =     0.0014     [    0.0068]
 d_dipole_x/<atom=   1,z> =     0.0023     [    0.0111]
 d_dipole_x/<atom=   2,x> =    -0.0380     [   -0.1825]
 d_dipole_x/<atom=   2,y> =     0.0031     [    0.0150]
 d_dipole_x/<atom=   2,z> =     0.0032     [    0.0152]
  
 Y vector of derivative dipole (au) [debye/angstrom]
 d_dipole_y/<atom=   1,x> =     0.0048     [    0.0230]
 d_dipole_y/<atom=   1,y> =     0.0304     [    0.1461]
 d_dipole_y/<atom=   1,z> =     0.0096     [    0.0462]
 d_dipole_y/<atom=   2,x> =     0.0035     [    0.0169]
 d_dipole_y/<atom=   2,y> =     0.0325     [    0.1559]
 d_dipole_y/<atom=   2,z> =     0.0052     [    0.0251]
  
 Z vector of derivative dipole (au) [debye/angstrom]
 d_dipole_z/<atom=   1,x> =     0.0039     [    0.0189]
 d_dipole_z/<atom=   1,y> =     0.0062     [    0.0298]
 d_dipole_z/<atom=   1,z> =    -0.0090     [   -0.0432]
 d_dipole_z/<atom=   2,x> =     0.0027     [    0.0128]
 d_dipole_z/<atom=   2,y> =     0.0072     [    0.0344]
 d_dipole_z/<atom=   2,z> =    -0.0235     [   -0.1130]
  
  
  stpr_wrt_fd_from_sq: overwrite of existing file:./Si2.hess
 stpr_wrt_fd_dipole: overwrite of existing file./Si2.fd_ddipole
  triangle hessian written to ./Si2.hess
  derivative dipole written to ./Si2.fd_ddipole

 Deleting state for cg_pspw with suffix hess
        Si2.elc01



  Vibrational analysis via the FX method 

  See chapter 2 in "Molecular Vibrations" by Wilson, Decius and Cross

  Vib: Default input used 

  Nuclear Hessian passed symmetry test 



 ---------------------------- Atom information ----------------------------
     atom    #        X              Y              Z            mass
 --------------------------------------------------------------------------
    Si       1  2.0398061E+00  0.0000000E+00  0.0000000E+00  2.7976930E+01
    Si       2 -2.0398061E+00  0.0000000E+00  0.0000000E+00  2.7976930E+01
 --------------------------------------------------------------------------




          ----------------------------------------------------
          MASS-WEIGHTED NUCLEAR HESSIAN (Hartree/Bohr/Bohr/Kg)
          ----------------------------------------------------


              1           2           3           4           5           6
   ----- ----- ----- ----- -----
    1   5.58713E+00
    2   3.68818E-04 2.33975E-01
    3   1.47942E-03-8.12331E-02 1.21905E-01
    4  -5.58861E+00-2.88342E-03-1.13036E-04 5.58861E+00
    5   1.23217E-02-2.42308E-01 6.35728E-02-4.71916E-03 2.42308E-01
    6   1.40310E-02 5.68528E-02-1.30222E-01-6.95899E-03-6.02128E-02 1.30222E-01



          -------------------------------------------------
          NORMAL MODE EIGENVECTORS IN CARTESIAN COORDINATES
          -------------------------------------------------
                 (Freqencies expressed in cm-1)

                    1           2           3           4           5           6
 
 Frequency        -21.08        2.19       13.04       72.13      119.56      543.45
 
           1    -0.03624     0.12672    -0.02219     0.00322     0.00083    -0.13368
           2     0.09341     0.04422     0.08837    -0.05039    -0.12130    -0.00004
           3     0.09820     0.01379    -0.09608    -0.11514     0.05848    -0.00002
           4    -0.03590     0.12678    -0.02221     0.00352     0.00089     0.13369
           5     0.08460     0.03794     0.09312     0.06075     0.12160    -0.00021
           6     0.08726     0.00515    -0.09510     0.12741    -0.05314    -0.00025



 ----------------------------------------------------------------------------
 Normal Eigenvalue ||         Derivative Dipole Moments (debye/angs)
  Mode   [cm**-1]  ||      [d/dqX]             [d/dqY]           [d/dqZ]
 ------ ---------- || ------------------ ------------------ -----------------
    1      -21.078 ||       0.017               0.032            -0.010
    2        2.192 ||      -0.044               0.018             0.005
    3       13.037 ||      -0.007              -0.020            -0.020
    4       72.128 ||       0.000               0.000            -0.009
    5      119.561 ||       0.001               0.003             0.004
    6      543.447 ||      -0.001              -0.001            -0.001
 ----------------------------------------------------------------------------



  
  
 ----------------------------------------------------------------------------
 Normal Eigenvalue ||                 Infra Red Intensities
  Mode   [cm**-1]  || [atomic units] [(debye/angs)**2] [(KM/mol)] [arbitrary]
 ------ ---------- || -------------- ----------------- ---------- -----------
    1      -21.078 ||    0.000061           0.001         0.060      18.273
    2        2.192 ||    0.000099           0.002         0.097      29.502
    3       13.037 ||    0.000037           0.001         0.036      10.891
    4       72.128 ||    0.000003           0.000         0.003       0.984
    5      119.561 ||    0.000001           0.000         0.001       0.308
    6      543.447 ||    0.000000           0.000         0.000       0.042
 ----------------------------------------------------------------------------





        Vibrational analysis via the FX method 
  --- with translations and rotations projected out ---
  --- via the Eckart algorithm                      ---
 Dependent rotation vector no. 1
  found in ECKART; assuming linear geometry
 Projected Nuclear Hessian trans-rot subspace norm:7.7433E-34
                         (should be close to zero!) 


From the projected analysis 
The Zero-Point Energy (Kcal/mol) =           0.77712852



          -------------------------------------------------
          NORMAL MODE EIGENVECTORS IN CARTESIAN COORDINATES
          -------------------------------------------------
             (Projected Freqencies expressed in cm-1)

                    1           2           3           4           5           6
 
 P.Frequency        0.00        0.00        0.00        0.00        0.00      543.45
 
           1     0.00000     0.00000     0.00000     0.00000     0.13369     0.13369
           2     0.18906     0.00000     0.00000     0.00000     0.00000     0.00000
           3     0.00000     0.18906     0.00000     0.00000     0.00000     0.00000
           4     0.00000     0.00000     0.00000     0.00000     0.13369    -0.13369
           5     0.00000     0.00000     0.18906     0.00000     0.00000     0.00000
           6     0.00000     0.00000     0.00000     0.18906     0.00000     0.00000



 ----------------------------------------------------------------------------
 Normal Eigenvalue ||    Projected Derivative Dipole Moments (debye/angs)
  Mode   [cm**-1]  ||      [d/dqX]             [d/dqY]           [d/dqZ]
 ------ ---------- || ------------------ ------------------ -----------------
    1        0.000 ||       0.001               0.028             0.006
    2        0.000 ||       0.002               0.009            -0.008
    3        0.000 ||       0.003               0.029             0.007
    4        0.000 ||       0.003               0.005            -0.021
    5        0.000 ||      -0.047               0.005             0.004
    6      543.447 ||       0.001               0.001             0.001
 ----------------------------------------------------------------------------



  
  
 ----------------------------------------------------------------------------
 Normal Eigenvalue ||           Projected Infra Red Intensities
  Mode   [cm**-1]  || [atomic units] [(debye/angs)**2] [(KM/mol)] [arbitrary]
 ------ ---------- || -------------- ----------------- ---------- -----------
    1        0.000 ||    0.000035           0.001         0.034      10.277
    2        0.000 ||    0.000006           0.000         0.006       1.902
    3        0.000 ||    0.000040           0.001         0.039      11.856
    4        0.000 ||    0.000021           0.000         0.021       6.290
    5        0.000 ||    0.000100           0.002         0.097      29.635
    6      543.447 ||    0.000000           0.000         0.000       0.041
 ----------------------------------------------------------------------------



 vib:animation  F

 Task  times  cpu:     2108.2s     wall:     2117.1s


                                NWChem Input Module
                                -------------------


 Summary of allocated global arrays
-----------------------------------
  No active global arrays



                         GA Statistics for process    0
                         ------------------------------

       create   destroy   get      put      acc     scatter   gather  read&inc
calls:    0        0        0        0        0        0        0        0     
bytes total:             0.00e+00 0.00e+00 0.00e+00 0.00e+00 0.00e+00 0.00e+00
bytes remote:            0.00e+00 0.00e+00 0.00e+00 0.00e+00 0.00e+00 0.00e+00
Max memory consumed for GA by this process: 0 bytes

MA_summarize_allocated_blocks: starting scan ...
MA_summarize_allocated_blocks: scan completed: 0 heap blocks, 0 stack blocks
MA usage statistics:

	allocation statistics:
					      heap	     stack
					      ----	     -----
	current number of blocks	         0	         0
	maximum number of blocks	        87	        23
	current total bytes		         0	         0
	maximum total bytes		   8254076	   3808348
	maximum total K-bytes		      8255	      3809
	maximum total M-bytes		         9	         4



                                  ACKNOWLEDGEMENT
                                  ---------------

            Please use the following acknowledgement where appropriate 
            for results obtained with NWChem:

            High Performance Computational Chemistry Group, "NWChem, A
            Computational Chemistry Package for Parallel Computers, 
            Version 4.0" (2000), Pacific Northwest National Laboratory,
            Richland, Washington 99352-0999, USA.


                                     CITATION
                                     --------

            Please use the following citation when publishing results
            obtained with NWChem:

            Anchell, J.; Apra, E.; Bernholdt, D.; Borowski, P.; Bylaska, E.; 
            Clark, T.; Clerc, D.; Dachsel, H.; de Jong, W.A.; Deegan, M.; 
            Dupuis, M.; Dyall, K.; Elwood, D.; Fann, G.; Fruchtl, H.; 
            Glendenning, E.; Gutowski, M.; Harrison, R.; Hess, A.; 
            Jaffe, J.; Johnson, B.; Ju, J.; Kendall, R.; Kobayashi, R.; 
            Kutteh, R.; Lin, Z.; Littlefield, R.; Long, X.; Meng, B.; 
            Nichols, J.; Nieplocha, J.; Rendall, A.; Rosing, M.;Sandrone, G; 
            Stave, M.; Straatsma, T.;Taylor, H.; Thomas, G.; van Lenthe, J.; 
            Windus, T; Wolinski, K.; Wong, A.; Zhang, Z.; "NWChem, A 
            Computational Chemistry Package for Parallel Computers, 
            Version 4.0" (1999),
                      Pacific Northwest National Laboratory,
                      Richland, Washington 99352-0999, USA.


                                    REFERENCES
                                    ----------

            Where appropriate, please cite the following reference(s) 
            when publishing results obtained with NWChem:


     1. D. E. Bernholdt, E. Apra, H. A. Fruchtl, M.F. Guest, R. J. Harrison, 
        R. A. Kendall, R. A. Kutteh, X. Long, J. B. Nicholas, J. A. Nichols, 
        H. L. Taylor, A. T. Wong, G. I. Fann, R. J. Littlefield and J. Nieplocha,
        "Parallel Computational Chemistry Made Easier: The Development of NWChem,"
        Int. J. Quantum Chem. Symposium  29, 475-483 (1995).



 Total times  cpu:     4637.7s     wall:     4652.6s
