 argument  1 = ethanol_ti.nw
                                         
                                         


              Northwest Computational Chemistry Package (NWChem) 6.0
              ------------------------------------------------------


                    Environmental Molecular Sciences Laboratory
                       Pacific Northwest National Laboratory
                                Richland, WA 99352

                              Copyright (c) 1994-2010
                       Pacific Northwest National Laboratory
                            Battelle Memorial Institute

             NWChem is an open-source computational chemistry package
                        distributed under the terms of the
                      Educational Community License (ECL) 2.0
             A copy of the license is included with this distribution
                              in the LICENSE.TXT file

                                  ACKNOWLEDGMENT
                                  --------------

            This software and its documentation were developed at the
            EMSL at Pacific Northwest National Laboratory, a multiprogram
            national laboratory, operated for the U.S. Department of Energy
            by Battelle under Contract Number DE-AC05-76RL01830. Support
            for this work was provided by the Department of Energy Office
            of Biological and Environmental Research, Office of Basic
            Energy Sciences, and the Office of Advanced Scientific Computing.


           Job information
           ---------------

    hostname      = arcen
    program       = /home/d3y133/nwchem-releases/nwchem-6.0-gfortran/bin/LINUX64/nwchem
    date          = Thu Aug 26 23:01:40 2010

    compiled      = Thu_Aug_26_21:55:56_2010
    source        = /home/d3y133/nwchem-releases/nwchem-6.0-gfortran
    nwchem branch = 6.0
    input         = ethanol_ti.nw
    prefix        = ethanol_ti.
    data base     = ./ethanol_ti.db
    status        = startup
    nproc         =        4
    time left     =     -1s



           Memory information
           ------------------

    heap     =     131073 doubles =      1.0 Mbytes
    stack    =    4194305 doubles =     32.0 Mbytes
    global   =    1048576 doubles =      8.0 Mbytes (distinct from heap & stack)
    total    =    5373954 doubles =     41.0 Mbytes
    verify   = no 
    hardfail = no 


           Directory information
           ---------------------

  0 permanent = .
  0 scratch   = .




                                NWChem Input Module
                                -------------------



 FREE ENERGY EVALUATION                                                                                      08/26/10   23:01:40 

 Title   NWChem:MD input                                                                                     08/26/10   23:01:40 
                                                                                         
                                                                                         

 System ethanol_ti

 Initial simulation

 Multiple run simulation with initial conditions
 Number of runs       1
 Number of equilibration steps       0
 Number of data gathering steps     10

 Separation shifted scaling, delta     0.075000 nm**2

 Cutoff radius     0.900000 nm

 Isothermal ensemble external temperature   298.150000  298.150000 K
 Temperature relaxation time solvent          0.100000 ps
 Temperature relaxation time solute           0.100000 ps
 Temperature annealing between times          0.000000    0.000000 ps
 Isobaric ensemble external pressure  1.02500E+05 Pa
 Pressure relaxation time     0.500000 ps
 Compressebility  4.53000E-10 m**2/N

 Leap-frog integration

 Maximum number of solvent SHAKE iterations   100, solvent SHAKE tolerance     0.000001 nm
 Maximum number of solute SHAKE iterations    100, solute SHAKE tolerance      0.000001 nm

 Frequency update pair lists                              1
 Frequency removal overall motion                         0
 Frequency solute centering                               1
 Frequency printing step information                      1
 Frequency printing statistical information              10
 Frequency recording restart file                         0
 Frequency recording system coordinates                   0
 Frequency recording solute coordinates                   0
 Frequency recording system velocities                    0
 Frequency recording solute velocities                    0
 Frequency recording system forces                        0
 Frequency recording solute forces                        0

 LOAD BALANCING

 Redistribution of inter-processor box pairs

 Load balancing frequency     1

 Load balancing based on last synchronization time

 Distribution information

 Short range cutoff                   0.900000
 Segment size                         0.358073
 Long range cutoff                    0.900000
 Box size rbox                        0.000000

 Box dimension                        2.002312    2.002312    2.002312

 Initial cell size                    1.079036

 Initial cell distribution            1    2    2
 Final cell distribution              1    2    2

 Minimum cell size                    1.079036    0.539518    0.539518

 ARRAY DIMENSION INFORMATION

 Number cells per processor:        1
 Number of buffer cells:            6
 Total number of cells:             4
 Dimension solvent local:         465, global:    465
 Dimension solute local:           19, global:     19

 TOPOLOGY FILE INFORMATION

 Title        NWChem topology file for ethanol_test                                           
                                                                                              
              Generated by the NWChem prepare module                                          
 Version          4.600000
 Date         12/17/04   08:10:24 
 Force field  amber     

 RESTART FILE INFORMATION

 Title        Restart file                                                                    
                                                                                              
                                                                                              
 Version          4.200000
 Date         04/07/04  15:27:45  

 History

 d3j191            04/07/04  15:27:45             0 md       0 +   10000 @ 298.15 0.10E+06 etl_md            

 TOPOLOGY

 DATA PACKING

 Packing solute in   1 integers :   15
               significant bits :    5   4   4   4   2   2   2   2   5   2   7   5   5   4   2
 Packing solvent in  1 integers :    4
               significant bits :   10   4   4   5

 POSITIONAL CONSTRAINTS
 Number of fix directives is     0

 Solute fix applied to         0 out of        9 atoms
 Solvent fix applied to        0 out of      261 molecules


 DOMAIN DECOMPOSITION

 Processor count     4 =    1 x    2 x    2
 Cell count          4 =    1 x    2 x    2

 Minimum cell size     1.080116 x    0.540058 x    0.540058

 Unable to read previous box pair list


 Initial distribution p:b(w+s)

      0:    1(    192+      0)      1:    1(    201+      9)      2:    1(    189+      0)      3:    1(    201+      0)

 Dimension workarrays solvent    465
                      solute      19

 THERMODYNAMIC INTEGRATION, LAMBDA=   0.00000     FFFFFFFFFFFF FTFTFFFFFFFF                                  08/26/10   23:01:40 

 MOLECULAR DYNAMICS TIME STEP INFORMATION                                                                    08/26/10   23:01:40 

    Time      Temp    Pres      Volume Tscalw Tscals  Pscal    U(ele)    U(vdW)      U(pot)     U(kin)     U(tot) 
     ps         K      Pa        nm**3                         kJ/mol    kJ/mol      kJ/mol     kJ/mol     kJ/mol 

    0.00000  301.37 9.44E+07     8.029 0.9999 0.9999 1.0002-1.3505E+04 2.5413E+03-1.0946E+04 1.9883E+03-8.9574E+03
    0.00200  303.01 8.29E+07     8.030 0.9999 0.9999 1.0001-1.3513E+04 2.5325E+03-1.0960E+04 1.9991E+03-8.9611E+03
    0.00400  303.90 7.52E+07     8.031 0.9998 0.9998 1.0001-1.3509E+04 2.5252E+03-1.0960E+04 2.0049E+03-8.9555E+03
    0.00600  304.73 6.88E+07     8.032 0.9998 0.9998 1.0001-1.3514E+04 2.5207E+03-1.0968E+04 2.0104E+03-8.9571E+03
    0.00800  306.00 6.44E+07     8.033 0.9998 0.9998 1.0001-1.3520E+04 2.5194E+03-1.0976E+04 2.0188E+03-8.9569E+03
    0.01000  307.65 6.13E+07     8.034 0.9997 0.9997 1.0001-1.3532E+04 2.5212E+03-1.0986E+04 2.0297E+03-8.9566E+03
    0.01200  309.26 5.92E+07     8.035 0.9997 0.9997 1.0001-1.3550E+04 2.5257E+03-1.0999E+04 2.0403E+03-8.9587E+03
    0.01400  310.39 5.87E+07     8.036 0.9996 0.9996 1.0001-1.3570E+04 2.5321E+03-1.1012E+04 2.0478E+03-8.9644E+03
    0.01600  310.79 6.32E+07     8.037 0.9996 0.9996 1.0001-1.3572E+04 2.5400E+03-1.1007E+04 2.0504E+03-8.9569E+03
    0.01800  310.26 6.94E+07     8.038 0.9996 0.9996 1.0001-1.3573E+04 2.5484E+03-1.1003E+04 2.0469E+03-8.9563E+03

 MOLECULAR DYNAMICS STATISTICAL INFORMATION                                                                  08/26/10   23:01:40 

                                           Statistics over last       10 steps     Statistics over last       10 steps
                                           Average     RMS fluct     Drift/ps      Average     RMS fluct     Drift/ps

 Step                                    5.50000E+00  2.87228E+00  5.00000E+02   5.50000E+00  2.87228E+00  5.00000E+02             
 Time                                    9.00000E-03  5.74456E-03  1.00000E+00   9.00000E-03  5.74456E-03  1.00000E+00           ps
 Number solvent-solvent interactions SR  1.28361E+04  3.64555E+00 -3.66667E+02   1.28361E+04  3.64555E+00 -3.66667E+02             
 Number solvent-solute interactions  SR  1.45800E+02  7.48331E-01  5.38290E-12   1.45800E+02  7.48331E-01  5.38290E-12             
 Number solute-solute interactions   SR  3.00000E+00  0.00000E+00  1.68216E-13   3.00000E+00  0.00000E+00  1.68216E-13             
 Number of solvent SHAKE iterations      2.61000E+01  3.00000E-01  3.03030E+00   2.61000E+01  3.00000E-01  3.03030E+00             
 Number of solute SHAKE iterations       4.00000E+00  0.00000E+00  0.00000E+00   4.00000E+00  0.00000E+00  0.00000E+00             
 Volume                                  8.03370E+00  2.72567E-03  4.73900E-01   8.03370E+00  2.72567E-03  4.73900E-01        nm**3
 Mass density                            9.81430E+02  3.32991E-01 -5.78950E+01   9.81430E+02  3.32991E-01 -5.78950E+01      kg/m**3
 Pressure                                6.97458E+07  1.09029E+07 -1.44776E+09   6.97458E+07  1.09029E+07 -1.44776E+09           Pa
 Pressure scaling                        1.00013E+00  1.97561E-05 -2.62333E-03   1.00013E+00  1.97561E-05 -2.62333E-03             
 Temperature                             3.06733E+02  3.23470E+00  5.51836E+02   3.06733E+02  3.23470E+00  5.51836E+02            K
 Temperature solvent                     3.08455E+02  3.37356E+00  5.71146E+02   3.08455E+02  3.37356E+00  5.71146E+02            K
 Temperature solute                      1.78327E+02  1.66767E+01 -8.88130E+02   1.78327E+02  1.66767E+01 -8.88130E+02            K
 Temperature scaling solvent             9.99747E-01  1.03694E-04 -1.77553E-02   9.99747E-01  1.03694E-04 -1.77553E-02             
 Temperature scaling solute              9.99747E-01  1.03694E-04 -1.77553E-02   9.99747E-01  1.03694E-04 -1.77553E-02             
 Energy electrostatic                   -1.35358E+04  2.63452E+01 -4.37768E+03  -1.35358E+04  2.63452E+01 -4.37768E+03       kJ/mol
 Energy van der Waals                    2.53065E+03  9.44129E+00  5.08143E+02   2.53065E+03  9.44129E+00  5.08143E+02       kJ/mol
 Energy potential                       -1.09818E+04  2.19475E+01 -3.67020E+03  -1.09818E+04  2.19475E+01 -3.67020E+03       kJ/mol
 Energy kinetic                          2.02367E+03  2.13409E+01  3.64073E+03   2.02367E+03  2.13409E+01  3.64073E+03       kJ/mol
 Energy total                           -8.95809E+03  2.57184E+00 -2.94685E+01  -8.95809E+03  2.57184E+00 -2.94685E+01       kJ/mol
 Potential energy perturbation 1         1.11658E+01  1.57883E+00  2.62390E+02   1.11658E+01  1.57883E+00  2.62390E+02       kJ/mol
 Potential energy perturbation 2         1.58780E+01  1.31551E+00  2.14742E+02   1.58780E+01  1.31551E+00  2.14742E+02       kJ/mol
 Total energy perturbation 1             1.11658E+01  1.57883E+00  2.62390E+02   1.11658E+01  1.57883E+00  2.62390E+02       kJ/mol
 Total energy perturbation 2             1.58780E+01  1.31551E+00  2.14742E+02   1.58780E+01  1.31551E+00  2.14742E+02       kJ/mol
 Derivative free energy wrt lambda       1.83189E+02  1.57382E+01 -2.02387E+03   1.83189E+02  1.57382E+01 -2.02387E+03       kJ/mol
 Energy solvent intra electrostatic      1.36242E+03  1.93010E-05  4.30632E-11   1.36242E+03  1.93010E-05  4.30632E-11       kJ/mol
 Energy solvent intra van der Waals      0.00000E+00  0.00000E+00  0.00000E+00   0.00000E+00  0.00000E+00  0.00000E+00       kJ/mol
 Energy solvent inter electrostatic     -1.48151E+04  3.06171E+01 -5.00069E+03  -1.48151E+04  3.06171E+01 -5.00069E+03       kJ/mol
 Energy solvent inter van der Waals      2.53650E+03  9.12960E+00  4.22804E+02   2.53650E+03  9.12960E+00  4.22804E+02       kJ/mol
 Energy solvent bonds                    0.00000E+00  0.00000E+00  0.00000E+00   0.00000E+00  0.00000E+00  0.00000E+00       kJ/mol
 Energy solvent Urey-Bradley             0.00000E+00  0.00000E+00  0.00000E+00   0.00000E+00  0.00000E+00  0.00000E+00       kJ/mol
 Energy solvent proper dihedrals         0.00000E+00  0.00000E+00  0.00000E+00   0.00000E+00  0.00000E+00  0.00000E+00       kJ/mol
 Energy solvent improper dihedrals       0.00000E+00  0.00000E+00  0.00000E+00   0.00000E+00  0.00000E+00  0.00000E+00       kJ/mol
 Energy solvent polarization             0.00000E+00  0.00000E+00  0.00000E+00   0.00000E+00  0.00000E+00  0.00000E+00       kJ/mol
 Energy solvent kinetic                  0.00000E+00  0.00000E+00  0.00000E+00   0.00000E+00  0.00000E+00  0.00000E+00       kJ/mol
 Synchronization time                    3.91822E-03  2.36441E-03 -1.99779E-01   3.91822E-03  2.36441E-03 -1.99779E-01            s
 Efficiency load balancing               7.93444E-01  8.48389E-02  6.31354E+00   7.93444E-01  8.48389E-02  6.31354E+00             
 Time per step                           4.28698E-03  6.98022E-04 -6.20792E-02   4.28698E-03  6.98022E-04 -6.20792E-02            s
 Virial tensor element (1,1)             2.03037E+02  1.54686E+02 -2.58160E+04   2.03037E+02  1.54686E+02 -2.58160E+04       kJ/mol
 Virial tensor element (1,2)             3.67375E+01  2.84250E+02 -4.77514E+04   3.67375E+01  2.84250E+02 -4.77514E+04       kJ/mol
 Virial tensor element (1,3)            -4.38545E+02  1.98934E+02  2.82977E+04  -4.38545E+02  1.98934E+02  2.82977E+04       kJ/mol
 Virial tensor element (2,1)             2.70922E+02  2.55397E+02 -4.27966E+04   2.70922E+02  2.55397E+02 -4.27966E+04       kJ/mol
 Virial tensor element (2,2)             5.93026E+02  9.02136E+01  1.52154E+04   5.93026E+02  9.02136E+01  1.52154E+04       kJ/mol
 Virial tensor element (2,3)            -1.68460E+02  1.96190E+02 -3.37614E+04  -1.68460E+02  1.96190E+02 -3.37614E+04       kJ/mol
 Virial tensor element (3,1)            -2.46582E+01  1.87052E+02  3.02991E+04  -2.46582E+01  1.87052E+02  3.02991E+04       kJ/mol
 Virial tensor element (3,2)             1.31417E+02  1.29103E+02  1.87933E+04   1.31417E+02  1.29103E+02  1.87933E+04       kJ/mol
 Virial tensor element (3,3)             2.26643E+02  1.70952E+02  2.77435E+04   2.26643E+02  1.70952E+02  2.77435E+04       kJ/mol
 Pressure tensor element (1,1)           3.23133E+07  9.63569E+06  1.60981E+09   3.23133E+07  9.63569E+06  1.60981E+09           Pa
 Pressure tensor element (1,2)          -1.34373E+06  1.80490E+07  3.02754E+09  -1.34373E+06  1.80490E+07  3.02754E+09           Pa
 Pressure tensor element (1,3)           2.77254E+07  1.38201E+07 -1.96561E+09   2.77254E+07  1.38201E+07 -1.96561E+09           Pa
 Pressure tensor element (2,1)          -1.74801E+07  1.62258E+07  2.68658E+09  -1.74801E+07  1.62258E+07  2.68658E+09           Pa
 Pressure tensor element (2,2)           5.88540E+06  6.38217E+06 -1.08666E+09   5.88540E+06  6.38217E+06 -1.08666E+09           Pa
 Pressure tensor element (2,3)           1.06368E+07  1.23016E+07  2.11067E+09   1.06368E+07  1.23016E+07  2.11067E+09           Pa
 Pressure tensor element (3,1)          -7.94406E+05  1.29410E+07 -2.10244E+09  -7.94406E+05  1.29410E+07 -2.10244E+09           Pa
 Pressure tensor element (3,2)          -1.00199E+07  1.00171E+07 -1.50983E+09  -1.00199E+07  1.00171E+07 -1.50983E+09           Pa
 Pressure tensor element (3,3)           3.15471E+07  1.19449E+07 -1.97091E+09   3.15471E+07  1.19449E+07 -1.97091E+09           Pa
 Kinetic energy element (1,1)            3.36007E+02  7.35865E+00 -1.21210E+03   3.36007E+02  7.35865E+00 -1.21210E+03       kJ/mol
 Kinetic energy element (1,2)            8.66421E+00  1.12123E+01 -1.91085E+03   8.66421E+00  1.12123E+01 -1.91085E+03       kJ/mol
 Kinetic energy element (1,3)           -1.81249E+01  8.18752E-01 -1.04116E+02  -1.81249E+01  8.18752E-01 -1.04116E+02       kJ/mol
 Kinetic energy element (2,1)            8.66421E+00  1.12123E+01 -1.91085E+03   8.66421E+00  1.12123E+01 -1.91085E+03       kJ/mol
 Kinetic energy element (2,2)            3.39201E+02  2.30741E+00 -2.73847E+02   3.39201E+02  2.30741E+00 -2.73847E+02       kJ/mol
 Kinetic energy element (2,3)           -7.01900E+00  9.01843E+00 -1.56091E+03  -7.01900E+00  9.01843E+00 -1.56091E+03       kJ/mol
 Kinetic energy element (3,1)           -1.81249E+01  8.18752E-01 -1.04116E+02  -1.81249E+01  8.18752E-01 -1.04116E+02       kJ/mol
 Kinetic energy element (3,2)           -7.01900E+00  9.01843E+00 -1.56091E+03  -7.01900E+00  9.01843E+00 -1.56091E+03       kJ/mol
 Kinetic energy element (3,3)            3.42197E+02  4.27371E+00 -4.13292E+02   3.42197E+02  4.27371E+00 -4.13292E+02       kJ/mol
 Box x-dimension                         2.00280E+00  2.26506E-04  3.93815E-02   2.00280E+00  2.26506E-04  3.93815E-02           nm
 Box y-dimension                         2.00280E+00  2.26506E-04  3.93815E-02   2.00280E+00  2.26506E-04  3.93815E-02           nm
 Box z-dimension                         2.00280E+00  2.26506E-04  3.93815E-02   2.00280E+00  2.26506E-04  3.93815E-02           nm
 Energy solute   1 intra-electrostatic   2.96480E+01  1.38131E-01  1.71074E+01   2.96480E+01  1.38131E-01  1.71074E+01       kJ/mol
 Energy solute   1 intra-van der Waals   0.00000E+00  0.00000E+00  0.00000E+00   0.00000E+00  0.00000E+00  0.00000E+00       kJ/mol
 Energy solute   1-solvent electrostatic-1.13353E+02  5.54011E+00  5.25626E+02  -1.13353E+02  5.54011E+00  5.25626E+02       kJ/mol
 Energy solute   1-solvent van der Waals-5.62399E+00  5.21870E-01  8.50528E+01  -5.62399E+00  5.21870E-01  8.50528E+01       kJ/mol
 Energy solute   1 bonds                 5.95718E-01  3.18178E-01 -3.32239E+01   5.95718E-01  3.18178E-01 -3.32239E+01       kJ/mol
 Energy solute   1 angles                1.10459E+01  2.74528E+00  2.98181E+02   1.10459E+01  2.74528E+00  2.98181E+02       kJ/mol
 Energy solute   1 Urey-Bradley          0.00000E+00  0.00000E+00  0.00000E+00   0.00000E+00  0.00000E+00  0.00000E+00       kJ/mol
 Energy solute   1 proper dihedrals      1.17978E+01  3.98375E-01 -6.56180E+01   1.17978E+01  3.98375E-01 -6.56180E+01       kJ/mol
 Energy solute   1 improper dihedrals    0.00000E+00  0.00000E+00  0.00000E+00   0.00000E+00  0.00000E+00  0.00000E+00       kJ/mol
 Energy solute   1 van der Waals 3rd    -2.35703E-01  2.13823E-03  2.85729E-01  -2.35703E-01  2.13823E-03  2.85729E-01       kJ/mol
 Energy solute   1 electrostatic 3rd     5.10533E-01  4.80004E-01  8.02771E+01   5.10533E-01  4.80004E-01  8.02771E+01       kJ/mol
 Energy solute   1 van der Waals nb      0.00000E+00  0.00000E+00  0.00000E+00   0.00000E+00  0.00000E+00  0.00000E+00       kJ/mol
 Energy solute   1 electrostatic nb      2.96480E+01  1.38131E-01  1.71074E+01   2.96480E+01  1.38131E-01  1.71074E+01       kJ/mol
 Energy solute   1 kinetic               1.55682E+01  1.45590E+00 -7.75349E+01   1.55682E+01  1.45590E+00 -7.75349E+01       kJ/mol
 Energy solute   1 potential            -6.12626E+00  3.68413E+00  6.02349E+02  -6.12626E+00  3.68413E+00  6.02349E+02       kJ/mol


 MULTICONFIGURATION THERMODYNAMIC INTEGRATION                                                                08/26/10   23:01:40 

 Run Lambda   Size  Derivative  Derivative  Derivative Lambda Free Energy Free Energy Free Energy Free Energy  Sampling
                       Average       Error       Drift        Accumulated       Error       Drift   Corrected     Ratio
                        kJ/mol      kJ/mol   kJ/mol ps             kJ/mol      kJ/mol   kJ/mol ps      kJ/mol

   1  0.000     10     183.189   10.608211-2023.873511  0.025       4.580    0.265205  -50.596838       0.000   2.02212


 MULTISTEP THERMODYNAMIC PERTURBATION                                                                        08/26/10   23:01:40 

 Run Lambda   Size Temperature     Reverse     Forward    Ensemble Lambda Accumulated        Bias   Corrected
                             K      kJ/mol      kJ/mol      kJ/mol             kJ/mol      kJ/mol      kJ/mol

   1  0.000     10     306.733      10.766      15.614       4.848  0.025       4.848       0.000       4.848

 TIMING ANALYSIS

                    Number of calls         Average times per call

                                               Wall            CPU

 MD step                   10                 0.005          0.004
 Summary of allocated global arrays
-----------------------------------
  No active global arrays



                         GA Statistics for process    0
                         ------------------------------

       create   destroy   get      put      acc     scatter   gather  read&inc
calls:    7        7      161      289       70        0        0        0     
number of processes/call 1.00e+00 1.00e+00 1.00e+00 0.00e+00 0.00e+00
bytes total:             5.94e+05 8.14e+05 4.55e+05 0.00e+00 0.00e+00 0.00e+00
bytes remote:            1.68e+05 5.58e+04 7.69e+04 0.00e+00 0.00e+00 0.00e+00
Max memory consumed for GA by this process: 184936 bytes
MA_summarize_allocated_blocks: starting scan ...
MA_summarize_allocated_blocks: scan completed: 0 heap blocks, 0 stack blocks
MA usage statistics:

	allocation statistics:
					      heap	     stack
					      ----	     -----
	current number of blocks	         0	         0
	maximum number of blocks	        22	        92
	current total bytes		         0	         0
	maximum total bytes		  17293600	  32494344
	maximum total K-bytes		     17294	     32495
	maximum total M-bytes		        18	        33
