 argument  1 = ethanol_md.nw



============================== echo of input deck ==============================
echo
memory noverify heap 1 mb stack 32 mb global 8 mb

start ethanol_md

prepare
 system ethanol_test
 free
 modify segment 1 final self
 new_top new_seq
end

task prepare

md
 print out6
 system ethanol_md
 step 0.001 equil 0 data 100
 cutoff 1.2
 leapfrog
 isotherm 298.16 trelax 0.1 0.1
 isobar 1.025e5 trelax 0.4 compress 4.53e-10
 print step 10 stat 100 extra topol
 update pairs 1 center 1 long 1 rdf 0
 record rest 0
 record prop 0 sync 0
 record coord 0 scoor 0
 record veloc 0 svelo 0
 load pairs
 test 10        #This is for testing only, not for general users.
end

task md dynamics
================================================================================


                                         
                                         


              Northwest Computational Chemistry Package (NWChem) 6.0
              ------------------------------------------------------


                    Environmental Molecular Sciences Laboratory
                       Pacific Northwest National Laboratory
                                Richland, WA 99352

                              Copyright (c) 1994-2010
                       Pacific Northwest National Laboratory
                            Battelle Memorial Institute

             NWChem is an open-source computational chemistry package
                        distributed under the terms of the
                      Educational Community License (ECL) 2.0
             A copy of the license is included with this distribution
                              in the LICENSE.TXT file

                                  ACKNOWLEDGMENT
                                  --------------

            This software and its documentation were developed at the
            EMSL at Pacific Northwest National Laboratory, a multiprogram
            national laboratory, operated for the U.S. Department of Energy
            by Battelle under Contract Number DE-AC05-76RL01830. Support
            for this work was provided by the Department of Energy Office
            of Biological and Environmental Research, Office of Basic
            Energy Sciences, and the Office of Advanced Scientific Computing.


           Job information
           ---------------

    hostname      = arcen
    program       = /home/d3y133/nwchem-releases/nwchem-merge/nwchem-dev/QA/../bin/LINUX64/nwchem
    date          = Mon Oct 25 15:19:39 2010

    compiled      = Mon_Oct_25_14:31:37_2010
    source        = /home/d3y133/nwchem-releases/nwchem-merge/nwchem-dev
    nwchem branch = Development
    input         = ethanol_md.nw
    prefix        = ethanol_md.
    data base     = /home/d3y133/nwchem-releases/nwchem-merge/nwchem-dev/QA/scratchdir/ethanol_md.db
    status        = startup
    nproc         =        4
    time left     =     -1s



           Memory information
           ------------------

    heap     =     131073 doubles =      1.0 Mbytes
    stack    =    4194305 doubles =     32.0 Mbytes
    global   =    1048576 doubles =      8.0 Mbytes (distinct from heap & stack)
    total    =    5373954 doubles =     41.0 Mbytes
    verify   = no 
    hardfail = no 


           Directory information
           ---------------------

  0 permanent = /home/d3y133/nwchem-releases/nwchem-merge/nwchem-dev/QA/scratchdir
  0 scratch   = /home/d3y133/nwchem-releases/nwchem-merge/nwchem-dev/QA/scratchdir




                                NWChem Input Module
                                -------------------


                                  Prepare Module
                                  --------------

 Force field                           amber


 Directories used for fragment and segment files

                                       /home/d3y133/nwchem-releases/nwchem-merge/nwchem-dev/QA/../src/data/amber_s/
                                       /home/d3y133/nwchem-releases/nwchem-merge/nwchem-dev/QA/../src/data/amber_x/
                                       ./

 Parameter files used to resolve force field parameters

                                       /home/d3y133/nwchem-releases/nwchem-merge/nwchem-dev/QA/../src/data/amber_s/amber.par
                                       /home/d3y133/nwchem-releases/nwchem-merge/nwchem-dev/QA/../src/data/amber_x/amber.par
                                       ./amber.par

 Deleted existing topology             ethanol.top
 PDB geometry                          ethanol.pdb


 Creating fragment for residue etl  

 Atom type definitions                 /home/d3y133/nwchem-releases/nwchem-merge/nwchem-dev/QA/../src/data/amber_s/amber.par
 Atom type definitions                 /home/d3y133/nwchem-releases/nwchem-merge/nwchem-dev/QA/../src/data/amber_x/amber.par
 Bond charge definitions               /home/d3y133/nwchem-releases/nwchem-merge/nwchem-dev/QA/../src/data/amber_s/amber.par
 Bond charge definitions               /home/d3y133/nwchem-releases/nwchem-merge/nwchem-dev/QA/../src/data/amber_x/amber.par

 Fragment                              etl

  num name  type   link cntr  grp pgrp    charge     polarizab

    1  C1   CT        0    0    0    1    1   -0.150000    0.000000
    2 2H1   HC        0    0    0    1    1    0.050000    0.000000
    3 3H1   HC        0    0    0    1    1    0.050000    0.000000
    4 4H1   HC        0    0    0    1    1    0.050000    0.000000
    5  C2   CT        0    0    0    1    1    0.200000    0.000000
    6 2H2   H1        0    0    0    1    1    0.050000    0.000000
    7 3H2   H1        0    0    0    1    1    0.050000    0.000000
    8  O    OH        0    0    0    1    1   -0.490000    0.000000
    9  H    HO        0    0    0    1    1    0.190000    0.000000
                                           ------------
                         total charge     0.000000

 Connectivity

       1-  2
       1-  3
       1-  4
       1-  5
       5-  6
       5-  7
       5-  8
       8-  9
 
 Created fragment                      ./etl.frg

 Created segment                       ./etl.sgm

 Created sequence                      ./ethanol.seq

 
 modify segment     1 set 3 self 
 Parameter file                        /home/d3y133/nwchem-releases/nwchem-merge/nwchem-dev/QA/../src/data/amber_s/amber.par
 Parameter file                        /home/d3y133/nwchem-releases/nwchem-merge/nwchem-dev/QA/../src/data/amber_x/amber.par
 
 Total charge                              0.000000    0.000000    0.000000

 Created topology                      ethanol.top

 Topology                              ethanol.top

 No command file found: Default restart directives

 Crystal waters done


 Created restart                       ethanol_test.rst


 Task  times  cpu:        0.0s     wall:        0.0s


                                NWChem Input Module
                                -------------------



 MOLECULAR DYNAMICS                                                                                          10/25/10   15:19:39 

 Title   NWChem:MD input                                                                                     10/25/10   15:19:39 
                                                                                         
                                                                                         

 System ethanol_md

 Force field parameter set    1

 Initial simulation

 Number of equilibration steps       0
 Number of data gathering steps    100

 Cutoff radius     1.200000 nm

 Isothermal ensemble external temperature   298.160000  298.160000 K
 Temperature relaxation time solvent          0.100000 ps
 Temperature relaxation time solute           0.100000 ps
 Temperature annealing between times          0.000000    0.000000 ps
 Isobaric ensemble external pressure  1.02500E+05 Pa
 Pressure relaxation time     0.400000 ps
 Compressebility  4.53000E-10 m**2/N

 Leap-frog integration

 Maximum number of solvent SHAKE iterations   100, solvent SHAKE tolerance     0.000001 nm
 Maximum number of solute SHAKE iterations    100, solute SHAKE tolerance      0.000001 nm

 Frequency update pair lists                              1
 Frequency removal overall motion                         0
 Frequency solute centering                               1
 Frequency printing step information                     10
 Frequency printing statistical information             100
 Frequency recording restart file                         0
 Frequency recording system coordinates                   0
 Frequency recording solute coordinates                   0
 Frequency recording system velocities                    0
 Frequency recording solute velocities                    0
 Frequency recording system forces                        0
 Frequency recording solute forces                        0

 LOAD BALANCING

 Redistribution of inter-processor box pairs

 Load balancing frequency     1

 Load balancing based on last synchronization time

 Distribution information

 Short range cutoff                   1.200000
 Segment size                         0.358073
 Long range cutoff                    1.200000
 Box size rbox                        0.000000

 Box dimension                        2.002312    2.002312    2.002312

 Initial cell size                    1.379037

 Initial cell distribution            1    2    2
 Final cell distribution              1    2    2

 Minimum cell size                    1.379037    0.689518    0.689518

 ARRAY DIMENSION INFORMATION

 Number cells per processor:        1
 Number of buffer cells:            6
 Total number of cells:             4
 Dimension solvent local:         465, global:    465
 Dimension solute local:           19, global:     19

 TOPOLOGY FILE INFORMATION

 Title        NWChem topology file for ethanol_test                                           
                                                                                              
              Generated by the NWChem prepare module                                          
 Version          4.600000
 Date         10/25/10   15:19:39 
 Force field  amber     

 RESTART FILE INFORMATION

 Title        Restart file                                                                    
                                                                                              
                                                                                              
 Version          4.200000
 Date         04/07/04  15:27:45  

 History

 d3j191            04/07/04  15:27:45             0 md       0 +   10000 @ 298.15 0.10E+06 etl_md            

 TOPOLOGY

 ATOM TYPES

        Set Type       Atomic  Mass
                       number

    1    1  CT            6   12.010000
         2  CT            6   12.010000
         3  CT   S        6   12.010000

    2    1  HC            1    1.008000
         2  HC            1    1.008000
         3  HC   S        1    1.008000

    3    1  H1            1    1.008000
         2  H1            1    1.008000
         3  H1   S        1    1.008000

    4    1  OH            8   16.000000
         2  OH            8   16.000000
         3  OH   S        8   16.000000

    5    1  HO            1    1.008000
         2  HO            1    1.008000
         3  HO   S        1    1.008000

    6    1  OWS  w        8   15.999400
         2  OWS  w        8   15.999400
         3  OWS  w        8   15.999400

    7    1  HWS  w        1    1.008000
         2  HWS  w        1    1.008000
         3  HWS  w        1    1.008000

 VAN DER WAALS PARAMETERS

             Set  Atom types  v. d. Waals v. d. Waals v. d. Waals v. d. Waals
                               dispersion  dispersion   repulsion   repulsion
                                           3rd neighb              3rd neighb

    1    1    1   CT    CT    2.82676E-03 1.41338E-03 4.36425E-06 2.18213E-06
              2   CT    CT    2.82676E-03 1.41338E-03 4.36425E-06 2.18213E-06
              3   CT    CT    2.82676E-03 1.41338E-03 4.36425E-06 2.18213E-06

    1    2    1   CT    HC    5.31030E-04 2.65515E-04 4.06563E-07 2.03281E-07
              2   CT    HC    5.31030E-04 2.65515E-04 4.06563E-07 2.03281E-07
              3   CT    HC    5.31030E-04 2.65515E-04 4.06563E-07 2.03281E-07

    1    3    1   CT    H1    4.43826E-04 2.21913E-04 2.83998E-07 1.41999E-07
              2   CT    H1    4.43826E-04 2.21913E-04 2.83998E-07 1.41999E-07
              3   CT    H1    4.43826E-04 2.21913E-04 2.83998E-07 1.41999E-07

    1    4    1   CT    OH    2.89985E-03 1.44992E-03 3.31182E-06 1.65591E-06
              2   CT    OH    2.89985E-03 1.44992E-03 3.31182E-06 1.65591E-06
              3   CT    OH    2.89985E-03 1.44992E-03 3.31182E-06 1.65591E-06

    1    5    1   CT    HO    0.00000E+00 0.00000E+00 0.00000E+00 0.00000E+00
              2   CT    HO    0.00000E+00 0.00000E+00 0.00000E+00 0.00000E+00
              3   CT    HO    0.00000E+00 0.00000E+00 0.00000E+00 0.00000E+00

    1    6    1   CT    OWS   2.73021E-03 1.36511E-03 3.41598E-06 1.70799E-06
              2   CT    OWS   2.73021E-03 1.36511E-03 3.41598E-06 1.70799E-06
              3   CT    OWS   0.00000E+00 0.00000E+00 0.00000E+00 0.00000E+00

    1    7    1   CT    HWS   0.00000E+00 0.00000E+00 0.00000E+00 0.00000E+00
              2   CT    HWS   0.00000E+00 0.00000E+00 0.00000E+00 0.00000E+00
              3   CT    HWS   0.00000E+00 0.00000E+00 0.00000E+00 0.00000E+00

    2    2    1   HC    HC    9.09007E-05 4.54503E-05 3.14473E-08 1.57236E-08
              2   HC    HC    9.09007E-05 4.54503E-05 3.14473E-08 1.57236E-08
              3   HC    HC    9.09007E-05 4.54503E-05 3.14473E-08 1.57236E-08

    2    3    1   HC    H1    7.40358E-05 3.70179E-05 2.08609E-08 1.04304E-08
              2   HC    H1    7.40358E-05 3.70179E-05 2.08609E-08 1.04304E-08
              3   HC    H1    7.40358E-05 3.70179E-05 2.08609E-08 1.04304E-08

    2    4    1   HC    OH    5.24204E-04 2.62102E-04 2.85678E-07 1.42839E-07
              2   HC    OH    5.24204E-04 2.62102E-04 2.85678E-07 1.42839E-07
              3   HC    OH    5.24204E-04 2.62102E-04 2.85678E-07 1.42839E-07

    2    5    1   HC    HO    0.00000E+00 0.00000E+00 0.00000E+00 0.00000E+00
              2   HC    HO    0.00000E+00 0.00000E+00 0.00000E+00 0.00000E+00
              3   HC    HO    0.00000E+00 0.00000E+00 0.00000E+00 0.00000E+00

    2    6    1   HC    OWS   4.99434E-04 2.49717E-04 3.01743E-07 1.50872E-07
              2   HC    OWS   4.99434E-04 2.49717E-04 3.01743E-07 1.50872E-07
              3   HC    OWS   0.00000E+00 0.00000E+00 0.00000E+00 0.00000E+00

    2    7    1   HC    HWS   0.00000E+00 0.00000E+00 0.00000E+00 0.00000E+00
              2   HC    HWS   0.00000E+00 0.00000E+00 0.00000E+00 0.00000E+00
              3   HC    HWS   0.00000E+00 0.00000E+00 0.00000E+00 0.00000E+00

    3    3    1   H1    H1    5.98632E-05 2.99316E-05 1.36386E-08 6.81928E-09
              2   H1    H1    5.98632E-05 2.99316E-05 1.36386E-08 6.81928E-09
              3   H1    H1    5.98632E-05 2.99316E-05 1.36386E-08 6.81928E-09

    3    4    1   H1    OH    4.33491E-04 2.16746E-04 1.95360E-07 9.76802E-08
              2   H1    OH    4.33491E-04 2.16746E-04 1.95360E-07 9.76802E-08
              3   H1    OH    4.33491E-04 2.16746E-04 1.95360E-07 9.76802E-08

    3    5    1   H1    HO    0.00000E+00 0.00000E+00 0.00000E+00 0.00000E+00
              2   H1    HO    0.00000E+00 0.00000E+00 0.00000E+00 0.00000E+00
              3   H1    HO    0.00000E+00 0.00000E+00 0.00000E+00 0.00000E+00

    3    6    1   H1    OWS   4.14368E-04 2.07184E-04 2.07708E-07 1.03854E-07
              2   H1    OWS   4.14368E-04 2.07184E-04 2.07708E-07 1.03854E-07
              3   H1    OWS   0.00000E+00 0.00000E+00 0.00000E+00 0.00000E+00

    3    7    1   H1    HWS   0.00000E+00 0.00000E+00 0.00000E+00 0.00000E+00
              2   H1    HWS   0.00000E+00 0.00000E+00 0.00000E+00 0.00000E+00
              3   H1    HWS   0.00000E+00 0.00000E+00 0.00000E+00 0.00000E+00

    4    4    1   OH    OH    2.92774E-03 1.46387E-03 2.43427E-06 1.21713E-06
              2   OH    OH    2.92774E-03 1.46387E-03 2.43427E-06 1.21713E-06
              3   OH    OH    2.92774E-03 1.46387E-03 2.43427E-06 1.21713E-06

    4    5    1   OH    HO    0.00000E+00 0.00000E+00 0.00000E+00 0.00000E+00
              2   OH    HO    0.00000E+00 0.00000E+00 0.00000E+00 0.00000E+00
              3   OH    HO    0.00000E+00 0.00000E+00 0.00000E+00 0.00000E+00

    4    6    1   OH    OWS   2.77006E-03 1.38503E-03 2.53564E-06 1.26782E-06
              2   OH    OWS   2.77006E-03 1.38503E-03 2.53564E-06 1.26782E-06
              3   OH    OWS   0.00000E+00 0.00000E+00 0.00000E+00 0.00000E+00

    4    7    1   OH    HWS   0.00000E+00 0.00000E+00 0.00000E+00 0.00000E+00
              2   OH    HWS   0.00000E+00 0.00000E+00 0.00000E+00 0.00000E+00
              3   OH    HWS   0.00000E+00 0.00000E+00 0.00000E+00 0.00000E+00

    5    5    1   HO    HO    0.00000E+00 0.00000E+00 0.00000E+00 0.00000E+00
              2   HO    HO    0.00000E+00 0.00000E+00 0.00000E+00 0.00000E+00
              3   HO    HO    0.00000E+00 0.00000E+00 0.00000E+00 0.00000E+00

    5    6    1   HO    OWS   0.00000E+00 0.00000E+00 0.00000E+00 0.00000E+00
              2   HO    OWS   0.00000E+00 0.00000E+00 0.00000E+00 0.00000E+00
              3   HO    OWS   0.00000E+00 0.00000E+00 0.00000E+00 0.00000E+00

    5    7    1   HO    HWS   0.00000E+00 0.00000E+00 0.00000E+00 0.00000E+00
              2   HO    HWS   0.00000E+00 0.00000E+00 0.00000E+00 0.00000E+00
              3   HO    HWS   0.00000E+00 0.00000E+00 0.00000E+00 0.00000E+00

    6    6    1   OWS   OWS   2.61691E-03 1.30845E-03 2.63324E-06 1.31662E-06
              2   OWS   OWS   2.61691E-03 1.30845E-03 2.63324E-06 1.31662E-06
              3   OWS   OWS   2.61691E-03 1.30845E-03 2.63324E-06 1.31662E-06

    6    7    1   OWS   HWS   0.00000E+00 0.00000E+00 0.00000E+00 0.00000E+00
              2   OWS   HWS   0.00000E+00 0.00000E+00 0.00000E+00 0.00000E+00
              3   OWS   HWS   0.00000E+00 0.00000E+00 0.00000E+00 0.00000E+00

    7    7    1   HWS   HWS   0.00000E+00 0.00000E+00 0.00000E+00 0.00000E+00
              2   HWS   HWS   0.00000E+00 0.00000E+00 0.00000E+00 0.00000E+00
              3   HWS   HWS   0.00000E+00 0.00000E+00 0.00000E+00 0.00000E+00

 CHARGE TYPES

         Charge

    1   -0.150000   -0.150000   -0.150000
    2    0.050000    0.050000    0.050000
    3    0.200000    0.200000    0.200000
    4   -0.490000   -0.490000   -0.490000
    5    0.190000    0.190000    0.190000
    6   -0.847600   -0.847600   -0.847600
    7    0.423800    0.423800    0.423800
    8    0.000000    0.000000    0.000000
    9   -0.150000   -0.150000    0.000000
   10    0.050000    0.050000    0.000000
   11    0.200000    0.200000    0.000000
   12   -0.490000   -0.490000    0.000000
   13    0.190000    0.190000    0.000000


         Polarization

    1    0.000000    0.000000    0.000000
    2    0.000000    0.000000    0.000000
    3    0.000000    0.000000    0.000000
    4    0.000000    0.000000    0.000000
    5    0.000000    0.000000    0.000000
    6    0.000000    0.000000    0.000000
    7    0.000000    0.000000    0.000000
    8    0.000000    0.000000    0.000000
    9    0.000000    0.000000    0.000000
   10    0.000000    0.000000    0.000000
   11    0.000000    0.000000    0.000000
   12    0.000000    0.000000    0.000000
   13    0.000000    0.000000    0.000000

 SOLUTE


 Total solute charge is         0.0000000000


 DATA PACKING

 Packing solute in   1 integers :   15
               significant bits :    5   4   4   4   2   2   2   2   5   2   7   5   5   4   2
 Packing solvent in  1 integers :    4
               significant bits :   10   4   4   5

 POSITIONAL CONSTRAINTS
 Number of fix directives is     0

 Solute fix applied to         0 out of        9 atoms
 Solvent fix applied to        0 out of      261 molecules


 DOMAIN DECOMPOSITION

 Processor count     4 =    1 x    2 x    2
 Cell count          4 =    1 x    2 x    2

 Minimum cell size     1.380416 x    0.690208 x    0.690208

 Unable to read previous box pair list


 Initial distribution p:b(w+s)

      0:    1(    192+      0)      1:    1(    201+      9)      2:    1(    189+      0)      3:    1(    201+      0)

 Dimension workarrays solvent    465
                      solute      19

 MOLECULAR DYNAMICS TIME STEP INFORMATION                                                                    10/25/10   15:19:39 

    Time      Temp    Pres      Volume Tscalw Tscals  Pscal    U(ele)    U(vdW)      U(pot)     U(kin)     U(tot) 
     ps         K      Pa        nm**3                         kJ/mol    kJ/mol      kJ/mol     kJ/mol     kJ/mol 

                 U(bnd)     U(ang)     U(dih)     U(imp)     Ui(ele)    Ui(vdW)    Uw(ele)    Uw(vdW)    U(kin)     U(pot)     U(tot)
                 kJ/mol     kJ/mol     kJ/mol     kJ/mol     kJ/mol     kJ/mol     kJ/mol     kJ/mol     kJ/mol     kJ/mol     kJ/mol  

    0.01000  300.75 9.39E+07     8.037 1.0000 1.0030 1.0001-1.3361E+04 2.4881E+03-1.0850E+04 1.9842E+03-8.8656E+03
   solvent         0.00       0.00       0.00       0.00       5.22       0.00     -56.13       9.55       7.54       0.00     -41.35
   solute  1       0.21      10.48       0.00      12.60      10.77       0.00     -62.10      -6.94       0.00     -34.98     -34.98
    0.02000  311.13 8.11E+07     8.045 0.9998 1.0026 1.0001-1.3456E+04 2.5107E+03-1.0923E+04 2.0527E+03-8.8707E+03
   solvent         0.00       0.00       0.00       0.00       5.22       0.00     -56.55       9.64       7.79       0.00     -41.69
   solute  1       1.29       7.65       0.00      12.69      10.89       0.00     -45.68      -6.74       0.00     -19.90     -19.90
    0.03000  298.14 9.72E+07     8.053 1.0000 1.0019 1.0001-1.3375E+04 2.5124E+03-1.0840E+04 1.9669E+03-8.8729E+03
   solvent         0.00       0.00       0.00       0.00       5.22       0.00     -56.29       9.65       7.46       0.00     -41.42
   solute  1       0.00      10.39       0.00      11.84      10.79       0.00     -30.96      -8.87       0.00      -6.81      -6.81
    0.04000  300.60 6.22E+07     8.060 0.9999 1.0011 1.0001-1.3355E+04 2.4739E+03-1.0855E+04 1.9832E+03-8.8723E+03
   solvent         0.00       0.00       0.00       0.00       5.22       0.00     -56.22       9.53       7.51       0.00     -41.47
   solute  1       2.52      12.59       0.00      10.26      10.87       0.00     -31.44     -14.91       0.00     -10.11     -10.11
    0.05000  298.26 6.68E+07     8.066 1.0000 1.0003 1.0001-1.3333E+04 2.4702E+03-1.0840E+04 1.9678E+03-8.8719E+03
   solvent         0.00       0.00       0.00       0.00       5.22       0.00     -56.12       9.53       7.45       0.00     -41.37
   solute  1       3.71       9.86       0.00       9.78      10.84       0.00     -35.58     -20.05       0.00     -21.44     -21.44
    0.06000  297.91 6.20E+07     8.072 1.0000 1.0000 1.0001-1.3320E+04 2.4555E+03-1.0844E+04 1.9655E+03-8.8781E+03
   solvent         0.00       0.00       0.00       0.00       5.22       0.00     -56.06       9.48       7.44       0.00     -41.35
   solute  1       0.38      10.90       0.00       9.35      10.96       0.00     -37.66     -23.02       0.00     -29.08     -29.08
    0.07000  307.78 2.43E+07     8.076 0.9999 0.9998 1.0000-1.3344E+04 2.4180E+03-1.0906E+04 2.0306E+03-8.8756E+03
   solvent         0.00       0.00       0.00       0.00       5.22       0.00     -56.17       9.35       7.68       0.00     -41.60
   solute  1       1.64       9.51       0.00       8.45      10.67       0.00     -33.36     -24.13       0.00     -27.21     -27.21
    0.08000  320.19 1.97E+07     8.077 0.9996 0.9994 1.0000-1.3462E+04 2.4402E+03-1.1008E+04 2.1124E+03-8.8958E+03
   solvent         0.00       0.00       0.00       0.00       5.22       0.00     -56.62       9.44       7.98       0.00     -41.96
   solute  1       0.21       5.07       0.00       8.70      10.80       0.00     -35.19     -24.37       0.00     -34.77     -34.77
    0.09000  302.33 7.67E+07     8.082 0.9999 1.0000 1.0001-1.3392E+04 2.4814E+03-1.0894E+04 1.9946E+03-8.8990E+03
   solvent         0.00       0.00       0.00       0.00       5.22       0.00     -56.36       9.60       7.54       0.00     -41.54
   solute  1       0.46       8.86       0.00       7.35      10.85       0.00     -32.08     -24.54       0.00     -29.10     -29.10
    0.10000  308.67 8.02E+07     8.090 0.9999 0.9995 1.0001-1.3456E+04 2.5079E+03-1.0935E+04 2.0365E+03-8.8982E+03
   solvent         0.00       0.00       0.00       0.00       5.22       0.00     -56.60       9.70       7.68       0.00     -41.68
   solute  1       0.08       6.79       0.00       6.66      10.86       0.00     -32.94     -24.80       0.00     -33.34     -33.34

 MOLECULAR DYNAMICS STATISTICAL INFORMATION                                                                  10/25/10   15:19:40 

                                           Statistics over last      100 steps     Statistics over last      100 steps
                                           Average     RMS fluct     Drift/ps      Average     RMS fluct     Drift/ps

 Step                                    5.05000E+01  2.88661E+01  1.00000E+03   5.05000E+01  2.88661E+01  1.00000E+03             
 Time                                    5.05000E-02  2.88661E-02  1.00000E+00   5.05000E-02  2.88661E-02  1.00000E+00           ps
 Number solvent-solvent interactions SR  2.69195E+04  5.79204E+01 -1.94683E+03   2.69195E+04  5.79204E+01 -1.94683E+03             
 Number solvent-solute interactions  SR  2.37060E+02  4.65188E-01  9.61296E+00   2.37060E+02  4.65188E-01  9.61296E+00             
 Number solute-solute interactions   SR  3.00000E+00  0.00000E+00  2.13184E-14   3.00000E+00  0.00000E+00  2.13184E-14             
 Number of solvent SHAKE iterations      2.30000E+01  0.00000E+00  5.11642E-13   2.30000E+01  0.00000E+00  5.11642E-13             
 Number of solute SHAKE iterations       3.12000E+00  3.24962E-01  5.08851E+00   3.12000E+00  3.24962E-01  5.08851E+00             
 Volume                                  8.06321E+00  1.66978E-02  5.69627E-01   8.06321E+00  1.66978E-02  5.69627E-01        nm**3
 Mass density                            9.77841E+02  2.02675E+00 -6.91207E+01   9.77841E+02  2.02675E+00 -6.91207E+01      kg/m**3
 Pressure                                6.81265E+07  2.70473E+07 -5.42893E+08   6.81265E+07  2.70473E+07 -5.42893E+08           Pa
 Pressure scaling                        1.00008E+00  3.06311E-05 -6.14827E-04   1.00008E+00  3.06311E-05 -6.14827E-04             
 Temperature                             3.04009E+02  6.89061E+00  7.31368E+01   3.04009E+02  6.89061E+00  7.31368E+01            K
 Temperature solvent                     3.04543E+02  6.97613E+00  5.59540E+01   3.04543E+02  6.97613E+00  5.59540E+01            K
 Temperature solute                      2.64233E+02  5.34904E+01  1.35448E+03   2.64233E+02  5.34904E+01  1.35448E+03            K
 Temperature scaling solvent             9.99898E-01  1.09420E-04 -8.44687E-04   9.99898E-01  1.09420E-04 -8.44687E-04             
 Temperature scaling solute              1.00094E+00  1.44293E-03 -3.50198E-02   1.00094E+00  1.44293E-03 -3.50198E-02             
 Energy electrostatic                   -1.33811E+04  4.82267E+01 -2.17656E+02  -1.33811E+04  4.82267E+01 -2.17656E+02       kJ/mol
 Energy van der Waals                    2.47572E+03  2.95734E+01 -5.23471E+02   2.47572E+03  2.95734E+01 -5.23471E+02       kJ/mol
 Energy potential                       -1.08849E+04  5.03911E+01 -8.09972E+02  -1.08849E+04  5.03911E+01 -8.09972E+02       kJ/mol
 Energy kinetic                          2.00570E+03  4.54607E+01  4.82519E+02   2.00570E+03  4.54607E+01  4.82519E+02       kJ/mol
 Energy total                           -8.87919E+03  1.09249E+01 -3.27453E+02  -8.87919E+03  1.09249E+01 -3.27453E+02       kJ/mol
 Energy solvent intra electrostatic      1.36242E+03  0.00000E+00  7.64052E-11   1.36242E+03  0.00000E+00  7.64052E-11       kJ/mol
 Energy solvent intra van der Waals      0.00000E+00  0.00000E+00  0.00000E+00   0.00000E+00  0.00000E+00  0.00000E+00       kJ/mol
 Energy solvent inter electrostatic     -1.46913E+04  4.93020E+01 -4.72757E+02  -1.46913E+04  4.93020E+01 -4.72757E+02       kJ/mol
 Energy solvent inter van der Waals      2.49054E+03  2.49995E+01 -2.70464E+02   2.49054E+03  2.49995E+01 -2.70464E+02       kJ/mol
 Energy solvent bonds                    0.00000E+00  0.00000E+00  0.00000E+00   0.00000E+00  0.00000E+00  0.00000E+00       kJ/mol
 Energy solvent Urey-Bradley             0.00000E+00  0.00000E+00  0.00000E+00   0.00000E+00  0.00000E+00  0.00000E+00       kJ/mol
 Energy solvent proper dihedrals         0.00000E+00  0.00000E+00  0.00000E+00   0.00000E+00  0.00000E+00  0.00000E+00       kJ/mol
 Energy solvent improper dihedrals       0.00000E+00  0.00000E+00  0.00000E+00   0.00000E+00  0.00000E+00  0.00000E+00       kJ/mol
 Energy solvent polarization             0.00000E+00  0.00000E+00  0.00000E+00   0.00000E+00  0.00000E+00  0.00000E+00       kJ/mol
 Energy solvent kinetic                  0.00000E+00  0.00000E+00  0.00000E+00   0.00000E+00  0.00000E+00  0.00000E+00       kJ/mol
 Synchronization time                    6.48592E-03  1.76428E-03 -2.19058E-03   6.48592E-03  1.76428E-03 -2.19058E-03            s
 Efficiency load balancing               7.75551E-01  4.32780E-02  1.93410E-02   7.75551E-01  4.32780E-02  1.93410E-02             
 Time per step                           6.93698E-03  4.82093E-04 -1.28436E-03   6.93698E-03  4.82093E-04 -1.28436E-03            s
 Virial tensor element (1,1)             5.80121E+01  1.12905E+02  6.69772E+02   5.80121E+01  1.12905E+02  6.69772E+02       kJ/mol
 Virial tensor element (1,2)            -8.70061E+01  2.21149E+02  4.84411E+02  -8.70061E+01  2.21149E+02  4.84411E+02       kJ/mol
 Virial tensor element (1,3)            -2.47990E+02  2.98406E+02  1.24746E+03  -2.47990E+02  2.98406E+02  1.24746E+03       kJ/mol
 Virial tensor element (2,1)            -7.23239E+01  2.88246E+02 -8.82206E+02  -7.23239E+01  2.88246E+02 -8.82206E+02       kJ/mol
 Virial tensor element (2,2)             6.87003E+02  1.86520E+02  3.48322E+03   6.87003E+02  1.86520E+02  3.48322E+03       kJ/mol
 Virial tensor element (2,3)            -9.89426E+01  3.56612E+02 -2.39893E+03  -9.89426E+01  3.56612E+02 -2.39893E+03       kJ/mol
 Virial tensor element (3,1)            -1.91701E+02  2.69410E+02 -1.64520E+03  -1.91701E+02  2.69410E+02 -1.64520E+03       kJ/mol
 Virial tensor element (3,2)            -8.38554E+01  3.48341E+02 -6.02837E+03  -8.38554E+01  3.48341E+02 -6.02837E+03       kJ/mol
 Virial tensor element (3,3)             2.53363E+02  3.18478E+02  4.83625E+03   2.53363E+02  3.18478E+02  4.83625E+03       kJ/mol
 Pressure tensor element (1,1)           3.95805E+07  7.10735E+06 -7.32122E+07   3.95805E+07  7.10735E+06 -7.32122E+07           Pa
 Pressure tensor element (1,2)           6.09699E+06  1.51070E+07 -6.89540E+07   6.09699E+06  1.51070E+07 -6.89540E+07           Pa
 Pressure tensor element (1,3)           1.32601E+07  2.01242E+07 -1.00702E+08   1.32601E+07  2.01242E+07 -1.00702E+08           Pa
 Pressure tensor element (2,1)           5.08262E+06  1.94738E+07  2.52563E+07   5.08262E+06  1.94738E+07  2.52563E+07           Pa
 Pressure tensor element (2,2)          -6.32166E+05  1.13082E+07 -1.68561E+08  -6.32166E+05  1.13082E+07 -1.68561E+08           Pa
 Pressure tensor element (2,3)           6.63245E+06  2.38648E+07  1.94797E+08   6.63245E+06  2.38648E+07  1.94797E+08           Pa
 Pressure tensor element (3,1)           9.38003E+06  1.78421E+07  9.86557E+07   9.38003E+06  1.78421E+07  9.86557E+07           Pa
 Pressure tensor element (3,2)           5.58010E+06  2.34733E+07  4.44376E+08   5.58010E+06  2.34733E+07  4.44376E+08           Pa
 Pressure tensor element (3,3)           2.91781E+07  2.05074E+07 -3.01120E+08   2.91781E+07  2.05074E+07 -3.01120E+08           Pa
 Kinetic energy element (1,1)            3.17239E+02  1.23182E+01 -1.78117E+02   3.17239E+02  1.23182E+01 -1.78117E+02       kJ/mol
 Kinetic energy element (1,2)            9.01180E-01  1.01438E+01 -2.61408E+02   9.01180E-01  1.01438E+01 -2.61408E+02       kJ/mol
 Kinetic energy element (1,3)           -2.74672E+01  7.27889E+00 -1.02646E+02  -2.74672E+01  7.27889E+00 -1.02646E+02       kJ/mol
 Kinetic energy element (2,1)            9.01180E-01  1.01438E+01 -2.61408E+02   9.01180E-01  1.01438E+01 -2.61408E+02       kJ/mol
 Kinetic energy element (2,2)            3.38816E+02  2.63086E+01  5.16795E+02   3.38816E+02  2.63086E+01  5.16795E+02       kJ/mol
 Kinetic energy element (2,3)           -1.12814E+00  1.33201E+01  2.29337E+02  -1.12814E+00  1.33201E+01  2.29337E+02       kJ/mol
 Kinetic energy element (3,1)           -2.74672E+01  7.27889E+00 -1.02646E+02  -2.74672E+01  7.27889E+00 -1.02646E+02       kJ/mol
 Kinetic energy element (3,2)           -1.12814E+00  1.33201E+01  2.29337E+02  -1.12814E+00  1.33201E+01  2.29337E+02       kJ/mol
 Kinetic energy element (3,3)            3.39041E+02  1.33922E+01  2.43776E+02   3.39041E+02  1.33922E+01  2.43776E+02       kJ/mol
 Box x-dimension                         2.00525E+00  1.38461E-03  4.72298E-02   2.00525E+00  1.38461E-03  4.72298E-02           nm
 Box y-dimension                         2.00525E+00  1.38461E-03  4.72298E-02   2.00525E+00  1.38461E-03  4.72298E-02           nm
 Box z-dimension                         2.00525E+00  1.38461E-03  4.72298E-02   2.00525E+00  1.38461E-03  4.72298E-02           nm
 Energy solute   1 intra-electrostatic   1.08235E+01  7.86302E-02  8.42824E-02   1.08235E+01  7.86302E-02  8.42824E-02       kJ/mol
 Energy solute   1 intra-van der Waals   0.00000E+00  0.00000E+00  0.00000E+00   0.00000E+00  0.00000E+00  0.00000E+00       kJ/mol
 Energy solute   1-solvent electrostatic-3.90811E+01  1.04738E+01  2.58856E+02  -3.90811E+01  1.04738E+01  2.58856E+02       kJ/mol
 Energy solute   1-solvent van der Waals-1.69785E+01  7.53472E+00 -2.45500E+02  -1.69785E+01  7.53472E+00 -2.45500E+02       kJ/mol
 Energy solute   1 bonds                 1.08739E+00  1.11397E+00 -3.07231E+00   1.08739E+00  1.11397E+00 -3.07231E+00       kJ/mol
 Energy solute   1 angles                9.38554E+00  2.52197E+00 -4.84726E-01   9.38554E+00  2.52197E+00 -4.84726E-01       kJ/mol
 Energy solute   1 Urey-Bradley          0.00000E+00  0.00000E+00  0.00000E+00   0.00000E+00  0.00000E+00  0.00000E+00       kJ/mol
 Energy solute   1 proper dihedrals      1.00296E+01  1.93239E+00 -6.52872E+01   1.00296E+01  1.93239E+00 -6.52872E+01       kJ/mol
 Energy solute   1 improper dihedrals    0.00000E+00  0.00000E+00  0.00000E+00   0.00000E+00  0.00000E+00  0.00000E+00       kJ/mol
 Energy solute   1 van der Waals 3rd     2.15916E+00  1.05207E+00 -7.50682E+00   2.15916E+00  1.05207E+00 -7.50682E+00       kJ/mol
 Energy solute   1 electrostatic 3rd    -2.39562E+01  5.94394E-01 -3.83975E+00  -2.39562E+01  5.94394E-01 -3.83975E+00       kJ/mol
 Energy solute   1 van der Waals nb      0.00000E+00  0.00000E+00  0.00000E+00   0.00000E+00  0.00000E+00  0.00000E+00       kJ/mol
 Energy solute   1 electrostatic nb      1.08235E+01  7.86302E-02  8.42824E-02   1.08235E+01  7.86302E-02  8.42824E-02       kJ/mol
 Energy solute   1 kinetic               2.30679E+01  4.66978E+00  1.18248E+02   2.30679E+01  4.66978E+00  1.18248E+02       kJ/mol
 Energy solute   1 potential            -1.85008E+01  5.09448E+00 -7.34286E+01  -1.85008E+01  5.09448E+00 -7.34286E+01       kJ/mol

 TIMING ANALYSIS

                    Number of calls         Average times per call

                                               Wall            CPU

 MD step                  100                 0.007          0.007
 Summary of allocated global arrays
-----------------------------------
  No active global arrays



                         GA Statistics for process    0
                         ------------------------------

       create   destroy   get      put      acc     scatter   gather  read&inc
calls:    7        7     1162     2274      700        0        0        0     
number of processes/call 1.00e+00 1.00e+00 1.00e+00 0.00e+00 0.00e+00
bytes total:             5.27e+06 7.15e+06 4.55e+06 0.00e+00 0.00e+00 0.00e+00
bytes remote:            1.30e+06 5.62e+04 7.72e+05 0.00e+00 0.00e+00 0.00e+00
Max memory consumed for GA by this process: 184936 bytes
MA_summarize_allocated_blocks: starting scan ...
MA_summarize_allocated_blocks: scan completed: 0 heap blocks, 0 stack blocks
MA usage statistics:

	allocation statistics:
					      heap	     stack
					      ----	     -----
	current number of blocks	         0	         0
	maximum number of blocks	        22	        90
	current total bytes		         0	         0
	maximum total bytes		  17298208	  32494344
	maximum total K-bytes		     17299	     32495
	maximum total M-bytes		        18	        33
