 argument  1 = metagga_li4h4_0_dldf_dldf.nw
All connections between all procs tested: SUCCESS
 


============================== echo of input deck ==============================
echo
start metagga_dat
geometry noautosym
   li           -0.86951255    -0.86951258    -0.86951257
   h            -0.94323913    -0.94323915     0.94323910
   h            -0.94323915     0.94323911    -0.94323918
   h             0.94323909    -0.94323917    -0.94323918
   li            0.86951263     0.86951263    -0.86951264
   li            0.86951266    -0.86951265     0.86951266
   li           -0.86951267     0.86951268     0.86951268
   h             0.94323913     0.94323913     0.94323914
end

basis
  * library "6-311++G(2d,2p)"
end

dft
  direct
  # there no facility to request the exchange or correlation components by themselves.
  xc dldf
  maxiter 1000
end

driver
  clear
  maxiter 100
end

task dft optimize
task dft frequencies numerical
================================================================================


                                         
                                         
 
 
              Northwest Computational Chemistry Package (NWChem) 6.5
              ------------------------------------------------------
 
 
                    Environmental Molecular Sciences Laboratory
                       Pacific Northwest National Laboratory
                                Richland, WA 99352
 
                              Copyright (c) 1994-2013
                       Pacific Northwest National Laboratory
                            Battelle Memorial Institute
 
             NWChem is an open-source computational chemistry package
                        distributed under the terms of the
                      Educational Community License (ECL) 2.0
             A copy of the license is included with this distribution
                              in the LICENSE.TXT file
 
                                  ACKNOWLEDGMENT
                                  --------------

            This software and its documentation were developed at the
            EMSL at Pacific Northwest National Laboratory, a multiprogram
            national laboratory, operated for the U.S. Department of Energy
            by Battelle under Contract Number DE-AC05-76RL01830. Support
            for this work was provided by the Department of Energy Office
            of Biological and Environmental Research, Office of Basic
            Energy Sciences, and the Office of Advanced Scientific Computing.


           Job information
           ---------------

    hostname        = arcen
    program         = /home/d3y133/nwchem-dev/nwchem-dev-2015-01-16/bin/LINUX64/nwchem
    date            = Mon Feb  2 20:04:03 2015

    compiled        = Mon_Feb_02_10:11:44_2015
    source          = /home/d3y133/nwchem-dev/nwchem-dev-2015-01-16
    nwchem branch   = Development
    nwchem revision = 26704
    ga revision     = 10514
    input           = metagga_li4h4_0_dldf_dldf.nw
    prefix          = metagga_dat.
    data base       = /home/d3y133/nwchem-dev/nwchem-trunk-nonwad/QA/scratchdir/metagga_dat.db
    status          = startup
    nproc           =        4
    time left       =     -1s



           Memory information
           ------------------

    heap     =   13107196 doubles =    100.0 Mbytes
    stack    =   13107201 doubles =    100.0 Mbytes
    global   =   26214400 doubles =    200.0 Mbytes (distinct from heap & stack)
    total    =   52428797 doubles =    400.0 Mbytes
    verify   = yes
    hardfail = no 


           Directory information
           ---------------------
 
  0 permanent = /home/d3y133/nwchem-dev/nwchem-trunk-nonwad/QA/scratchdir
  0 scratch   = /home/d3y133/nwchem-dev/nwchem-trunk-nonwad/QA/scratchdir
 
 
 
 
                                NWChem Input Module
                                -------------------
 
 

 Scaling coordinates for geometry "geometry" by  1.889725989
 (inverse scale =  0.529177249)


          ------
          auto-z
          ------
  autoz: excessive number of variables                    312
                    18

 AUTOZ failed to generate good internal coordinates.
 Cartesian coordinates will be used in optimizations.

 
 
                             Geometry "geometry" -> ""
                             -------------------------
 
 Output coordinates in angstroms (scale by  1.889725989 to convert to a.u.)
 
  No.       Tag          Charge          X              Y              Z
 ---- ---------------- ---------- -------------- -------------- --------------
    1 li                   3.0000    -0.86951256    -0.86951259    -0.86951259
    2 h                    1.0000    -0.94323914    -0.94323916     0.94323908
    3 h                    1.0000    -0.94323916     0.94323910    -0.94323920
    4 h                    1.0000     0.94323908    -0.94323918    -0.94323920
    5 li                   3.0000     0.86951262     0.86951262    -0.86951266
    6 li                   3.0000     0.86951265    -0.86951266     0.86951264
    7 li                   3.0000    -0.86951268     0.86951267     0.86951266
    8 h                    1.0000     0.94323912     0.94323912     0.94323912
 
      Atomic Mass 
      ----------- 
 
      li                 7.016000
      h                  1.007825
 

 Effective nuclear repulsion energy (a.u.)      25.3234783205

            Nuclear Dipole moment (a.u.) 
            ----------------------------
        X                 Y               Z
 ---------------- ---------------- ----------------
    -0.0000000000    -0.0000000000     0.0000000000
 
 
            XYZ format geometry
            -------------------
     8
 geometry
 li                   -0.86951256    -0.86951259    -0.86951259
 h                    -0.94323914    -0.94323916     0.94323908
 h                    -0.94323916     0.94323910    -0.94323920
 h                     0.94323908    -0.94323918    -0.94323920
 li                    0.86951262     0.86951262    -0.86951266
 li                    0.86951265    -0.86951266     0.86951264
 li                   -0.86951268     0.86951267     0.86951266
 h                     0.94323912     0.94323912     0.94323912
 
 ==============================================================================
                                internuclear distances
 ------------------------------------------------------------------------------
       center one      |      center two      | atomic units |  angstroms
 ------------------------------------------------------------------------------
    5 li               |   1 li               |     4.64750  |     2.45935
    6 li               |   1 li               |     4.64750  |     2.45935
    6 li               |   5 li               |     4.64750  |     2.45935
    7 li               |   1 li               |     4.64750  |     2.45935
    7 li               |   5 li               |     4.64750  |     2.45935
    7 li               |   6 li               |     4.64750  |     2.45935
 ------------------------------------------------------------------------------
                         number of included internuclear distances:          6
 ==============================================================================



 ==============================================================================
                                 internuclear angles
 ------------------------------------------------------------------------------
        center 1       |       center 2       |       center 3       |  degrees
 ------------------------------------------------------------------------------
    5 li               |   1 li               |   6 li               |    60.00
    5 li               |   1 li               |   7 li               |    60.00
    6 li               |   1 li               |   7 li               |    60.00
    5 li               |   1 li               |   6 li               |    60.00
    5 li               |   1 li               |   7 li               |    60.00
    6 li               |   5 li               |   7 li               |    60.00
    6 li               |   1 li               |   5 li               |    60.00
    6 li               |   1 li               |   7 li               |    60.00
    6 li               |   5 li               |   7 li               |    60.00
    7 li               |   1 li               |   5 li               |    60.00
    7 li               |   1 li               |   6 li               |    60.00
    7 li               |   5 li               |   6 li               |    60.00
 ------------------------------------------------------------------------------
                            number of included internuclear angles:         12
 ==============================================================================



  library name resolved from: environment
  library file name is: <
 /home/d3y133/nwchem-dev/nwchem-trunk-nonwad/QA/../src/basis/libraries/>
  


 Summary of "ao basis" -> "" (cartesian)
 ------------------------------------------------------------------------------
       Tag                 Description            Shells   Functions and Types
 ---------------- ------------------------------  ------  ---------------------
 *                      6-311++G(2d,2p)               on all atoms 


 
  Deleted DRIVER restart files 
 
 
 
                           NWChem Geometry Optimization
                           ----------------------------
 
 
 maximum gradient threshold         (gmax) =   0.000450
 rms gradient threshold             (grms) =   0.000300
 maximum cartesian step threshold   (xmax) =   0.001800
 rms cartesian step threshold       (xrms) =   0.001200
 fixed trust radius                (trust) =   0.300000
 maximum step size to saddle      (sadstp) =   0.100000
 energy precision                  (eprec) =   5.0D-06
 maximum number of steps          (nptopt) =  100
 initial hessian option           (inhess) =    0
 line search option               (linopt) =    1
 hessian update option            (modupd) =    1
 saddle point option              (modsad) =    0
 initial eigen-mode to follow     (moddir) =    0
 initial variable to follow       (vardir) =    0
 follow first negative mode     (firstneg) =    T
 apply conjugacy                    (opcg) =    F
 source of zmatrix                         =           


          -------------------
          Energy Minimization
          -------------------

 
 Using diagonal initial Hessian 

          --------
          Step   0
          --------
 
 
                         Geometry "geometry" -> "geometry"
                         ---------------------------------
 
 Output coordinates in angstroms (scale by  1.889725989 to convert to a.u.)
 
  No.       Tag          Charge          X              Y              Z
 ---- ---------------- ---------- -------------- -------------- --------------
    1 li                   3.0000    -0.86951256    -0.86951259    -0.86951259
    2 h                    1.0000    -0.94323914    -0.94323916     0.94323908
    3 h                    1.0000    -0.94323916     0.94323910    -0.94323920
    4 h                    1.0000     0.94323908    -0.94323918    -0.94323920
    5 li                   3.0000     0.86951262     0.86951262    -0.86951266
    6 li                   3.0000     0.86951265    -0.86951266     0.86951264
    7 li                   3.0000    -0.86951268     0.86951267     0.86951266
    8 h                    1.0000     0.94323912     0.94323912     0.94323912
 
      Atomic Mass 
      ----------- 
 
      li                 7.016000
      h                  1.007825
 

 Effective nuclear repulsion energy (a.u.)      25.3234783205

            Nuclear Dipole moment (a.u.) 
            ----------------------------
        X                 Y               Z
 ---------------- ---------------- ----------------
    -0.0000000000    -0.0000000000     0.0000000000
 
 
                                 NWChem DFT Module
                                 -----------------
 
 
                      Basis "ao basis" -> "ao basis" (cartesian)
                      -----
  li (Lithium)
  ------------
            Exponent  Coefficients 
       -------------- ---------------------------------------------------------
  1 S  9.00460000E+02  0.002287
  1 S  1.34433000E+02  0.017635
  1 S  3.04365000E+01  0.087343
  1 S  8.62639000E+00  0.280977
  1 S  2.48332000E+00  0.658741
  1 S  3.03179000E-01  0.118712
 
  2 S  4.86890000E+00  0.093329
  2 S  8.56924000E-01  0.943045
  2 S  2.43227000E-01 -0.002798
 
  3 P  4.86890000E+00  0.032766
  3 P  8.56924000E-01  0.159792
  3 P  2.43227000E-01  0.885667
 
  4 S  6.35070000E-02  1.000000
 
  5 P  6.35070000E-02  1.000000
 
  6 S  2.43683000E-02  1.000000
 
  7 P  2.43683000E-02  1.000000
 
  8 S  7.40000000E-03  1.000000
 
  9 P  7.40000000E-03  1.000000
 
 10 D  4.00000000E-01  1.000000
 
 11 D  1.00000000E-01  1.000000
 
  h (Hydrogen)
  ------------
            Exponent  Coefficients 
       -------------- ---------------------------------------------------------
  1 S  3.38650000E+01  0.025494
  1 S  5.09479000E+00  0.190373
  1 S  1.15879000E+00  0.852161
 
  2 S  3.25840000E-01  1.000000
 
  3 S  1.02741000E-01  1.000000
 
  4 S  3.60000000E-02  1.000000
 
  5 P  1.50000000E+00  1.000000
 
  6 P  3.75000000E-01  1.000000
 


 Summary of "ao basis" -> "ao basis" (cartesian)
 ------------------------------------------------------------------------------
       Tag                 Description            Shells   Functions and Types
 ---------------- ------------------------------  ------  ---------------------
 li                     6-311++G(2d,2p)             11       29   5s4p2d
 h                      6-311++G(2d,2p)              6       10   4s2p




 Summary of "ao basis" -> "ao basis" (cartesian)
 ------------------------------------------------------------------------------
       Tag                 Description            Shells   Functions and Types
 ---------------- ------------------------------  ------  ---------------------
 li                     6-311++G(2d,2p)             11       29   5s4p2d
 h                      6-311++G(2d,2p)              6       10   4s2p


  Caching 1-el integrals 
 
            General Information
            -------------------
          SCF calculation type: DFT
          Wavefunction type:  closed shell.
          No. of atoms     :     8
          No. of electrons :    16
           Alpha electrons :     8
            Beta electrons :     8
          Charge           :     0
          Spin multiplicity:     1
          Use of symmetry is: off; symmetry adaption is: off
          Maximum number of iterations: ***
          This is a Direct SCF calculation.
          AO basis - number of functions:   156
                     number of shells:    68
          Convergence on energy requested: 1.00D-06
          Convergence on density requested: 1.00D-05
          Convergence on gradient requested: 5.00D-04
 
              XC Information
              --------------
                         dlDF Method XC Functional
                     Hartree-Fock (Exact) Exchange  0.614          
                          dlDF Exchange Functional  0.386          
                        dlDF Correlation Potential  1.000          
 
             Grid Information
             ----------------
          Grid used for XC integration:  medium    
          Radial quadrature: Mura-Knowles        
          Angular quadrature: Lebedev. 
          Tag              B.-S. Rad. Rad. Pts. Rad. Cut. Ang. Pts.
          ---              ---------- --------- --------- ---------
          li                  1.45       49          22.0       434
          h                   0.35       45          17.0       434
          Grid pruning is: on 
          Number of quadrature shells:   376
          Spatial weights used:  Erf1
 
          Convergence Information
          -----------------------
          Convergence aids based upon iterative change in 
          total energy or number of iterations. 
          Levelshifting, if invoked, occurs when the 
          HOMO/LUMO gap drops below (HL_TOL): 1.00D-02
          DIIS, if invoked, will attempt to extrapolate 
          using up to (NFOCK): 10 stored Fock matrices.

                    Damping( 0%)  Levelshifting(0.5)       DIIS
                  --------------- ------------------- ---------------
          dE  on:    start            ASAP                start   
          dE off:    2 iters        *** iters           *** iters 

 
      Screening Tolerance Information
      -------------------------------
          Density screening/tol_rho: 1.00D-10
          AO Gaussian exp screening on grid/accAOfunc:  14
          CD Gaussian exp screening on grid/accCDfunc:  20
          XC Gaussian exp screening on grid/accXCfunc:  20
          Schwarz screening/accCoul: 1.00D-08

 
      Superposition of Atomic Density Guess
      -------------------------------------
 
 Sum of atomic energies:         -31.72729480
 
      Non-variational initial energy
      ------------------------------

 Total energy =     -31.934051
 1-e energy   =     -90.491177
 2-e energy   =      33.233648
 HOMO         =      -0.380570
 LUMO         =      -0.044914
 
   Time after variat. SCF:      0.4
   Time prior to 1st pass:      0.4

 Grid_pts file          = /home/d3y133/nwchem-dev/nwchem-trunk-nonwad/QA/scratchdir/metagga_dat.gridpts.0
 Record size in doubles =  12289        No. of grid_pts per rec  =   3070
 Max. records in memory =     16        Max. recs in file   = 253312716

 Grid integrated density:      16.000129732132
 Requested integration accuracy:   0.10E-05

           Memory utilization after 1st SCF pass: 
           Heap Space remaining (MW):       12.88            12882468
          Stack Space remaining (MW):       13.11            13106180

   convergence    iter        energy       DeltaE   RMS-Dens  Diis-err    time
 ---------------- ----- ----------------- --------- --------- ---------  ------
 d= 0,ls=0.0,diis     1    -33.2471211123 -5.86D+01  8.31D-03  2.25D-01     3.6
 Grid integrated density:      16.000093913625
 Requested integration accuracy:   0.10E-05
 d= 0,ls=0.0,diis     2    -33.2804387429 -3.33D-02  2.26D-03  5.72D-03     6.7
 Grid integrated density:      16.000096937565
 Requested integration accuracy:   0.10E-05
 d= 0,ls=0.0,diis     3    -33.2820496511 -1.61D-03  4.85D-04  2.58D-04     9.9
 Grid integrated density:      16.000095745441
 Requested integration accuracy:   0.10E-05
 d= 0,ls=0.0,diis     4    -33.2821527305 -1.03D-04  1.10D-04  7.72D-06    13.1
 Grid integrated density:      16.000095887976
 Requested integration accuracy:   0.10E-05
 d= 0,ls=0.0,diis     5    -33.2821572361 -4.51D-06  2.11D-05  2.25D-07    16.3
 Grid integrated density:      16.000095950822
 Requested integration accuracy:   0.10E-05
 d= 0,ls=0.0,diis     6    -33.2821573621 -1.26D-07  4.29D-06  8.03D-09    19.5


         Total DFT energy =      -33.282157362119
      One electron energy =      -92.963476943480
           Coulomb energy =       44.314140437245
    Exchange-Corr. energy =       -9.956299176371
 Nuclear repulsion energy =       25.323478320486

 Numeric. integr. density =       16.000095950822

     Total iterative time =     19.1s


 
                       DFT Final Molecular Orbital Analysis
                       ------------------------------------
 
 Vector    1  Occ=2.000000D+00  E=-2.209522D+00
              MO Center=  3.8D-06,  4.4D-06,  5.1D-06, r^2= 2.4D+00
   Bfn.  Coefficient  Atom+Function         Bfn.  Coefficient  Atom+Function  
  ----- ------------  ---------------      ----- ------------  ---------------
     1      0.313430  1 Li s                 60      0.313433  5 Li s          
    89      0.313433  6 Li s                118      0.313434  7 Li s          
     2      0.204364  1 Li s                 61      0.204366  5 Li s          
    90      0.204366  6 Li s                119      0.204366  7 Li s          
 
 Vector    2  Occ=2.000000D+00  E=-2.207590D+00
              MO Center= -2.5D-01,  3.3D-01,  7.9D-01, r^2= 1.6D+00
   Bfn.  Coefficient  Atom+Function         Bfn.  Coefficient  Atom+Function  
  ----- ------------  ---------------      ----- ------------  ---------------
   118      0.505039  7 Li s                 89     -0.349312  6 Li s          
   119      0.325117  7 Li s                 90     -0.224869  6 Li s          
 
 Vector    3  Occ=2.000000D+00  E=-2.207590D+00
              MO Center=  7.9D-01,  2.4D-01, -1.7D-01, r^2= 1.7D+00
   Bfn.  Coefficient  Atom+Function         Bfn.  Coefficient  Atom+Function  
  ----- ------------  ---------------      ----- ------------  ---------------
    60      0.485556  5 Li s                 89     -0.377366  6 Li s          
    61      0.312575  5 Li s                 90     -0.242928  6 Li s          
 
 Vector    4  Occ=2.000000D+00  E=-2.207590D+00
              MO Center= -5.4D-01, -5.7D-01, -6.2D-01, r^2= 1.4D+00
   Bfn.  Coefficient  Atom+Function         Bfn.  Coefficient  Atom+Function  
  ----- ------------  ---------------      ----- ------------  ---------------
     1      0.543908  1 Li s                  2      0.350139  1 Li s          
    60     -0.206961  5 Li s                 89     -0.179846  6 Li s          
   118     -0.157095  7 Li s          
 
 Vector    5  Occ=2.000000D+00  E=-3.870173D-01
              MO Center=  7.2D-09, -1.2D-08,  2.5D-08, r^2= 3.2D+00
   Bfn.  Coefficient  Atom+Function         Bfn.  Coefficient  Atom+Function  
  ----- ------------  ---------------      ----- ------------  ---------------
     6      0.191553  1 Li s                 65      0.191555  5 Li s          
    94      0.191556  6 Li s                123      0.191557  7 Li s          
    32      0.182092  2 H  s                 42      0.182092  3 H  s          
    52      0.182093  4 H  s                149      0.182091  8 H  s          
    31      0.154498  2 H  s                 41      0.154498  3 H  s          
 
 Vector    6  Occ=2.000000D+00  E=-3.079366D-01
              MO Center=  8.5D-01, -8.8D-02, -7.0D-02, r^2= 3.1D+00
   Bfn.  Coefficient  Atom+Function         Bfn.  Coefficient  Atom+Function  
  ----- ------------  ---------------      ----- ------------  ---------------
    52      0.286837  4 H  s                149     -0.261523  8 H  s          
    51      0.250423  4 H  s                148     -0.228319  8 H  s          
    50      0.151995  4 H  s          
 
 Vector    7  Occ=2.000000D+00  E=-3.079366D-01
              MO Center= -2.0D-01,  5.2D-01, -5.1D-01, r^2= 3.3D+00
   Bfn.  Coefficient  Atom+Function         Bfn.  Coefficient  Atom+Function  
  ----- ------------  ---------------      ----- ------------  ---------------
    42      0.303354  3 H  s                 41      0.264843  3 H  s          
   149     -0.173193  8 H  s                 52     -0.170894  4 H  s          
    40      0.160747  3 H  s                148     -0.151204  8 H  s          
 
 Vector    8  Occ=2.000000D+00  E=-3.079366D-01
              MO Center= -6.5D-01, -4.3D-01,  5.8D-01, r^2= 2.9D+00
   Bfn.  Coefficient  Atom+Function         Bfn.  Coefficient  Atom+Function  
  ----- ------------  ---------------      ----- ------------  ---------------
    32      0.333343  2 H  s                 31      0.291023  2 H  s          
    30      0.176638  2 H  s          
 
 Vector    9  Occ=0.000000D+00  E=-1.283202D-02
              MO Center= -6.9D-06, -1.9D-05, -2.9D-05, r^2= 2.7D+01
   Bfn.  Coefficient  Atom+Function         Bfn.  Coefficient  Atom+Function  
  ----- ------------  ---------------      ----- ------------  ---------------
    10      0.195594  1 Li s                 69      0.196010  5 Li s          
    98      0.196160  6 Li s                127      0.196344  7 Li s          
   131      0.184829  7 Li s                102      0.182641  6 Li s          
    73      0.180851  5 Li s                 14      0.175937  1 Li s          
 
 Vector   10  Occ=0.000000D+00  E=-8.798847D-04
              MO Center= -4.6D-01,  6.2D-01,  1.4D+00, r^2= 3.4D+01
   Bfn.  Coefficient  Atom+Function         Bfn.  Coefficient  Atom+Function  
  ----- ------------  ---------------      ----- ------------  ---------------
   131     13.252251  7 Li s                102     -9.091033  6 Li s          
    73     -3.735497  5 Li s                132      1.659536  7 Li px         
   133     -1.531859  7 Li py               134     -1.325973  7 Li pz         
   103      1.292712  6 Li px               104     -1.165939  6 Li py         
    74      0.820914  5 Li px               105      0.640263  6 Li pz         
 
 Vector   11  Occ=0.000000D+00  E=-8.798828D-04
              MO Center=  1.5D+00,  4.2D-01, -3.0D-01, r^2= 3.4D+01
   Bfn.  Coefficient  Atom+Function         Bfn.  Coefficient  Atom+Function  
  ----- ------------  ---------------      ----- ------------  ---------------
    73     12.732420  5 Li s                102     -9.981343  6 Li s          
   131     -3.242367  7 Li s                 76      1.628963  5 Li pz         
    75     -1.484733  5 Li py               105      1.385943  6 Li pz         
   104     -1.243273  6 Li py                74     -1.226392  5 Li px         
   134      0.793058  7 Li pz               103      0.773023  6 Li px         
 
 Vector   12  Occ=0.000000D+00  E=-8.798747D-04
              MO Center= -1.0D+00, -1.0D+00, -1.1D+00, r^2= 3.3D+01
   Bfn.  Coefficient  Atom+Function         Bfn.  Coefficient  Atom+Function  
  ----- ------------  ---------------      ----- ------------  ---------------
    14     14.285055  1 Li s                 73     -5.322124  5 Li s          
   102     -4.699287  6 Li s                131     -4.263627  7 Li s          
    15      1.641849  1 Li px                16      1.625486  1 Li py         
    17      1.601769  1 Li pz                74      0.852935  5 Li px         
    75      0.836099  5 Li py               103      0.798282  6 Li px         
 
 Vector   13  Occ=0.000000D+00  E= 1.456281D-02
              MO Center=  1.1D+00,  1.2D+00,  1.7D+00, r^2= 7.3D+01
   Bfn.  Coefficient  Atom+Function         Bfn.  Coefficient  Atom+Function  
  ----- ------------  ---------------      ----- ------------  ---------------
    14     89.689738  1 Li s                 73    -42.173864  5 Li s          
   102    -27.827890  6 Li s                131    -19.717897  7 Li s          
    15      8.691206  1 Li px                16      8.355834  1 Li py         
    17      7.756881  1 Li pz                74      5.602754  5 Li px         
    75      5.260822  5 Li py               103      4.688952  6 Li px         
 
 Vector   14  Occ=0.000000D+00  E= 1.456823D-02
              MO Center= -2.0D+00, -3.0D-01,  1.5D-01, r^2= 7.4D+01
   Bfn.  Coefficient  Atom+Function         Bfn.  Coefficient  Atom+Function  
  ----- ------------  ---------------      ----- ------------  ---------------
    73     76.992982  5 Li s                102    -67.058735  6 Li s          
   131    -20.739850  7 Li s                 14     10.790655  1 Li s          
    76      8.625125  5 Li pz               105      7.953102  6 Li pz         
    75     -7.289006  5 Li py               104     -6.636033  6 Li py         
    74     -5.346293  5 Li px               134      5.001859  7 Li pz         
 
 Vector   15  Occ=0.000000D+00  E= 1.457116D-02
              MO Center=  9.1D-01, -1.1D+00, -2.0D+00, r^2= 7.2D+01
   Bfn.  Coefficient  Atom+Function         Bfn.  Coefficient  Atom+Function  
  ----- ------------  ---------------      ----- ------------  ---------------
   131     86.024960  7 Li s                102    -54.378490  6 Li s          
    73    -22.938878  5 Li s                 14     -8.689720  1 Li s          
   132      8.731622  7 Li px               133     -8.124424  7 Li py         
   134     -6.798359  7 Li pz               103      6.739731  6 Li px         
   104     -6.143347  6 Li py                74      4.728679  5 Li px         
 
 Vector   16  Occ=0.000000D+00  E= 1.461906D-02
              MO Center=  3.9D-02,  1.4D-01,  2.1D-01, r^2= 8.7D+01
   Bfn.  Coefficient  Atom+Function         Bfn.  Coefficient  Atom+Function  
  ----- ------------  ---------------      ----- ------------  ---------------
    14      3.020386  1 Li s                131     -1.963722  7 Li s          
   134      1.268307  7 Li pz               133      1.223344  7 Li py         
   105      1.176398  6 Li pz               132     -1.118992  7 Li px         
   103      1.070492  6 Li px                75      1.063667  5 Li py         
    74      1.002787  5 Li px               104     -0.966267  6 Li py         
 
 Vector   17  Occ=0.000000D+00  E= 1.568128D-02
              MO Center= -3.5D-04, -2.0D-03,  1.0D-05, r^2= 5.6D+01
   Bfn.  Coefficient  Atom+Function         Bfn.  Coefficient  Atom+Function  
  ----- ------------  ---------------      ----- ------------  ---------------
    16     -0.818723  1 Li py               104     -0.818612  6 Li py         
    75      0.814122  5 Li py               133      0.813332  7 Li py         
    15      0.765040  1 Li px                74     -0.765857  5 Li px         
   103     -0.764457  6 Li px               132      0.767162  7 Li px         
 
 Vector   18  Occ=0.000000D+00  E= 1.568128D-02
              MO Center= -6.3D-04, -5.2D-04, -3.8D-03, r^2= 5.6D+01
   Bfn.  Coefficient  Atom+Function         Bfn.  Coefficient  Atom+Function  
  ----- ------------  ---------------      ----- ------------  ---------------
    17      0.916574  1 Li pz                76      0.918346  5 Li pz         
   105     -0.909087  6 Li pz               134     -0.909062  7 Li pz         
    15     -0.500647  1 Li px               103      0.501129  6 Li px         
   132     -0.502733  7 Li px                74      0.497204  5 Li px         
   104     -0.415141  6 Li py                16     -0.413037  1 Li py         
 
 Vector   19  Occ=0.000000D+00  E= 2.023126D-02
              MO Center= -1.1D+00,  1.4D+00,  2.7D+00, r^2= 7.5D+01
   Bfn.  Coefficient  Atom+Function         Bfn.  Coefficient  Atom+Function  
  ----- ------------  ---------------      ----- ------------  ---------------
   131     77.698942  7 Li s                102    -48.923739  6 Li s          
    73    -21.202179  5 Li s                132      8.950787  7 Li px         
   133     -8.553288  7 Li py               134     -7.765476  7 Li pz         
    14     -7.573338  1 Li s                103      6.361505  6 Li px         
   104     -5.982692  6 Li py                74      3.870585  5 Li px         
 
 Vector   20  Occ=0.000000D+00  E= 2.023187D-02
              MO Center=  2.7D+00,  4.7D-01, -3.1D-01, r^2= 7.7D+01
   Bfn.  Coefficient  Atom+Function         Bfn.  Coefficient  Atom+Function  
  ----- ------------  ---------------      ----- ------------  ---------------
    73     69.590354  5 Li s                102    -60.606195  6 Li s          
   131    -18.266782  7 Li s                 14      9.282898  1 Li s          
    76      8.469393  5 Li pz                75     -7.674683  5 Li py         
   105      7.647304  6 Li pz               104     -6.885934  6 Li py         
    74     -6.488413  5 Li px               103      5.177740  6 Li px         
 
 Vector   21  Occ=0.000000D+00  E= 2.023304D-02
              MO Center= -1.6D+00, -1.8D+00, -2.3D+00, r^2= 7.4D+01
   Bfn.  Coefficient  Atom+Function         Bfn.  Coefficient  Atom+Function  
  ----- ------------  ---------------      ----- ------------  ---------------
    14     80.968525  1 Li s                 73    -37.537027  5 Li s          
   102    -25.207479  6 Li s                131    -18.223391  7 Li s          
    15      9.017107  1 Li px                16      8.829087  1 Li py         
    17      8.487463  1 Li pz                74      5.128921  5 Li px         
    75      4.929496  5 Li py               103      4.026681  6 Li px         
 
 Vector   22  Occ=0.000000D+00  E= 2.876336D-02
              MO Center= -2.8D-01,  1.3D-01, -2.7D-01, r^2= 9.0D+01
   Bfn.  Coefficient  Atom+Function         Bfn.  Coefficient  Atom+Function  
  ----- ------------  ---------------      ----- ------------  ---------------
    15      8.231504  1 Li px               132     -8.249753  7 Li px         
    17     -8.208700  1 Li pz                76      8.217356  5 Li pz         
    75      5.139033  5 Li py               133     -5.143349  7 Li py         
   105      3.094916  6 Li pz               134     -3.086268  7 Li pz         
   103     -3.068730  6 Li px                74      3.050489  5 Li px         
 
 Vector   23  Occ=0.000000D+00  E= 2.876337D-02
              MO Center= -7.2D-02, -3.3D-01,  1.5D-01, r^2= 9.0D+01
   Bfn.  Coefficient  Atom+Function         Bfn.  Coefficient  Atom+Function  
  ----- ------------  ---------------      ----- ------------  ---------------
    16      8.870976  1 Li py               104     -8.883893  6 Li py         
   105     -7.155300  6 Li pz               134      7.163144  7 Li pz         
    17     -4.587258  1 Li pz                76      4.595104  5 Li pz         
    15     -4.281273  1 Li px               132      4.289086  7 Li px         
    75      2.872632  5 Li py               133     -2.885543  7 Li py         
 
 Vector   24  Occ=0.000000D+00  E= 2.876339D-02
              MO Center=  3.5D-01,  2.1D-01,  1.3D-01, r^2= 9.0D+01
   Bfn.  Coefficient  Atom+Function         Bfn.  Coefficient  Atom+Function  
  ----- ------------  ---------------      ----- ------------  ---------------
    74      8.834878  5 Li px               103     -8.835250  6 Li px         
    75     -7.454027  5 Li py               133      7.456299  7 Li py         
   105      5.428273  6 Li pz               134     -5.428477  7 Li pz         
    16      3.406709  1 Li py               104     -3.404444  6 Li py         
    15     -2.026018  1 Li px               132      2.025652  7 Li px         
 
 Vector   25  Occ=0.000000D+00  E= 4.102126D-02
              MO Center= -9.3D-06, -8.5D-05, -1.9D-04, r^2= 4.0D+01
   Bfn.  Coefficient  Atom+Function         Bfn.  Coefficient  Atom+Function  
  ----- ------------  ---------------      ----- ------------  ---------------
    17      0.838973  1 Li pz               105     -0.842567  6 Li pz         
   134     -0.841988  7 Li pz                76      0.837367  5 Li pz         
    16     -0.670641  1 Li py                75      0.673504  5 Li py         
   104     -0.669243  6 Li py               133      0.671068  7 Li py         
    13     -0.589383  1 Li pz                72     -0.589618  5 Li pz         
 
 Vector   26  Occ=0.000000D+00  E= 4.102126D-02
              MO Center= -4.7D-05, -6.4D-05, -3.8D-05, r^2= 4.0D+01
   Bfn.  Coefficient  Atom+Function         Bfn.  Coefficient  Atom+Function  
  ----- ------------  ---------------      ----- ------------  ---------------
    15      0.873096  1 Li px                74     -0.873152  5 Li px         
   103     -0.872995  6 Li px               132      0.871043  7 Li px         
    11     -0.611869  1 Li px                70      0.611898  5 Li px         
    99      0.611920  6 Li px               128     -0.612167  7 Li px         
   133      0.584540  7 Li py                16     -0.581406  1 Li py         
 
 Vector   27  Occ=0.000000D+00  E= 4.335190D-02
              MO Center= -3.8D-02, -4.5D-02, -5.8D-02, r^2= 6.3D+01
   Bfn.  Coefficient  Atom+Function         Bfn.  Coefficient  Atom+Function  
  ----- ------------  ---------------      ----- ------------  ---------------
    14    153.056783  1 Li s                 73    -72.077307  5 Li s          
   102    -47.398088  6 Li s                131    -33.577744  7 Li s          
    15     14.609995  1 Li px                16     14.078561  1 Li py         
    17     13.139767  1 Li pz                74      9.266156  5 Li px         
    75      8.746505  5 Li py               103      7.636700  6 Li px         
 
 Vector   28  Occ=0.000000D+00  E= 4.335933D-02
              MO Center=  5.8D-02,  8.1D-03, -1.1D-02, r^2= 6.3D+01
   Bfn.  Coefficient  Atom+Function         Bfn.  Coefficient  Atom+Function  
  ----- ------------  ---------------      ----- ------------  ---------------
    73    131.234284  5 Li s                102   -114.868938  6 Li s          
   131    -34.928878  7 Li s                 14     18.565155  1 Li s          
    76     14.298203  5 Li pz               105     13.235674  6 Li pz         
    75    -12.295691  5 Li py               104    -11.199024  6 Li py         
    74     -9.267848  5 Li px               134      7.959307  7 Li pz         
 
 Vector   29  Occ=0.000000D+00  E= 4.336336D-02
              MO Center= -2.4D-02,  2.6D-02,  5.3D-02, r^2= 6.3D+01
   Bfn.  Coefficient  Atom+Function         Bfn.  Coefficient  Atom+Function  
  ----- ------------  ---------------      ----- ------------  ---------------
   131    147.085054  7 Li s                102    -92.432981  6 Li s          
    73    -39.633556  5 Li s                 14    -15.020353  1 Li s          
   132     14.669413  7 Li px               133    -13.753280  7 Li py         
   134    -11.765076  7 Li pz               103     11.080664  6 Li px         
   104    -10.145367  6 Li py                74      7.608662  5 Li px         
 
 Vector   30  Occ=0.000000D+00  E= 4.772780D-02
              MO Center=  1.6D-03,  4.1D-03,  6.2D-03, r^2= 5.3D+01
   Bfn.  Coefficient  Atom+Function         Bfn.  Coefficient  Atom+Function  
  ----- ------------  ---------------      ----- ------------  ---------------
   105     -1.324505  6 Li pz               133     -1.327417  7 Li py         
   134     -1.330268  7 Li pz                74     -1.313518  5 Li px         
    75     -1.316984  5 Li py               103     -1.318190  6 Li px         
   132      1.319484  7 Li px               104      1.310299  6 Li py         
    76      1.302737  5 Li pz                15      1.295987  1 Li px         
 
 Vector   31  Occ=0.000000D+00  E= 6.515983D-02
              MO Center=  7.4D-02,  8.4D-02,  1.1D-01, r^2= 5.0D+01
   Bfn.  Coefficient  Atom+Function         Bfn.  Coefficient  Atom+Function  
  ----- ------------  ---------------      ----- ------------  ---------------
    14    113.111790  1 Li s                 73    -54.153292  5 Li s          
   102    -34.761895  6 Li s                131    -24.197019  7 Li s          
    15     11.626584  1 Li px                10     11.419832  1 Li s          
    16     11.306231  1 Li py                17     10.721509  1 Li pz         
    74      6.959937  5 Li px                75      6.643195  5 Li py         
 
 Vector   32  Occ=0.000000D+00  E= 6.516950D-02
              MO Center= -1.2D-01, -2.0D-02,  1.3D-02, r^2= 5.0D+01
   Bfn.  Coefficient  Atom+Function         Bfn.  Coefficient  Atom+Function  
  ----- ------------  ---------------      ----- ------------  ---------------
    73     96.753073  5 Li s                102    -85.411846  6 Li s          
   131    -25.877642  7 Li s                 14     14.536224  1 Li s          
    76     10.998851  5 Li pz               105     10.107043  6 Li pz         
    69      9.758205  5 Li s                 75     -9.789805  5 Li py         
   104     -8.887609  6 Li py                98     -8.612485  6 Li s          
 
 Vector   33  Occ=0.000000D+00  E= 6.517498D-02
              MO Center=  5.0D-02, -6.2D-02, -1.2D-01, r^2= 5.0D+01
   Bfn.  Coefficient  Atom+Function         Bfn.  Coefficient  Atom+Function  
  ----- ------------  ---------------      ----- ------------  ---------------
   131    109.103275  7 Li s                102    -68.196076  6 Li s          
    73    -29.273556  5 Li s                 14    -11.633429  1 Li s          
   132     11.560773  7 Li px               127     10.995950  7 Li s          
   133    -11.034745  7 Li py               134     -9.866830  7 Li pz         
   103      8.326230  6 Li px               104     -7.794382  6 Li py         
 
 Vector   34  Occ=0.000000D+00  E= 7.913210D-02
              MO Center= -5.6D-04, -1.5D-03, -2.3D-03, r^2= 3.8D+01
   Bfn.  Coefficient  Atom+Function         Bfn.  Coefficient  Atom+Function  
  ----- ------------  ---------------      ----- ------------  ---------------
    33      6.745651  2 H  s                 43      6.746405  3 H  s          
    53      6.747330  4 H  s                150      6.743711  8 H  s          
    10     -4.978385  1 Li s                 69     -4.967543  5 Li s          
    98     -4.962905  6 Li s                127     -4.957221  7 Li s          
    11     -2.498135  1 Li px                12     -2.498491  1 Li py         
 
 Vector   35  Occ=0.000000D+00  E= 8.084805D-02
              MO Center=  1.7D-01, -2.2D-01, -3.7D-01, r^2= 3.6D+01
   Bfn.  Coefficient  Atom+Function         Bfn.  Coefficient  Atom+Function  
  ----- ------------  ---------------      ----- ------------  ---------------
    17      4.481256  1 Li pz                76     -4.479388  5 Li pz         
    16     -3.720747  1 Li py               104      3.718906  6 Li py         
    13     -3.477950  1 Li pz                72      3.478700  5 Li pz         
    74     -3.119798  5 Li px               103      3.118730  6 Li px         
    12      2.886869  1 Li py               100     -2.887938  6 Li py         
 
 Vector   36  Occ=0.000000D+00  E= 8.084806D-02
              MO Center= -4.0D-01, -3.3D-02,  2.3D-02, r^2= 3.6D+01
   Bfn.  Coefficient  Atom+Function         Bfn.  Coefficient  Atom+Function  
  ----- ------------  ---------------      ----- ------------  ---------------
    15      4.730773  1 Li px               132     -4.727693  7 Li px         
    11     -3.670195  1 Li px               128      3.671575  7 Li px         
    16     -2.970736  1 Li py               104      2.970325  6 Li py         
    75      2.654655  5 Li py               133     -2.655099  7 Li py         
    12      2.306233  1 Li py               100     -2.306569  6 Li py         
 
 Vector   37  Occ=0.000000D+00  E= 8.084807D-02
              MO Center=  2.3D-01,  2.6D-01,  3.5D-01, r^2= 3.6D+01
   Bfn.  Coefficient  Atom+Function         Bfn.  Coefficient  Atom+Function  
  ----- ------------  ---------------      ----- ------------  ---------------
   105      4.307932  6 Li pz               134     -4.307362  7 Li pz         
    75     -3.784729  5 Li py               133      3.783359  7 Li py         
    74      3.562882  5 Li px               103     -3.561923  6 Li px         
   101     -3.342504  6 Li pz               130      3.342814  7 Li pz         
    71      2.936801  5 Li py               129     -2.937436  7 Li py         
 
 Vector   38  Occ=0.000000D+00  E= 8.492713D-02
              MO Center= -4.7D-01,  5.5D-01,  1.0D+00, r^2= 2.9D+01
   Bfn.  Coefficient  Atom+Function         Bfn.  Coefficient  Atom+Function  
  ----- ------------  ---------------      ----- ------------  ---------------
   131     36.640576  7 Li s                127     33.021065  7 Li s          
   102    -22.306430  6 Li s                 98    -20.102590  6 Li s          
    73     -9.624821  5 Li s                 69     -8.673327  5 Li s          
   128      7.066507  7 Li px               129     -6.857235  7 Li py         
   130     -6.316688  7 Li pz                99      4.834177  6 Li px         
 
 Vector   39  Occ=0.000000D+00  E= 8.492821D-02
              MO Center=  1.0D+00,  9.9D-02, -5.9D-02, r^2= 3.0D+01
   Bfn.  Coefficient  Atom+Function         Bfn.  Coefficient  Atom+Function  
  ----- ------------  ---------------      ----- ------------  ---------------
    73     31.378265  5 Li s                102    -29.195305  6 Li s          
    69     28.276379  5 Li s                 98    -26.312626  6 Li s          
   131     -8.694363  7 Li s                127     -7.837676  7 Li s          
    14      6.511113  1 Li s                 72      6.500184  5 Li pz         
   101      6.162189  6 Li pz                10      5.869983  1 Li s          
 
 Vector   40  Occ=0.000000D+00  E= 8.492964D-02
              MO Center= -5.7D-01, -6.5D-01, -9.8D-01, r^2= 2.9D+01
   Bfn.  Coefficient  Atom+Function         Bfn.  Coefficient  Atom+Function  
  ----- ------------  ---------------      ----- ------------  ---------------
    14     37.436003  1 Li s                 10     33.739414  1 Li s          
    73    -19.722225  5 Li s                 69    -17.778520  5 Li s          
   102    -10.781881  6 Li s                 98     -9.716490  6 Li s          
    11      7.129364  1 Li px                12      6.965098  1 Li py         
   131     -6.932440  7 Li s                 13      6.583473  1 Li pz         
 
 Vector   41  Occ=0.000000D+00  E= 1.257834D-01
              MO Center= -7.8D-08,  8.3D-06,  1.0D-05, r^2= 2.2D+01
   Bfn.  Coefficient  Atom+Function         Bfn.  Coefficient  Atom+Function  
  ----- ------------  ---------------      ----- ------------  ---------------
    12      0.839447  1 Li py                71     -0.839450  5 Li py         
   100      0.839450  6 Li py               129     -0.839456  7 Li py         
    13     -0.807910  1 Li pz                72     -0.807915  5 Li pz         
   101      0.807918  6 Li pz               130      0.807920  7 Li pz         
     8     -0.542479  1 Li py                67      0.542506  5 Li py         
 
 Vector   42  Occ=0.000000D+00  E= 1.257834D-01
              MO Center=  4.3D-06,  2.3D-06,  5.5D-06, r^2= 2.2D+01
   Bfn.  Coefficient  Atom+Function         Bfn.  Coefficient  Atom+Function  
  ----- ------------  ---------------      ----- ------------  ---------------
    11      0.951103  1 Li px                70     -0.951107  5 Li px         
    99     -0.951110  6 Li px               128      0.951110  7 Li px         
     7     -0.614646  1 Li px                66      0.614649  5 Li px         
    95      0.614640  6 Li px               124     -0.614624  7 Li px         
    15     -0.533784  1 Li px                74      0.533772  5 Li px         
 
 Vector   43  Occ=0.000000D+00  E= 1.330432D-01
              MO Center= -2.5D-01, -2.8D-01, -3.7D-01, r^2= 2.8D+01
   Bfn.  Coefficient  Atom+Function         Bfn.  Coefficient  Atom+Function  
  ----- ------------  ---------------      ----- ------------  ---------------
    14     94.430715  1 Li s                 73    -45.504877  5 Li s          
   102    -28.919332  6 Li s                131    -20.006501  7 Li s          
    15      9.040784  1 Li px                16      8.723404  1 Li py         
    17      8.133689  1 Li pz               150     -6.885125  8 H  s          
    74      5.726420  5 Li px                75      5.410038  5 Li py         
 
 Vector   44  Occ=0.000000D+00  E= 1.330524D-01
              MO Center=  4.2D-01,  6.6D-02, -4.2D-02, r^2= 2.8D+01
   Bfn.  Coefficient  Atom+Function         Bfn.  Coefficient  Atom+Function  
  ----- ------------  ---------------      ----- ------------  ---------------
    73     80.675425  5 Li s                102    -71.454482  6 Li s          
   131    -21.631383  7 Li s                 14     12.410447  1 Li s          
    76      8.770550  5 Li pz               105      8.147426  6 Li pz         
    75     -7.562830  5 Li py               104     -6.936840  6 Li py         
    33     -5.876874  2 H  s                 74     -5.792347  5 Li px         
 
 Vector   45  Occ=0.000000D+00  E= 1.330578D-01
              MO Center= -1.8D-01,  2.1D-01,  4.2D-01, r^2= 2.8D+01
   Bfn.  Coefficient  Atom+Function         Bfn.  Coefficient  Atom+Function  
  ----- ------------  ---------------      ----- ------------  ---------------
   131     91.176568  7 Li s                102    -56.886379  6 Li s          
    73    -24.418863  5 Li s                 14     -9.871333  1 Li s          
   132      9.063325  7 Li px               133     -8.547704  7 Li py         
   134     -7.394913  7 Li pz               103      6.741483  6 Li px         
    53     -6.636921  4 H  s                104     -6.224257  6 Li py         
 
 Vector   46  Occ=0.000000D+00  E= 1.488928D-01
              MO Center=  1.3D-04,  4.7D-04,  7.5D-04, r^2= 2.4D+01
   Bfn.  Coefficient  Atom+Function         Bfn.  Coefficient  Atom+Function  
  ----- ------------  ---------------      ----- ------------  ---------------
    33      2.996733  2 H  s                 43      2.996511  3 H  s          
    53      2.996244  4 H  s                150      2.996794  8 H  s          
     6     -1.170028  1 Li s                 65     -1.169416  5 Li s          
    94     -1.169104  6 Li s                123     -1.168723  7 Li s          
    11     -0.738294  1 Li px                12     -0.738499  1 Li py         
 
 Vector   47  Occ=0.000000D+00  E= 1.512250D-01
              MO Center=  1.9D-01,  2.1D-01,  2.8D-01, r^2= 2.6D+01
   Bfn.  Coefficient  Atom+Function         Bfn.  Coefficient  Atom+Function  
  ----- ------------  ---------------      ----- ------------  ---------------
    10     33.802359  1 Li s                 69    -16.180606  5 Li s          
    98    -10.393815  6 Li s                127     -7.231339  7 Li s          
   150     -6.648710  8 H  s                 14     -6.011246  1 Li s          
    11      5.301351  1 Li px                12      4.977955  1 Li py         
    13      4.386602  1 Li pz                70      3.953460  5 Li px         
 
 Vector   48  Occ=0.000000D+00  E= 1.512393D-01
              MO Center= -3.2D-01, -5.1D-02,  3.2D-02, r^2= 2.6D+01
   Bfn.  Coefficient  Atom+Function         Bfn.  Coefficient  Atom+Function  
  ----- ------------  ---------------      ----- ------------  ---------------
    69     28.904777  5 Li s                 98    -25.517431  6 Li s          
   127     -7.722655  7 Li s                 33     -5.688092  2 H  s          
    72      5.608543  5 Li pz               101      5.349731  6 Li pz         
    73     -5.090789  5 Li s                 43      5.020737  3 H  s          
   102      4.496114  6 Li s                 71     -4.376710  5 Li py         
 
 Vector   49  Occ=0.000000D+00  E= 1.512474D-01
              MO Center=  1.3D-01, -1.6D-01, -3.2D-01, r^2= 2.6D+01
   Bfn.  Coefficient  Atom+Function         Bfn.  Coefficient  Atom+Function  
  ----- ------------  ---------------      ----- ------------  ---------------
   127     32.587597  7 Li s                 98    -20.363911  6 Li s          
    69     -8.748878  5 Li s                 53     -6.412519  4 H  s          
   131     -5.708221  7 Li s                128      5.468691  7 Li px         
   129     -4.930474  7 Li py                99      4.533508  6 Li px         
    43      4.008045  3 H  s                100     -3.994761  6 Li py         
 
 Vector   50  Occ=0.000000D+00  E= 1.545927D-01
              MO Center= -1.0D-04, -2.5D-04, -3.7D-04, r^2= 2.6D+01
   Bfn.  Coefficient  Atom+Function         Bfn.  Coefficient  Atom+Function  
  ----- ------------  ---------------      ----- ------------  ---------------
    33     15.617831  2 H  s                 43     15.618663  3 H  s          
    53     15.619673  4 H  s                150     15.617698  8 H  s          
    10    -12.011138  1 Li s                 69    -12.006301  5 Li s          
    98    -12.008907  6 Li s                127    -12.012050  7 Li s          
    11     -3.191813  1 Li px                12     -3.191319  1 Li py         
 
 Vector   51  Occ=0.000000D+00  E= 1.922539D-01
              MO Center=  1.7D-01,  2.3D-01,  2.6D-01, r^2= 1.9D+01
   Bfn.  Coefficient  Atom+Function         Bfn.  Coefficient  Atom+Function  
  ----- ------------  ---------------      ----- ------------  ---------------
   101     -2.906769  6 Li pz               130      2.907059  7 Li pz         
    71      2.735770  5 Li py               129     -2.736394  7 Li py         
    97      2.502420  6 Li pz               126     -2.502395  7 Li pz         
    67     -2.355258  5 Li py               105      2.362459  6 Li pz         
   125      2.355201  7 Li py               134     -2.361976  7 Li pz         
 
 Vector   52  Occ=0.000000D+00  E= 1.922539D-01
              MO Center= -2.4D-01, -1.7D-01,  7.6D-02, r^2= 1.9D+01
   Bfn.  Coefficient  Atom+Function         Bfn.  Coefficient  Atom+Function  
  ----- ------------  ---------------      ----- ------------  ---------------
    11      2.985078  1 Li px               128     -2.986256  7 Li px         
    12     -2.685718  1 Li py               100      2.686080  6 Li py         
     7     -2.570078  1 Li px               124      2.569970  7 Li px         
    15     -2.426381  1 Li px               132      2.424580  7 Li px         
     8      2.311896  1 Li py                96     -2.311859  6 Li py         
 
 Vector   53  Occ=0.000000D+00  E= 1.922539D-01
              MO Center=  7.1D-02, -6.2D-02, -3.4D-01, r^2= 1.9D+01
   Bfn.  Coefficient  Atom+Function         Bfn.  Coefficient  Atom+Function  
  ----- ------------  ---------------      ----- ------------  ---------------
    13      3.273780  1 Li pz                72     -3.274594  5 Li pz         
     9     -2.818275  1 Li pz                68      2.818199  5 Li pz         
    17     -2.659901  1 Li pz                76      2.658658  5 Li pz         
    70     -2.057416  5 Li px                99      2.058259  6 Li px         
    12     -1.852169  1 Li py               100      1.852802  6 Li py         
 
 Vector   54  Occ=0.000000D+00  E= 2.044413D-01
              MO Center=  1.3D-01,  1.5D-01,  2.0D-01, r^2= 1.9D+01
   Bfn.  Coefficient  Atom+Function         Bfn.  Coefficient  Atom+Function  
  ----- ------------  ---------------      ----- ------------  ---------------
    14     45.261093  1 Li s                 73    -21.544902  5 Li s          
   102    -13.945298  6 Li s                131     -9.770917  7 Li s          
    10     -8.668899  1 Li s                 15      4.697304  1 Li px         
    16      4.574952  1 Li py                17      4.352419  1 Li pz         
    69      4.126308  5 Li s                149      3.067980  8 H  s          
 
 Vector   55  Occ=0.000000D+00  E= 2.044441D-01
              MO Center= -2.2D-01, -3.6D-02,  2.3D-02, r^2= 1.9D+01
   Bfn.  Coefficient  Atom+Function         Bfn.  Coefficient  Atom+Function  
  ----- ------------  ---------------      ----- ------------  ---------------
    73     38.731899  5 Li s                102    -34.112123  6 Li s          
   131    -10.319061  7 Li s                 69     -7.422225  5 Li s          
    98      6.536743  6 Li s                 14      5.699274  1 Li s          
    76      4.430834  5 Li pz               105      4.057781  6 Li pz         
    75     -3.962442  5 Li py               104     -3.588676  6 Li py         
 
 Vector   56  Occ=0.000000D+00  E= 2.044457D-01
              MO Center=  9.2D-02, -1.1D-01, -2.2D-01, r^2= 1.9D+01
   Bfn.  Coefficient  Atom+Function         Bfn.  Coefficient  Atom+Function  
  ----- ------------  ---------------      ----- ------------  ---------------
   131     43.590994  7 Li s                102    -27.276012  6 Li s          
    73    -11.735117  5 Li s                127     -8.355466  7 Li s          
    98      5.228069  6 Li s                132      4.664971  7 Li px         
    14     -4.579852  1 Li s                133     -4.455855  7 Li py         
   134     -4.001185  7 Li pz               103      3.346412  6 Li px         
 
 Vector   57  Occ=0.000000D+00  E= 2.358348D-01
              MO Center= -3.3D-01, -3.7D-01, -4.7D-01, r^2= 1.7D+01
   Bfn.  Coefficient  Atom+Function         Bfn.  Coefficient  Atom+Function  
  ----- ------------  ---------------      ----- ------------  ---------------
    14     36.714363  1 Li s                 73    -16.994511  5 Li s          
    10     15.653366  1 Li s                102    -11.497039  6 Li s          
     6     -9.920437  1 Li s                131     -8.222846  7 Li s          
    69     -7.245735  5 Li s                  7     -5.081100  1 Li px         
     8     -4.903067  1 Li py                98     -4.901873  6 Li s          
 
 Vector   58  Occ=0.000000D+00  E= 2.358386D-01
              MO Center=  5.5D-01,  9.7D-02, -6.3D-02, r^2= 1.7D+01
   Bfn.  Coefficient  Atom+Function         Bfn.  Coefficient  Atom+Function  
  ----- ------------  ---------------      ----- ------------  ---------------
    73     31.586896  5 Li s                102    -27.442555  6 Li s          
    69     13.462731  5 Li s                 98    -11.696301  6 Li s          
    65     -8.532870  5 Li s                131     -8.310681  7 Li s          
    94      7.413239  6 Li s                 68     -4.981393  5 Li pz         
    97     -4.582718  6 Li pz                67      4.303298  5 Li py         
 
 Vector   59  Occ=0.000000D+00  E= 2.358405D-01
              MO Center= -2.2D-01,  2.7D-01,  5.3D-01, r^2= 1.7D+01
   Bfn.  Coefficient  Atom+Function         Bfn.  Coefficient  Atom+Function  
  ----- ------------  ---------------      ----- ------------  ---------------
   131     35.234722  7 Li s                102    -22.197168  6 Li s          
   127     15.014633  7 Li s                 73     -9.555009  5 Li s          
   123     -9.516954  7 Li s                 98     -9.458906  6 Li s          
    94      5.995427  6 Li s                124     -5.114161  7 Li px         
   125      4.784167  7 Li py               126      4.097112  7 Li pz         
 
 Vector   60  Occ=0.000000D+00  E= 2.976373D-01
              MO Center= -4.4D-06, -1.0D-05, -1.5D-05, r^2= 9.6D+00
   Bfn.  Coefficient  Atom+Function         Bfn.  Coefficient  Atom+Function  
  ----- ------------  ---------------      ----- ------------  ---------------
    33      9.377299  2 H  s                 43      9.377301  3 H  s          
    53      9.377304  4 H  s                150      9.377284  8 H  s          
    10     -6.536061  1 Li s                 69     -6.535847  5 Li s          
    98     -6.535846  6 Li s                127     -6.535842  7 Li s          
    32     -1.701576  2 H  s                 42     -1.701676  3 H  s          
 
 Vector   61  Occ=0.000000D+00  E= 3.283743D-01
              MO Center= -2.9D-07,  2.2D-06,  4.4D-06, r^2= 1.2D+01
   Bfn.  Coefficient  Atom+Function         Bfn.  Coefficient  Atom+Function  
  ----- ------------  ---------------      ----- ------------  ---------------
    33      4.082542  2 H  s                 43      4.082567  3 H  s          
    53      4.082597  4 H  s                150      4.082472  8 H  s          
    32     -3.232101  2 H  s                 42     -3.232071  3 H  s          
    52     -3.232036  4 H  s                149     -3.232166  8 H  s          
    10     -2.691285  1 Li s                 69     -2.691583  5 Li s          
 
 Vector   62  Occ=0.000000D+00  E= 3.409570D-01
              MO Center=  7.6D-07,  1.4D-06,  2.0D-06, r^2= 1.0D+01
   Bfn.  Coefficient  Atom+Function         Bfn.  Coefficient  Atom+Function  
  ----- ------------  ---------------      ----- ------------  ---------------
    26      0.923495  1 Li dxz               85     -0.923511  5 Li dxz        
   114      0.923528  6 Li dxz              143     -0.923523  7 Li dxz        
     8      0.628079  1 Li py                67     -0.628083  5 Li py         
    96      0.628044  6 Li py               125     -0.628052  7 Li py         
    28     -0.508343  1 Li dyz               87      0.508339  5 Li dyz        
 
 Vector   63  Occ=0.000000D+00  E= 3.409570D-01
              MO Center=  1.9D-07,  9.9D-07,  2.1D-06, r^2= 1.0D+01
   Bfn.  Coefficient  Atom+Function         Bfn.  Coefficient  Atom+Function  
  ----- ------------  ---------------      ----- ------------  ---------------
    25      0.826679  1 Li dxy               84      0.826686  5 Li dxy        
   113     -0.826681  6 Li dxy              142     -0.826699  7 Li dxy        
    28     -0.772882  1 Li dyz               87      0.772897  5 Li dyz        
   116      0.772880  6 Li dyz              145     -0.772891  7 Li dyz        
     9      0.562228  1 Li pz                68      0.562186  5 Li pz         
 
 Vector   64  Occ=0.000000D+00  E= 3.563158D-01
              MO Center=  1.6D-01, -1.8D-01, -4.4D-01, r^2= 9.3D+00
   Bfn.  Coefficient  Atom+Function         Bfn.  Coefficient  Atom+Function  
  ----- ------------  ---------------      ----- ------------  ---------------
    29      1.073078  1 Li dzz               88     -1.073165  5 Li dzz        
    27     -0.779299  1 Li dyy              115      0.779369  6 Li dyy        
    83      0.705061  5 Li dxx              112     -0.705120  6 Li dxx        
    25      0.673315  1 Li dxy               84     -0.673275  5 Li dxy        
    26     -0.488899  1 Li dxz              114      0.488868  6 Li dxz        
 
 Vector   65  Occ=0.000000D+00  E= 3.563158D-01
              MO Center= -4.1D-01, -1.1D-01,  6.9D-02, r^2= 9.3D+00
   Bfn.  Coefficient  Atom+Function         Bfn.  Coefficient  Atom+Function  
  ----- ------------  ---------------      ----- ------------  ---------------
    24      1.070814  1 Li dxx              141     -1.070949  7 Li dxx        
    27     -0.779345  1 Li dyy              115      0.779372  6 Li dyy        
    28      0.671809  1 Li dyz              145     -0.671748  7 Li dyz        
    86     -0.555845  5 Li dyy              144      0.555830  7 Li dyy        
   117     -0.514855  6 Li dzz              146      0.514843  7 Li dzz        
 
 Vector   66  Occ=0.000000D+00  E= 3.563158D-01
              MO Center=  2.6D-01,  3.0D-01,  3.7D-01, r^2= 9.2D+00
   Bfn.  Coefficient  Atom+Function         Bfn.  Coefficient  Atom+Function  
  ----- ------------  ---------------      ----- ------------  ---------------
   117      0.985278  6 Li dzz              146     -0.985301  7 Li dzz        
    86     -0.892841  5 Li dyy              144      0.892899  7 Li dyy        
    83      0.821251  5 Li dxx              112     -0.821292  6 Li dxx        
   113     -0.617936  6 Li dxy              142      0.617927  7 Li dxy        
    85      0.560107  5 Li dxz              143     -0.560080  7 Li dxz        
 
 Vector   67  Occ=0.000000D+00  E= 3.604704D-01
              MO Center= -3.3D-01, -3.8D-01, -4.9D-01, r^2= 1.5D+01
   Bfn.  Coefficient  Atom+Function         Bfn.  Coefficient  Atom+Function  
  ----- ------------  ---------------      ----- ------------  ---------------
    14     48.872725  1 Li s                 73    -23.033472  5 Li s          
   102    -15.188656  6 Li s                  6    -14.657081  1 Li s          
   131    -10.650572  7 Li s                  7     -6.911001  1 Li px         
    65      6.907688  5 Li s                  8     -6.797105  1 Li py         
     9     -6.599939  1 Li pz                15      4.576696  1 Li px         
 
 Vector   68  Occ=0.000000D+00  E= 3.604773D-01
              MO Center=  5.6D-01,  9.4D-02, -6.0D-02, r^2= 1.6D+01
   Bfn.  Coefficient  Atom+Function         Bfn.  Coefficient  Atom+Function  
  ----- ------------  ---------------      ----- ------------  ---------------
    73     41.897962  5 Li s                102    -36.780502  6 Li s          
    65    -12.562337  5 Li s                 94     11.027811  6 Li s          
   131    -11.029662  7 Li s                 68     -6.302663  5 Li pz         
    14      5.912213  1 Li s                 67      5.875516  5 Li py         
    97     -5.679024  6 Li pz                66      5.227784  5 Li px         
 
 Vector   69  Occ=0.000000D+00  E= 3.604812D-01
              MO Center= -2.3D-01,  2.8D-01,  5.5D-01, r^2= 1.5D+01
   Bfn.  Coefficient  Atom+Function         Bfn.  Coefficient  Atom+Function  
  ----- ------------  ---------------      ----- ------------  ---------------
   131     47.054424  7 Li s                102    -29.415452  6 Li s          
   123    -14.106392  7 Li s                 73    -12.744878  5 Li s          
    94      8.818262  6 Li s                124     -6.787135  7 Li px         
   125      6.589025  7 Li py               126      6.169297  7 Li pz         
    14     -4.894107  1 Li s                 95     -4.640203  6 Li px         
 
 Vector   70  Occ=0.000000D+00  E= 4.158781D-01
              MO Center=  2.3D-01,  2.8D-01,  3.5D-01, r^2= 1.4D+01
   Bfn.  Coefficient  Atom+Function         Bfn.  Coefficient  Atom+Function  
  ----- ------------  ---------------      ----- ------------  ---------------
    97     -5.448324  6 Li pz               126      5.448673  7 Li pz         
    67      4.984042  5 Li py               125     -4.984734  7 Li py         
    66     -4.379620  5 Li px                95      4.379992  6 Li px         
   113      2.849218  6 Li dxy              142     -2.848895  7 Li dxy        
    85     -2.606272  5 Li dxz              143      2.605601  7 Li dxz        
 
 Vector   71  Occ=0.000000D+00  E= 4.158785D-01
              MO Center= -3.6D-01, -1.5D-01,  8.1D-02, r^2= 1.4D+01
   Bfn.  Coefficient  Atom+Function         Bfn.  Coefficient  Atom+Function  
  ----- ------------  ---------------      ----- ------------  ---------------
     7      5.747561  1 Li px               124     -5.748835  7 Li px         
     8     -4.626426  1 Li py                96      4.626798  6 Li py         
    28     -3.005773  1 Li dyz              145      3.004449  7 Li dyz        
    67      2.914320  5 Li py               125     -2.913820  7 Li py         
    97      2.833206  6 Li pz               126     -2.833151  7 Li pz         
 
 Vector   72  Occ=0.000000D+00  E= 4.158787D-01
              MO Center=  1.3D-01, -1.3D-01, -4.3D-01, r^2= 1.4D+01
   Bfn.  Coefficient  Atom+Function         Bfn.  Coefficient  Atom+Function  
  ----- ------------  ---------------      ----- ------------  ---------------
     9      6.007902  1 Li pz                68     -6.008732  5 Li pz         
    95      3.914706  6 Li px                 8     -3.894923  1 Li py         
    66     -3.913904  5 Li px                96      3.895759  6 Li py         
    25     -3.141057  1 Li dxy               84      3.140192  5 Li dxy        
    13     -2.828370  1 Li pz                72      2.827998  5 Li pz         
 
 Vector   73  Occ=0.000000D+00  E= 4.302420D-01
              MO Center= -4.7D-06,  2.7D-05,  7.8D-05, r^2= 9.3D+00
   Bfn.  Coefficient  Atom+Function         Bfn.  Coefficient  Atom+Function  
  ----- ------------  ---------------      ----- ------------  ---------------
    29      1.100111  1 Li dzz               88      1.100459  5 Li dzz        
   117      1.100564  6 Li dzz              146      1.100683  7 Li dzz        
    27     -0.881124  1 Li dyy               86     -0.881269  5 Li dyy        
   115     -0.881426  6 Li dyy              144     -0.881667  7 Li dyy        
    97     -0.472576  6 Li pz                 9      0.470024  1 Li pz         
 
 Vector   74  Occ=0.000000D+00  E= 4.302420D-01
              MO Center=  2.1D-05,  1.5D-05, -1.5D-05, r^2= 9.3D+00
   Bfn.  Coefficient  Atom+Function         Bfn.  Coefficient  Atom+Function  
  ----- ------------  ---------------      ----- ------------  ---------------
    24      1.143907  1 Li dxx               83      1.144210  5 Li dxx        
   112      1.144290  6 Li dxx              141      1.144424  7 Li dxx        
    27     -0.761740  1 Li dyy               86     -0.761987  5 Li dyy        
   115     -0.761763  6 Li dyy              144     -0.761850  7 Li dyy        
     7      0.489703  1 Li px                66     -0.490087  5 Li px         
 
 Vector   75  Occ=0.000000D+00  E= 4.326322D-01
              MO Center= -2.3D-01, -2.7D-01, -3.5D-01, r^2= 1.1D+01
   Bfn.  Coefficient  Atom+Function         Bfn.  Coefficient  Atom+Function  
  ----- ------------  ---------------      ----- ------------  ---------------
    10     12.313528  1 Li s                 14     -8.656896  1 Li s          
     6      6.443312  1 Li s                 69     -5.809733  5 Li s          
    73      4.085099  5 Li s                 98     -3.817847  6 Li s          
   150     -3.649431  8 H  s                  7      3.590591  1 Li px         
     8      3.431632  1 Li py                 9      3.153428  1 Li pz         
 
 Vector   76  Occ=0.000000D+00  E= 4.326369D-01
              MO Center=  4.0D-01,  6.6D-02, -4.3D-02, r^2= 1.1D+01
   Bfn.  Coefficient  Atom+Function         Bfn.  Coefficient  Atom+Function  
  ----- ------------  ---------------      ----- ------------  ---------------
    69     10.557295  5 Li s                 98     -9.258457  6 Li s          
    73     -7.421209  5 Li s                102      6.508578  6 Li s          
    65      5.523792  5 Li s                 94     -4.844305  6 Li s          
    68      3.604207  5 Li pz                97      3.369369  6 Li pz         
    33     -3.128718  2 H  s                 67     -3.009469  5 Li py         
 
 Vector   77  Occ=0.000000D+00  E= 4.326395D-01
              MO Center= -1.6D-01,  2.0D-01,  3.9D-01, r^2= 1.1D+01
   Bfn.  Coefficient  Atom+Function         Bfn.  Coefficient  Atom+Function  
  ----- ------------  ---------------      ----- ------------  ---------------
   127     11.850309  7 Li s                131     -8.329653  7 Li s          
    98     -7.426673  6 Li s                123      6.200055  7 Li s          
   102      5.220585  6 Li s                 94     -3.885561  6 Li s          
   124      3.640704  7 Li px                53     -3.511720  4 H  s          
   125     -3.369086  7 Li py                69     -3.197123  5 Li s          
 
 Vector   78  Occ=0.000000D+00  E= 4.591546D-01
              MO Center=  3.2D-01, -4.0D-01, -7.8D-01, r^2= 1.2D+01
   Bfn.  Coefficient  Atom+Function         Bfn.  Coefficient  Atom+Function  
  ----- ------------  ---------------      ----- ------------  ---------------
   131     21.374684  7 Li s                102    -13.428764  6 Li s          
    52     10.583656  4 H  s                127      8.327183  7 Li s          
    42     -6.649386  3 H  s                 73     -5.770175  5 Li s          
    98     -5.231918  6 Li s                 53     -3.083428  4 H  s          
     7     -2.974009  1 Li px                67      2.872124  5 Li py         
 
 Vector   79  Occ=0.000000D+00  E= 4.591572D-01
              MO Center= -7.9D-01, -1.4D-01,  8.7D-02, r^2= 1.2D+01
   Bfn.  Coefficient  Atom+Function         Bfn.  Coefficient  Atom+Function  
  ----- ------------  ---------------      ----- ------------  ---------------
    73     19.083110  5 Li s                102    -16.684978  6 Li s          
    32      9.448728  2 H  s                 42     -8.261451  3 H  s          
    69      7.436672  5 Li s                 98     -6.502161  6 Li s          
   131     -5.059948  7 Li s                  9     -2.786023  1 Li pz         
    33     -2.753329  2 H  s                 14      2.661811  1 Li s          
 
 Vector   80  Occ=0.000000D+00  E= 4.591623D-01
              MO Center=  4.7D-01,  5.3D-01,  6.9D-01, r^2= 1.1D+01
   Bfn.  Coefficient  Atom+Function         Bfn.  Coefficient  Atom+Function  
  ----- ------------  ---------------      ----- ------------  ---------------
    14     22.240379  1 Li s                149     11.011448  8 H  s          
    73    -10.439067  5 Li s                 10      8.671842  1 Li s          
   102     -6.907413  6 Li s                 32     -5.168682  2 H  s          
   131     -4.893912  7 Li s                 69     -4.070356  5 Li s          
    42     -3.419628  3 H  s                150     -3.209670  8 H  s          
 
 Vector   81  Occ=0.000000D+00  E= 5.071169D-01
              MO Center= -1.3D-06,  9.1D-07,  2.8D-06, r^2= 1.2D+01
   Bfn.  Coefficient  Atom+Function         Bfn.  Coefficient  Atom+Function  
  ----- ------------  ---------------      ----- ------------  ---------------
     6      3.132329  1 Li s                 65      3.132323  5 Li s          
    94      3.132331  6 Li s                123      3.132340  7 Li s          
    24     -1.521137  1 Li dxx               27     -1.521141  1 Li dyy        
    29     -1.521144  1 Li dzz               83     -1.521138  5 Li dxx        
    86     -1.521134  5 Li dyy               88     -1.521146  5 Li dzz        
 

 center of mass
 --------------
 x =   0.00000001 y =   0.00000001 z =   0.00000001

 moments of inertia (a.u.)
 ------------------
         177.156912183117           0.000005814131           0.000003581878
           0.000005814131         177.156910468633           0.000001253392
           0.000003581878           0.000001253392         177.156909761350
 
     Multipole analysis of the density
     ---------------------------------
 
     L   x y z        total         alpha         beta         nuclear
     -   - - -        -----         -----         ----         -------
     0   0 0 0     -0.000000     -8.000000     -8.000000     16.000000
 
     1   1 0 0      0.000000      0.000000      0.000000     -0.000000
     1   0 1 0      0.000000      0.000000      0.000000     -0.000000
     1   0 0 1      0.000000      0.000000      0.000000      0.000000
 
     2   2 0 0    -12.866791    -28.987214    -28.987214     45.107637
     2   1 1 0      0.000001      0.000001      0.000001     -0.000002
     2   1 0 1      0.000000      0.000001      0.000001     -0.000001
     2   0 2 0    -12.866791    -28.987215    -28.987215     45.107638
     2   0 1 1      0.000000      0.000000      0.000000     -0.000000
     2   0 0 2    -12.866792    -28.987215    -28.987215     45.107639
 
 
 
                            NWChem DFT Gradient Module
                            --------------------------
 
 

  charge          =   0.00
  wavefunction    = closed shell



                         DFT ENERGY GRADIENTS

    atom               coordinates                        gradient
                 x          y          z           x          y          z
   1 li     -1.643140  -1.643141  -1.643141    0.002381   0.002381   0.002381
   2 h      -1.782464  -1.782464   1.782463    0.003142   0.003142  -0.003142
   3 h      -1.782464   1.782463  -1.782464    0.003142  -0.003142   0.003142
   4 h       1.782463  -1.782464  -1.782464   -0.003142   0.003142   0.003142
   5 li      1.643141   1.643141  -1.643141   -0.002381  -0.002381   0.002381
   6 li      1.643141  -1.643141   1.643141   -0.002381   0.002381  -0.002381
   7 li     -1.643141   1.643141   1.643141    0.002381  -0.002381  -0.002381
   8 h       1.782463   1.782463   1.782463   -0.003142  -0.003142  -0.003142
 
                 ----------------------------------------
                 |  Time  |  1-e(secs)   |  2-e(secs)   |
                 ----------------------------------------
                 |  CPU   |       0.01   |       6.84   |
                 ----------------------------------------
                 |  WALL  |       0.01   |       6.84   |
                 ----------------------------------------

@ Step       Energy      Delta E   Gmax     Grms     Xrms     Xmax   Walltime
@ ---- ---------------- -------- -------- -------- -------- -------- --------
@    0     -33.28215736  0.0D+00  0.00314  0.00279  0.00000  0.00000     31.0
                                                                    

 
                                 NWChem DFT Module
                                 -----------------
 
 


 Summary of "ao basis" -> "ao basis" (cartesian)
 ------------------------------------------------------------------------------
       Tag                 Description            Shells   Functions and Types
 ---------------- ------------------------------  ------  ---------------------
 li                     6-311++G(2d,2p)             11       29   5s4p2d
 h                      6-311++G(2d,2p)              6       10   4s2p


  Caching 1-el integrals 
 
            General Information
            -------------------
          SCF calculation type: DFT
          Wavefunction type:  closed shell.
          No. of atoms     :     8
          No. of electrons :    16
           Alpha electrons :     8
            Beta electrons :     8
          Charge           :     0
          Spin multiplicity:     1
          Use of symmetry is: off; symmetry adaption is: off
          Maximum number of iterations: ***
          This is a Direct SCF calculation.
          AO basis - number of functions:   156
                     number of shells:    68
          Convergence on energy requested: 1.00D-06
          Convergence on density requested: 1.00D-05
          Convergence on gradient requested: 5.00D-04
 
              XC Information
              --------------
                         dlDF Method XC Functional
                     Hartree-Fock (Exact) Exchange  0.614          
                          dlDF Exchange Functional  0.386          
                        dlDF Correlation Potential  1.000          
 
             Grid Information
             ----------------
          Grid used for XC integration:  medium    
          Radial quadrature: Mura-Knowles        
          Angular quadrature: Lebedev. 
          Tag              B.-S. Rad. Rad. Pts. Rad. Cut. Ang. Pts.
          ---              ---------- --------- --------- ---------
          li                  1.45       49          22.0       434
          h                   0.35       45          17.0       434
          Grid pruning is: on 
          Number of quadrature shells:   376
          Spatial weights used:  Erf1
 
          Convergence Information
          -----------------------
          Convergence aids based upon iterative change in 
          total energy or number of iterations. 
          Levelshifting, if invoked, occurs when the 
          HOMO/LUMO gap drops below (HL_TOL): 1.00D-02
          DIIS, if invoked, will attempt to extrapolate 
          using up to (NFOCK): 10 stored Fock matrices.

                    Damping( 0%)  Levelshifting(0.5)       DIIS
                  --------------- ------------------- ---------------
          dE  on:    start            ASAP                start   
          dE off:    2 iters        *** iters           *** iters 

 
      Screening Tolerance Information
      -------------------------------
          Density screening/tol_rho: 1.00D-10
          AO Gaussian exp screening on grid/accAOfunc:  14
          CD Gaussian exp screening on grid/accCDfunc:  20
          XC Gaussian exp screening on grid/accXCfunc:  20
          Schwarz screening/accCoul: 1.00D-08


 Loading old vectors from job with title :



   Time after variat. SCF:     29.9
   Time prior to 1st pass:     29.9

 Grid_pts file          = /home/d3y133/nwchem-dev/nwchem-trunk-nonwad/QA/scratchdir/metagga_dat.gridpts.0
 Record size in doubles =  12289        No. of grid_pts per rec  =   3070
 Max. records in memory =     16        Max. recs in file   = 253312716

 Grid integrated density:      16.000096587516
 Requested integration accuracy:   0.10E-05

           Memory utilization after 1st SCF pass: 
           Heap Space remaining (MW):       12.88            12882468
          Stack Space remaining (MW):       13.11            13106180

   convergence    iter        energy       DeltaE   RMS-Dens  Diis-err    time
 ---------------- ----- ----------------- --------- --------- ---------  ------
 d= 0,ls=0.0,diis     1    -33.2825329730 -5.86D+01  1.68D-04  4.50D-05    33.2
 Grid integrated density:      16.000097119185
 Requested integration accuracy:   0.10E-05
[...]


              11           12           13           14           15           16           17           18           19           20
   ----- ----- ----- ----- -----
   11    2.92146D+01
   12    3.68556D+00  2.92164D+01
   13    1.57678D+00  4.07450D-01  4.63241D+00
   14   -4.98407D+00  8.58908D-01  1.08635D-01  4.63216D+00
   15   -1.74577D+00 -3.60377D+00 -1.74751D-01 -1.74952D-01  4.80392D+00
   16    4.04670D-01  1.57943D+00  3.92574D-02 -5.99596D-01  5.33523D-01  4.63115D+00
   17   -3.60354D+00 -1.74780D+00  5.36974D-01 -2.33526D-01  8.26601D-01 -1.75356D-01  4.80412D+00
   18    8.57724D-01 -4.98300D+00 -6.03422D-01  6.54903D-01 -2.33566D-01  1.09378D-01 -1.75232D-01  4.63286D+00
   19   -1.30434D+00 -1.30541D+00 -2.33488D-01  5.37274D-01  8.26091D-01 -2.33281D-01  8.25498D-01  5.37963D-01  4.80526D+00
   20    4.20394D-01  1.13611D+00 -5.99487D-01  3.94341D-02  5.33938D-01  6.54229D-01 -2.33654D-01 -6.02934D-01 -1.76488D-01  4.63193D+00
   21    1.13570D+00  4.20762D-01  6.54902D-01 -6.03040D-01 -2.33538D-01 -5.99157D-01  5.34082D-01  3.89739D-02 -1.76469D-01  1.10252D-01
   22    9.37254D-01  9.35726D-01 -2.81508D+00  2.10877D-01  3.02102D-01 -2.81438D+00  3.01650D-01  2.11808D-01 -5.55039D+00 -9.49545D-01
   23   -1.93674D+00 -4.45880D+00  2.11411D-01 -2.81477D+00  3.01421D-01 -9.49251D-01 -5.55040D+00 -9.48238D-01  3.00477D-01 -2.81325D+00
   24   -4.45890D+00 -1.93882D+00 -9.47404D-01 -9.46821D-01 -5.55159D+00  2.12909D-01  3.00958D-01 -2.81354D+00  2.99099D-01  2.14240D-01


              21           22           23           24
   ----- ----- ----- ----- -----
   21    4.63224D+00
   22   -9.50354D-01  2.98210D+01
   23    2.14557D-01  4.27996D+00  2.98218D+01
   24   -2.81325D+00  4.28048D+00  4.27718D+00  2.98214D+01

 center of mass
 --------------
 x =   0.00000039 y =   0.00000039 z =  -0.00000002

 moments of inertia (a.u.)
 ------------------
         185.400690007098           0.000037983151           0.000007680915
           0.000037983151         185.400689740427           0.000028245380
           0.000007680915           0.000028245380         185.400634740736

 Rotational Constants
 --------------------
 A=   0.324703 cm-1  (  0.467165 K)
 B=   0.324703 cm-1  (  0.467165 K)
 C=   0.324703 cm-1  (  0.467165 K)


 Temperature                      =   298.15K
 frequency scaling parameter      =   1.0000

 Zero-Point correction to Energy  =   18.653 kcal/mol  (  0.029726 au)
 Thermal correction to Energy     =   22.198 kcal/mol  (  0.035374 au)
 Thermal correction to Enthalpy   =   22.790 kcal/mol  (  0.036318 au)

 Total Entropy                    =   68.326 cal/mol-K
   - Translational                =   36.314 cal/mol-K (mol. weight =  32.0953)
   - Rotational                   =   23.360 cal/mol-K (symmetry #  =        1)
   - Vibrational                  =    8.652 cal/mol-K

 Cv (constant volume heat capacity) =   21.453 cal/mol-K
   - Translational                  =    2.979 cal/mol-K
   - Rotational                     =    2.979 cal/mol-K
   - Vibrational                    =   15.494 cal/mol-K



          -------------------------------------------------
          NORMAL MODE EIGENVECTORS IN CARTESIAN COORDINATES
          -------------------------------------------------
             (Projected Frequencies expressed in cm-1)

                    1           2           3           4           5           6
 
 P.Frequency       -0.00        0.00        0.00        0.00        0.00        0.00
 
           1     0.05978    -0.00460    -0.08265    -0.02803     0.09262     0.20426
           2    -0.01353     0.10162     0.20778     0.02284     0.08344    -0.01869
           3    -0.20976    -0.10858    -0.02159     0.05702    -0.04463     0.00396
           4    -0.04637     0.05223    -0.11692     0.17130     0.00469     0.14136
           5    -0.01107    -0.14275     0.20559     0.06982     0.01533     0.00410
           6    -0.21470    -0.11752    -0.02333     0.06876    -0.05207     0.00205
           7     0.05145     0.00495     0.12685    -0.09402    -0.04383     0.19589
           8    -0.01431     0.11388     0.21828     0.01777     0.07964    -0.02034
           9    -0.21794     0.13911    -0.01064     0.01671     0.01225    -0.02239
          10     0.06551    -0.00792    -0.09142    -0.03471     0.10386     0.20783
          11    -0.00026     0.10101     0.00002     0.07709     0.22733    -0.00840
          12    -0.10282    -0.17767     0.00217    -0.13724     0.04710     0.06852
          13     0.04700     0.00710     0.11576    -0.08195    -0.04162     0.19341
          14    -0.00075     0.08992     0.00937     0.07676     0.21768    -0.00783
          15    -0.11101     0.07002     0.01313    -0.17756     0.10398     0.04217
          16    -0.04192     0.05008    -0.10583     0.15922     0.00248     0.14384
          17     0.00220    -0.14336    -0.00217     0.12407     0.15922     0.01438
          18    -0.10806    -0.16326     0.00159    -0.13024     0.04552     0.06438
          19    -0.05470     0.06178     0.09257     0.10530    -0.13176     0.13298
          20    -0.01058    -0.13166     0.19624     0.07015     0.02498     0.00353
          21    -0.21270     0.12470    -0.01005     0.00970     0.01384    -0.01826
          22    -0.06043     0.06510     0.10134     0.11198    -0.14300     0.12941
          23     0.00298    -0.15562    -0.01268     0.12914     0.16301     0.01604
          24    -0.10606     0.07896     0.01487    -0.18930     0.11142     0.04408

                    7           8           9          10          11          12
 
 P.Frequency      270.78      375.51      375.53      384.18      389.30      389.49
 
           1    -0.02290     0.14886     0.03573    -0.18768    -0.02947    -0.10087
           2    -0.02283    -0.10616     0.11037    -0.18791    -0.07455     0.07341
           3    -0.02279    -0.04379    -0.14596    -0.18859     0.10162     0.02446
           4    -0.07629    -0.02604    -0.00735     0.01258    -0.07639    -0.00820
           5    -0.07645     0.01788    -0.02034     0.01250    -0.07066    -0.02987
           6     0.08888    -0.00730    -0.02439    -0.02584     0.06836     0.01744
           7    -0.07661    -0.02572    -0.00503     0.01217     0.06173    -0.04668
           8     0.08878    -0.01829     0.01827    -0.02549    -0.04966     0.05008
           9    -0.07641     0.00753     0.02640     0.01220     0.04518    -0.06189
          10     0.08854     0.02552     0.00615    -0.02506    -0.01909    -0.06805
          11    -0.07636     0.01860    -0.01907     0.01160     0.03116     0.07076
          12    -0.07657     0.00793     0.02530     0.01169     0.00959     0.07665
          13     0.09759    -0.14898    -0.03286     0.04809     0.18183    -0.04534
          14     0.09773     0.10663    -0.11010     0.04684     0.13722     0.12714
          15    -0.15796    -0.04413    -0.14899     0.08138    -0.10525    -0.02782
          16     0.09755    -0.14998    -0.03857     0.04908    -0.17716     0.05413
          17    -0.15805    -0.10552     0.11309     0.08106     0.07725    -0.07832
          18     0.09770     0.04421     0.14598     0.04755    -0.05282     0.17994
          19    -0.15791     0.15015     0.03572     0.07974     0.02910     0.10780
          20     0.09747     0.10503    -0.11309     0.04939    -0.12851    -0.13401
          21     0.09739     0.04361     0.14870     0.04910     0.04055    -0.18078
          22    -0.03540     0.02591     0.00613     0.07525     0.00381     0.01344
          23    -0.03563    -0.01804     0.01929     0.07538     0.00965    -0.00900
          24    -0.03579    -0.00744    -0.02550     0.07541    -0.01242    -0.00301

                   13          14          15          16          17          18
 
 P.Frequency      684.53      684.68      684.71      905.45      905.50      940.43
 
           1     0.00008    -0.04625    -0.05625     0.00527     0.00848     0.02568
           2     0.00000    -0.02562     0.06816    -0.00990     0.00040     0.02594
           3    -0.00012     0.07184    -0.01191     0.00465    -0.00878     0.02613
           4    -0.37524    -0.20530     0.16829     0.21586     0.34388    -0.29397
           5     0.37568    -0.24793    -0.09308    -0.40618     0.01419    -0.29511
           6     0.00055    -0.45374     0.07524    -0.18975     0.35816    -0.18628
           7     0.37536     0.20582    -0.16791     0.21604     0.34376    -0.29328
           8     0.00027     0.16181    -0.43062     0.40478    -0.01506    -0.18506
           9    -0.37500    -0.04405    -0.26223     0.18993    -0.35953    -0.29559
          10    -0.00067     0.29199     0.35543    -0.21548    -0.34390    -0.18334
          11    -0.37577     0.24813     0.09269    -0.40587     0.01476    -0.29441
          12     0.37500     0.04357     0.26228     0.19011    -0.35893    -0.29539
          13    -0.05936    -0.03230     0.02643    -0.00545    -0.00850     0.02875
          14     0.05940    -0.03896    -0.01460     0.01011    -0.00028     0.02899
          15     0.00005    -0.07180     0.01186     0.00470    -0.00881     0.06705
          16     0.05939     0.03233    -0.02643    -0.00531    -0.00858     0.02872
          17    -0.00003     0.02550    -0.06808    -0.01004     0.00044     0.06692
          18    -0.05917    -0.00683    -0.04126    -0.00466     0.00896     0.02911
          19    -0.00015     0.04609     0.05613     0.00530     0.00853     0.06676
          20    -0.05934     0.03902     0.01466     0.01012    -0.00038     0.02888
          21     0.05922     0.00694     0.04127    -0.00477     0.00893     0.02906
          22     0.00081    -0.29166    -0.35498    -0.21508    -0.34327    -0.27301
          23    -0.00036    -0.16154     0.43000     0.40530    -0.01518    -0.27470
          24    -0.00043     0.45322    -0.07498    -0.18973     0.35813    -0.27639

                   19          20          21          22          23          24
 
 P.Frequency      956.51      956.67      992.95      993.25     1001.24     1163.53
 
           1     0.05970     0.01108     0.02179     0.00281     0.02346     0.00283
           2    -0.03932     0.04613    -0.00823    -0.02022     0.02358     0.00287
           3    -0.02016    -0.05706    -0.01321     0.01733     0.02363     0.00287
           4    -0.38108    -0.01615    -0.10221     0.48078    -0.06372    -0.24093
           5     0.28487    -0.25222    -0.43874     0.22149    -0.06247    -0.24074
           6     0.11481     0.32576     0.19349    -0.25353    -0.39803     0.34667
           7    -0.36176    -0.12256     0.02646    -0.49043    -0.06590    -0.24058
           8     0.22444    -0.26348     0.12065     0.29685    -0.39708     0.34653
           9     0.17559     0.33666    -0.36573    -0.32847    -0.06368    -0.24046
          10    -0.34108    -0.06330    -0.31884    -0.04117    -0.39517     0.34703
          11     0.20239    -0.32238     0.46678    -0.15272    -0.06716    -0.24101
          12     0.07417     0.37266     0.41113     0.26875    -0.06612    -0.24109
          13     0.05545    -0.00110     0.00165     0.02897     0.01075    -0.02369
          14    -0.04365     0.03400    -0.02846     0.00591     0.01088    -0.02367
          15    -0.01577    -0.04487     0.00665    -0.00869    -0.02594     0.02244
          16     0.05132     0.02101     0.00914    -0.02765     0.01064    -0.02369
          17    -0.03080     0.03648     0.00413     0.01035    -0.02588     0.02247
          18    -0.02864    -0.04728    -0.02595    -0.01313     0.01081    -0.02367
          19     0.04718     0.00883    -0.01112    -0.00141    -0.02586     0.02245
          20    -0.02655     0.04862     0.02438    -0.01592     0.01061    -0.02368
          21    -0.00734    -0.05481     0.01940     0.02169     0.01066    -0.02369
          22    -0.40342    -0.07522     0.24514     0.03178     0.39266     0.28830
          23     0.26513    -0.31216    -0.09175    -0.22717     0.39317     0.28848
          24     0.13612     0.38515    -0.14760     0.19347     0.39442     0.28840



 ----------------------------------------------------------------------------
 Normal Eigenvalue ||    Projected Derivative Dipole Moments (debye/angs)
  Mode   [cm**-1]  ||      [d/dqX]             [d/dqY]           [d/dqZ]
 ------ ---------- || ------------------ ------------------ -----------------
    1       -0.000 ||      -0.000               0.000             0.000
    2        0.000 ||       0.000              -0.000            -0.000
    3        0.000 ||       0.000               0.000            -0.000
    4        0.000 ||      -0.000              -0.000             0.000
    5        0.000 ||      -0.000               0.000             0.000
    6        0.000 ||       0.000              -0.000             0.000
    7      270.776 ||       0.444               0.444             0.444
    8      375.505 ||       0.002              -0.001            -0.004
    9      375.527 ||       0.001               0.010            -0.010
   10      384.177 ||      -0.415              -0.410            -0.407
   11      389.296 ||       0.169               0.448            -0.624
   12      389.488 ||       0.617              -0.461            -0.164
   13      684.532 ||      -0.001               0.001            -0.000
   14      684.684 ||      -0.003              -0.001             0.003
   15      684.712 ||      -0.003               0.003            -0.001
   16      905.448 ||      -0.005               0.007            -0.002
   17      905.498 ||      -0.001               0.004             0.007
   18      940.435 ||      -3.622              -3.641            -3.656
   19      956.508 ||       5.104              -3.352            -1.718
   20      956.674 ||       0.952               3.947            -4.874
   21      992.951 ||       0.811              -0.311            -0.498
   22      993.251 ||       0.105              -0.753             0.650
   23     1001.236 ||       0.251               0.257             0.258
   24     1163.533 ||      -0.525              -0.523            -0.524
 ----------------------------------------------------------------------------



  
  
 ----------------------------------------------------------------------------
 Normal Eigenvalue ||           Projected Infra Red Intensities
  Mode   [cm**-1]  || [atomic units] [(debye/angs)**2] [(KM/mol)] [arbitrary]
 ------ ---------- || -------------- ----------------- ---------- -----------
    1       -0.000 ||    0.000000           0.000         0.000       0.000
    2        0.000 ||    0.000000           0.000         0.000       0.000
    3        0.000 ||    0.000000           0.000         0.000       0.000
    4        0.000 ||    0.000000           0.000         0.000       0.000
    5        0.000 ||    0.000000           0.000         0.000       0.000
    6        0.000 ||    0.000000           0.000         0.000       0.000
    7      270.776 ||    0.025650           0.592        25.005       1.131
    8      375.505 ||    0.000001           0.000         0.001       0.000
    9      375.527 ||    0.000008           0.000         0.008       0.000
   10      384.177 ||    0.021915           0.506        21.364       0.966
   11      389.296 ||    0.026799           0.618        26.125       1.182
   12      389.488 ||    0.026874           0.620        26.199       1.185
   13      684.532 ||    0.000000           0.000         0.000       0.000
   14      684.684 ||    0.000001           0.000         0.001       0.000
   15      684.712 ||    0.000001           0.000         0.001       0.000
   16      905.448 ||    0.000003           0.000         0.003       0.000
   17      905.498 ||    0.000003           0.000         0.003       0.000
   18      940.435 ||    1.722713          39.744      1679.386      75.955
   19      956.508 ||    1.744235          40.241      1700.367      76.904
   20      956.674 ||    1.744127          40.238      1700.261      76.899
   21      992.951 ||    0.043437           1.002        42.345       1.915
   22      993.251 ||    0.043412           1.002        42.321       1.914
   23     1001.236 ||    0.008467           0.195         8.254       0.373
   24     1163.533 ||    0.035703           0.824        34.805       1.574
 ----------------------------------------------------------------------------



 vib:animation  F

 Task  times  cpu:      757.1s     wall:      759.4s
 
 
                                NWChem Input Module
                                -------------------
 
 
 Summary of allocated global arrays
-----------------------------------
  No active global arrays



                         GA Statistics for process    0
                         ------------------------------

       create   destroy   get      put      acc     scatter   gather  read&inc
calls: 4898     4898     1.16e+06 5.79e+04 1.93e+05    0        0     3.84e+04 
number of processes/call 1.10e+00 1.65e+00 1.02e+00 0.00e+00 0.00e+00
bytes total:             4.78e+09 2.12e+08 9.48e+08 0.00e+00 0.00e+00 3.07e+05
bytes remote:            3.20e+09 7.11e+07 6.35e+08 0.00e+00 0.00e+00 0.00e+00
Max memory consumed for GA by this process: 2387456 bytes
 
MA_summarize_allocated_blocks: starting scan ...
MA_summarize_allocated_blocks: scan completed: 0 heap blocks, 0 stack blocks
MA usage statistics:

	allocation statistics:
					      heap	     stack
					      ----	     -----
	current number of blocks	         0	         0
	maximum number of blocks	        24	        54
	current total bytes		         0	         0
	maximum total bytes		   1797624	  33547048
	maximum total K-bytes		      1798	     33548
	maximum total M-bytes		         2	        34
 
 
                                     CITATION
                                     --------
                Please cite the following reference when publishing
                           results obtained with NWChem:
 
                 M. Valiev, E.J. Bylaska, N. Govind, K. Kowalski,
              T.P. Straatsma, H.J.J. van Dam, D. Wang, J. Nieplocha,
                        E. Apra, T.L. Windus, W.A. de Jong
                 "NWChem: a comprehensive and scalable open-source
                  solution for large scale molecular simulations"
                      Comput. Phys. Commun. 181, 1477 (2010)
                           doi:10.1016/j.cpc.2010.04.018
 
                                      AUTHORS
                                      -------
          E. Apra, E. J. Bylaska, W. A. de Jong, N. Govind, K. Kowalski,
       T. P. Straatsma, M. Valiev, H. J. J. van Dam, D. Wang, T. L. Windus,
        J. Hammond, J. Autschbach, K. Bhaskaran-Nair, J. Brabec, K. Lopata,
        S. Krishnamoorthy, W. Ma, M. Klemm, O. Villa, Y. Chen, V. Anisimov,
    F. Aquino, S. Hirata, M. T. Hackler, T. Risthaus, M. Malagoli, A. Marenich,
   A. Otero-de-la-Roza, J. Mullin, P. Nichols, R. Peverati, J. Pittner, Y. Zhao,
         P.-D. Fan, A. Fonari, R. J. Harrison, M. Dupuis, D. Silverstein,
    D. M. A. Smith, J. Nieplocha, V. Tipparaju, M. Krishnan, B. E. Van Kuiken,
        A. Vazquez-Mayagoitia, L. Jensen, M. Swart, Q. Wu, T. Van Voorhis,
     A. A. Auer, M. Nooijen, L. D. Crosby, E. Brown, G. Cisneros, G. I. Fann,
   H. Fruchtl, J. Garza, K. Hirao, R. A. Kendall, J. A. Nichols, K. Tsemekhman,
    K. Wolinski, J. Anchell, D. E. Bernholdt, P. Borowski, T. Clark, D. Clerc,
   H. Dachsel, M. J. O. Deegan, K. Dyall, D. Elwood, E. Glendening, M. Gutowski,
   A. C. Hess, J. Jaffe, B. G. Johnson, J. Ju, R. Kobayashi, R. Kutteh, Z. Lin,
   R. Littlefield, X. Long, B. Meng, T. Nakajima, S. Niu, L. Pollack, M. Rosing,
   K. Glaesemann, G. Sandrone, M. Stave, H. Taylor, G. Thomas, J. H. van Lenthe,
                               A. T. Wong, Z. Zhang.

 Total times  cpu:      922.6s     wall:      926.6s
