 argument  1 = prop_h2o.nw
 


============================== echo of input deck ==============================
echo
start prop_h2o
title h2o

geometry units au nocenter
o       .00000000      .00000000      .11786656
h       .00000000     1.84118838     -.93531364
h       .00000000    -1.84118838     -.93531364
end

basis noprint
  H library sto-3g
  O library sto-3g
end
 charge 0
property
  mulliken
  dipole
  quadrupole
  octupole
  esp
  efield
  efieldgrad
  electrondensity
  shielding
end

task scf property

dft
 xc b3lyp
end

task dft property
================================================================================


                                         
                                         
 
 
              Northwest Computational Chemistry Package (NWChem) 6.0
              ------------------------------------------------------
 
 
                    Environmental Molecular Sciences Laboratory
                       Pacific Northwest National Laboratory
                                Richland, WA 99352
 
                              Copyright (c) 1994-2010
                       Pacific Northwest National Laboratory
                            Battelle Memorial Institute
 
             NWChem is an open-source computational chemistry package
                        distributed under the terms of the
                      Educational Community License (ECL) 2.0
             A copy of the license is included with this distribution
                              in the LICENSE.TXT file
 
                                  ACKNOWLEDGMENT
                                  --------------

            This software and its documentation were developed at the
            EMSL at Pacific Northwest National Laboratory, a multiprogram
            national laboratory, operated for the U.S. Department of Energy
            by Battelle under Contract Number DE-AC05-76RL01830. Support
            for this work was provided by the Department of Energy Office
            of Biological and Environmental Research, Office of Basic
            Energy Sciences, and the Office of Advanced Scientific Computing.


           Job information
           ---------------

    hostname      = curie
    program       = ../../../bin/LINUX64/nwchem
    date          = Wed Sep  8 09:20:29 2010

    compiled      = Wed_Sep_08_09:18:36_2010
    source        = /home/niri/nwchem/nwchem-6.0_new
    nwchem branch = 6.0
    input         = prop_h2o.nw
    prefix        = prop_h2o.
    data base     = ./prop_h2o.db
    status        = startup
    nproc         =        2
    time left     =     -1s



           Memory information
           ------------------

    heap     =   13107201 doubles =    100.0 Mbytes
    stack    =   13107201 doubles =    100.0 Mbytes
    global   =   26214400 doubles =    200.0 Mbytes (distinct from heap & stack)
    total    =   52428802 doubles =    400.0 Mbytes
    verify   = yes
    hardfail = no 


           Directory information
           ---------------------
 
  0 permanent = .
  0 scratch   = .
 
 
 
 
                                NWChem Input Module
                                -------------------
 
 
                                        h2o
                                        ---
 C2V symmetry detected

          ------
          auto-z
          ------
 
 
                             Geometry "geometry" -> ""
                             -------------------------
 
 Output coordinates in a.u. (scale by  1.000000000 to convert to a.u.)
 
  No.       Tag          Charge          X              Y              Z
 ---- ---------------- ---------- -------------- -------------- --------------
    1 o                    8.0000     0.00000000     0.00000000     0.11786656
    2 h                    1.0000    -1.84118838     0.00000000    -0.93531364
    3 h                    1.0000     1.84118838     0.00000000    -0.93531364
 
      Atomic Mass 
      ----------- 
 
      o                 15.994910
      h                  1.007825
 

 Effective nuclear repulsion energy (a.u.)       7.8147374646

            Nuclear Dipole moment (a.u.) 
            ----------------------------
        X                 Y               Z
 ---------------- ---------------- ----------------
     0.0000000000     0.0000000000    -0.9276948448
 
      Symmetry information
      --------------------
 
 Group name             C2v       
 Group number             16
 Group order               4
 No. of unique centers     2
 
      Symmetry unique atoms
 
     1    2
 


                                Z-matrix (autoz)
                                -------- 

 Units are Angstrom for bonds and degrees for angles
 
      Type          Name      I     J     K     L     M      Value
      ----------- --------  ----- ----- ----- ----- ----- ----------
    1 Stretch                  1     2                       1.12245
    2 Stretch                  1     3                       1.12245
    3 Bend                     2     1     3               120.45993
 
 
            XYZ format geometry
            -------------------
     3
 geometry
 o                     0.00000000     0.00000000     0.06237230
 h                    -0.97431500     0.00000000    -0.49494670
 h                     0.97431500     0.00000000    -0.49494670
 
  library name resolved from: environment
  library file name is: </home/niri/nwchem/nwchem-6.0_new/src/basis/libraries/>
  
                              NWChem Property Module
                              ----------------------
 
 
                                        h2o
 
                                 NWChem SCF Module
                                 -----------------
 
 
                                        h2o
 
 

  ao basis        = "ao basis"
  functions       =     7
  atoms           =     3
  closed shells   =     5
  open shells     =     0
  charge          =   0.00
  wavefunction    = RHF 
  input vectors   = atomic
  output vectors  = ./prop_h2o.movecs
  use symmetry    = F
  symmetry adapt  = F


 Summary of "ao basis" -> "ao basis" (cartesian)
 ------------------------------------------------------------------------------
       Tag                 Description            Shells   Functions and Types
 ---------------- ------------------------------  ------  ---------------------
 H                           sto-3g                  1        1   1s
 O                           sto-3g                  3        5   2s1p



 Forming initial guess at       0.1s

 
      Superposition of Atomic Density Guess
      -------------------------------------
 
 Sum of atomic energies:         -74.71095592
 
      Non-variational initial energy
      ------------------------------

 Total energy =     -74.317721
 1-e energy   =    -119.270021
 2-e energy   =      37.137562
 HOMO         =      -0.227821
 LUMO         =       0.298134
 

 Starting SCF solution at       0.1s



 ----------------------------------------------
         Quadratically convergent ROHF

 Convergence threshold     :          1.000E-06
 Maximum no. of iterations :           30
 Final Fock-matrix accuracy:          1.000E-08
 ----------------------------------------------


 #quartets = 1.200D+02 #integrals = 2.560D+02 #direct =  0.0% #cached =100.0%


 Integral file          = ./prop_h2o.aoints.0
 Record size in doubles =  65536        No. of integs per rec  =  43688
 Max. records in memory =      2        Max. records in file   =  11657
 No. of bits per label  =      8        No. of bits per value  =     64


File balance: exchanges=     0  moved=     0  time=   0.0


              iter       energy          gnorm     gmax       time
             ----- ------------------- --------- --------- --------
                 1      -74.8588540099  7.27D-01  6.03D-01      0.0
                 2      -74.9124589392  1.40D-01  1.01D-01      0.0
                 3      -74.9139808890  3.43D-02  2.42D-02      0.1
                 4      -74.9140706256  3.75D-04  2.77D-04      0.1
                 5      -74.9140706450  2.38D-08  1.82D-08      0.1


       Final RHF  results 
       ------------------ 

         Total SCF energy =    -74.914070644958
      One-electron energy =   -119.966144626226
      Two-electron energy =     37.237336516697
 Nuclear repulsion energy =      7.814737464571

        Time for solution =      0.0s


             Final eigenvalues
             -----------------

              1      
    1  -20.2383
    2   -1.1860
    3   -0.5540
    4   -0.3949
    5   -0.3726
    6    0.4209
    7    0.6126
 
                       ROHF Final Molecular Orbital Analysis
                       -------------------------------------
 
 Vector    2  Occ=2.000000D+00  E=-1.186009D+00
              MO Center=  2.2D-16,  6.1D-18, -5.7D-02, r^2= 5.6D-01
   Bfn.  Coefficient  Atom+Function         Bfn.  Coefficient  Atom+Function  
  ----- ------------  ---------------      ----- ------------  ---------------
     2      0.892954  1 O  s                  1     -0.240442  1 O  s          
 
 Vector    3  Occ=2.000000D+00  E=-5.539732D-01
              MO Center= -1.2D-15, -1.0D-31, -2.1D-01, r^2= 1.0D+00
   Bfn.  Coefficient  Atom+Function         Bfn.  Coefficient  Atom+Function  
  ----- ------------  ---------------      ----- ------------  ---------------
     3      0.584127  1 O  px                 6     -0.451450  2 H  s          
     7      0.451450  3 H  s          
 
 Vector    4  Occ=2.000000D+00  E=-3.948617D-01
              MO Center=  2.2D-15,  3.1D-16,  4.3D-02, r^2= 7.4D-01
   Bfn.  Coefficient  Atom+Function         Bfn.  Coefficient  Atom+Function  
  ----- ------------  ---------------      ----- ------------  ---------------
     5      0.791068  1 O  pz                 2      0.436428  1 O  s          
     7     -0.320232  3 H  s                  6     -0.320232  2 H  s          
 
 Vector    5  Occ=2.000000D+00  E=-3.725535D-01
              MO Center=  9.1D-31, -3.5D-16,  6.2D-02, r^2= 4.2D-01
   Bfn.  Coefficient  Atom+Function         Bfn.  Coefficient  Atom+Function  
  ----- ------------  ---------------      ----- ------------  ---------------
     4      1.000000  1 O  py         
 
 Vector    6  Occ=0.000000D+00  E= 4.209277D-01
              MO Center= -3.1D-15,  3.5D-17, -4.0D-01, r^2= 1.3D+00
   Bfn.  Coefficient  Atom+Function         Bfn.  Coefficient  Atom+Function  
  ----- ------------  ---------------      ----- ------------  ---------------
     6      0.713199  2 H  s                  7      0.713199  3 H  s          
     2     -0.669383  1 O  s                  5      0.661754  1 O  pz         
 
 Vector    7  Occ=0.000000D+00  E= 6.126016D-01
              MO Center=  2.3D-15,  5.5D-32, -2.4D-01, r^2= 1.2D+00
   Bfn.  Coefficient  Atom+Function         Bfn.  Coefficient  Atom+Function  
  ----- ------------  ---------------      ----- ------------  ---------------
     3      0.945893  1 O  px                 7     -0.711468  3 H  s          
     6      0.711468  2 H  s          
 

 center of mass
 --------------
 x =   0.00000000 y =   0.00000000 z =   0.00000000

 moments of inertia (a.u.)
 ------------------
           1.985523714464           0.000000000000           0.000000000000
           0.000000000000           8.818526119040           0.000000000000
           0.000000000000           0.000000000000           6.833002404577
 
  Mulliken analysis of the total density
  --------------------------------------

    Atom       Charge   Shell Charges
 -----------   ------   -------------------------------------------------------
    1 O    8     8.27   2.00  1.85  4.42
    2 H    1     0.86   0.86
    3 H    1     0.86   0.86
 
       Multipole analysis of the density wrt the origin
       ------------------------------------------------
 
     L   x y z        total         open         nuclear
     -   - - -        -----         ----         -------
     0   0 0 0      0.000000      0.000000     10.000000
 
     1   1 0 0      0.000000      0.000000      0.000000
     1   0 1 0      0.000000      0.000000      0.000000
     1   0 0 1     -0.560197      0.000000     -0.927695
 
     2   2 0 0     -2.770209      0.000000      6.779949
     2   1 1 0      0.000000      0.000000      0.000000
     2   1 0 1      0.000000      0.000000      0.000000
     2   0 2 0     -4.613255      0.000000      0.000000
     2   0 1 1      0.000000      0.000000      0.000000
     2   0 0 2     -4.068124      0.000000      1.860763
 

 Parallel integral file used       2 records with       0 large values


          -------------
          Dipole Moment
          -------------

 Center of charge (in au) is the expansion point
         X =       0.0000000 Y =       0.0000000 Z =      -0.0927695

   Dipole moment        0.5601971839 A.U.
             DMX        0.0000000000 DMXEFC        0.0000000000
             DMY        0.0000000000 DMYEFC        0.0000000000
             DMZ       -0.5601971839 DMZEFC        0.0000000000
   -EFC- dipole         0.0000000000 A.U.
   Total dipole         0.5601971839 A.U.

   Dipole moment        1.4238899760 Debye(s)
             DMX        0.0000000000 DMXEFC        0.0000000000
             DMY        0.0000000000 DMYEFC        0.0000000000
             DMZ       -1.4238899760 DMZEFC        0.0000000000
   -EFC- dipole         0.0000000000 DEBYE(S)
   Total dipole         1.4238899760 DEBYE(S)

 1 a.u. = 2.541766 Debyes 

          -----------------
          Quadrupole Moment
          -----------------

 Center of charge (in au) is the expansion point
         X =       0.0000000 Y =       0.0000000 Z =      -0.0927695

 < R**2 > =  20.110177 a.u.  ( 1 a.u. = 0.280023 10**(-16) cm**2 ) 
 ( also called diamagnetic susceptibility ) 

   Second moments in atomic units

   Component  Electronic+nuclear     Point charges             Total
  --------------------------------------------------------------------------
      XX           -2.7702089474          0.0000000000         -2.7702089474
      YY           -4.6132552220          0.0000000000         -4.6132552220
      ZZ           -4.1720622475          0.0000000000         -4.1720622475
      XY            0.0000000000          0.0000000000          0.0000000000
      XZ            0.0000000000          0.0000000000          0.0000000000
      YZ            0.0000000000          0.0000000000          0.0000000000

   Second moments in buckingham(s)

   Component  Electronic+nuclear     Point charges             Total
  --------------------------------------------------------------------------
      XX           -3.7256844857          0.0000000000         -3.7256844857
      YY           -6.2044176939          0.0000000000         -6.2044176939
      ZZ           -5.6110524094          0.0000000000         -5.6110524094
      XY            0.0000000000          0.0000000000          0.0000000000
      XZ            0.0000000000          0.0000000000          0.0000000000
      YZ            0.0000000000          0.0000000000          0.0000000000

   Quadrupole moments in atomic units

   Component  Electronic+nuclear     Point charges             Total
  --------------------------------------------------------------------------
      XX            1.6224497874          0.0000000000          1.6224497874
      YY           -1.1421196246          0.0000000000         -1.1421196246
      ZZ           -0.4803301628          0.0000000000         -0.4803301628
      XY            0.0000000000          0.0000000000          0.0000000000
      XZ            0.0000000000          0.0000000000          0.0000000000
      YZ            0.0000000000          0.0000000000          0.0000000000

   Quadrupole moments in buckingham(s)

   Component  Electronic+nuclear     Point charges             Total
  --------------------------------------------------------------------------
      XX            2.1820505660          0.0000000000          2.1820505660
      YY           -1.5360492464          0.0000000000         -1.5360492464
      ZZ           -0.6460013196          0.0000000000         -0.6460013196
      XY            0.0000000000          0.0000000000          0.0000000000
      XZ            0.0000000000          0.0000000000          0.0000000000
      YZ            0.0000000000          0.0000000000          0.0000000000

 1 a.u. = 1.344911 Buckinghams = 1.344911 10**(-26) esu*cm**2 

          ---------------
          Octupole Moment
          ---------------

 Center of charge (in au) is the expansion point
         X =       0.0000000 Y =       0.0000000 Z =      -0.0927695

   Third moments in atomic units

   Component  Electronic+nuclear     Point charges             Total
  --------------------------------------------------------------------------
      XXX           0.0000000000          0.0000000000          0.0000000000
      YYY           0.0000000000          0.0000000000          0.0000000000
      ZZZ           0.1173798330          0.0000000000          0.1173798330
      XXY           0.0000000000          0.0000000000          0.0000000000
      XXZ          -1.0882007663          0.0000000000         -1.0882007663
      YYX           0.0000000000          0.0000000000          0.0000000000
      YYZ           0.0838130556          0.0000000000          0.0838130556
      ZZX           0.0000000000          0.0000000000          0.0000000000
      ZZY           0.0000000000          0.0000000000          0.0000000000
      XYZ           0.0000000000          0.0000000000          0.0000000000

   Third moments in 10**(-34) esu*cm**3

   Component  Electronic+nuclear     Point charges             Total
  --------------------------------------------------------------------------
      XXX           0.0000000000          0.0000000000          0.0000000000
      YYY           0.0000000000          0.0000000000          0.0000000000
      ZZZ           0.0835378186          0.0000000000          0.0835378186
      XXY           0.0000000000          0.0000000000          0.0000000000
      XXZ          -0.7744594270          0.0000000000         -0.7744594270
      YYX           0.0000000000          0.0000000000          0.0000000000
      YYZ           0.0596487459          0.0000000000          0.0596487459
      ZZX           0.0000000000          0.0000000000          0.0000000000
      ZZY           0.0000000000          0.0000000000          0.0000000000
      XYZ           0.0000000000          0.0000000000          0.0000000000

   Octupole moments in atomic units

   Component  Electronic+nuclear     Point charges             Total
  --------------------------------------------------------------------------
      XXX           0.0000000000          0.0000000000          0.0000000000
      YYY           0.0000000000          0.0000000000          0.0000000000
      ZZZ           1.6239613991          0.0000000000          1.6239613991
      XXY           0.0000000000          0.0000000000          0.0000000000
      XXZ          -2.2769979769          0.0000000000         -2.2769979769
      YYX           0.0000000000          0.0000000000          0.0000000000
      YYZ           0.6530365779          0.0000000000          0.6530365779
      ZZX           0.0000000000          0.0000000000          0.0000000000
      ZZY           0.0000000000          0.0000000000          0.0000000000
      XYZ           0.0000000000          0.0000000000          0.0000000000

   Octupole moments in 10**(-34) esu*cm**3

   Component  Electronic+nuclear     Point charges             Total
  --------------------------------------------------------------------------
      XXX           0.0000000000          0.0000000000          0.0000000000
      YYY           0.0000000000          0.0000000000          0.0000000000
      ZZZ           1.1557538402          0.0000000000          1.1557538402
      XXY           0.0000000000          0.0000000000          0.0000000000
      XXZ          -1.6205121362          0.0000000000         -1.6205121362
      YYX           0.0000000000          0.0000000000          0.0000000000
      YYZ           0.4647582960          0.0000000000          0.4647582960
      ZZX           0.0000000000          0.0000000000          0.0000000000
      ZZY           0.0000000000          0.0000000000          0.0000000000
      XYZ           0.0000000000          0.0000000000          0.0000000000

 1 a.u. = 0.711688 10**(-34) esu*cm**3 


          ----------------------------
          Mulliken population analysis
          ----------------------------

          ----- Total      overlap population -----

                               1              2              3              4              5              6              7

    1  1 O  s             2.1078478838  -0.1078940360   0.0000000000   0.0000000000   0.0000000000  -0.0008759526  -0.0008759526
    2  1 O  s            -0.1078940360   1.9768194483   0.0000000000   0.0000000000   0.0000000000  -0.0080919229  -0.0080919229
    3  1 O  px            0.0000000000   0.0000000000   0.6824093093   0.0000000000   0.0000000000   0.1520094790   0.1520094790
    4  1 O  py            0.0000000000   0.0000000000   0.0000000000   2.0000000000   0.0000000000   0.0000000000   0.0000000000
    5  1 O  pz            0.0000000000   0.0000000000   0.0000000000   0.0000000000   1.2616091705   0.0868970562   0.0868970562
    6  2 H  s            -0.0008759526  -0.0080919229   0.1520094790   0.0000000000   0.0868970562   0.6545076535  -0.0208338430
    7  3 H  s            -0.0008759526  -0.0080919229   0.1520094790   0.0000000000   0.0868970562  -0.0208338430   0.6545076535

          ----- Total      gross population in ao -----

    1  1 O  s              1.99820
    2  1 O  s              1.85274
    3  1 O  px             0.98643
    4  1 O  py             2.00000
    5  1 O  pz             1.43540
    6  2 H  s              0.86361
    7  3 H  s              0.86361

          ----- Total      overlap population condensed to atoms -----


                               1              2              3
    1  O                  7.8128977399   0.2299386597   0.2299386597
    2  H                  0.2299386597   0.6545076535  -0.0208338430
    3  H                  0.2299386597  -0.0208338430   0.6545076535

 Total      S,P,D,... shell population
 --------------------------------
    Atom          S        P
 --------------------------------------------------------------------------------------
     1 O      3.85094   4.42183
     2 H      0.86361   0.00000
     3 H      0.86361   0.00000

          ----- Total      gross population on atoms ----

              1  O    8.0     8.27278
              2  H    1.0     0.86361
              3  H    1.0     0.86361

          ----- Bond indices -----
  1- 1   0.00000  1- 2   0.95891  1- 3   0.95891
  2- 1   0.95891  2- 2   0.00000  2- 3   0.02249
  3- 1   0.95891  3- 2   0.02249  3- 3   0.00000

 Large bond indices
 ------------------
  1   O -  2   H    0.95891
  1   O -  3   H    0.95891

                                                                Free electrons             Valency
                              Number of         Sum of          + Bond indices         - Bond indices    
                Valency     Free electrons    Bond indices     =Mulliken charge     = Net spin population
     1  O       1.91782        6.35495          1.91782           8.27278                 0.00000
     2  H       0.98140       -0.11779          0.98140           0.86361                 0.00000
     3  H       0.98140       -0.11779          0.98140           0.86361                 0.00000

          ---------------------------------------------
          Electrostatic potential/diamagnetic shielding
          ---------------------------------------------

 1 a.u. = 9.07618 esu/cm ( or statvolts ) 
   Point      X         Y         Z     Total Potential(a.u.)   Diamagnetic shielding(a.u.)
    1 O    0.00000   0.00000   0.11787     -22.062591            23.005488
    2 H   -1.84119   0.00000  -0.93531      -1.093638             5.136788
    3 H    1.84119   0.00000  -0.93531      -1.093638             5.136788

          --------------
          Electric field
          --------------

 1 a.u. = 0.171524 10**(-8) dyn/esu 

   Atom       X         Y         Z                        Electric field (a.u.)
                                              X              Y              Z           Field
  ------------------------------------------------------------------------------------------------
    1 O    0.00000   0.00000   0.11787       0.000000       0.000000       0.334636       0.334636
    2 H   -1.84119   0.00000  -0.93531       0.029511       0.000000       0.019754       0.035512
    3 H    1.84119   0.00000  -0.93531      -0.029511       0.000000       0.019754       0.035512

          -----------------------
          Electric field gradient
          -----------------------

 1 a.u. = 0.324123 10**(16) esu/cm**3  ( or statvolts/cm**2 ) = 0.97174 10**(22) v/m**2 


 ------------------------------------------------------------
   Atom      X         Y         Z
 ------------------------------------------------------------
    1 O    0.00000   0.00000   0.11787
 ------------------------------------------------------------

 Electric field gradient in molecular frame (a.u.)
         XX             YY             ZZ             XY             XZ             YZ
 ------------------------------------------------------------------------------------------
       -2.522991       2.715783      -0.192792       0.000000       0.000000       0.000000

 Principal components (a.u.) and orientation 
 of principal axis w.r.t. absolute frame                      Asymmetry parameter eta
 --------------------------------------------------------------------------------------
        2.715783      -2.522991      -0.192792                       0.858021

        0.000000       1.000000       0.000000
        1.000000       0.000000       0.000000
        0.000000       0.000000       1.000000
  

 ------------------------------------------------------------
   Atom      X         Y         Z
 ------------------------------------------------------------
    2 H   -1.84119   0.00000  -0.93531
 ------------------------------------------------------------

 Electric field gradient in molecular frame (a.u.)
         XX             YY             ZZ             XY             XZ             YZ
 ------------------------------------------------------------------------------------------
       -0.094158       0.085581       0.008577       0.000000      -0.085345       0.000000

 Principal components (a.u.) and orientation 
 of principal axis w.r.t. absolute frame                      Asymmetry parameter eta
 --------------------------------------------------------------------------------------
       -0.142402       0.085581       0.056821                       0.201966

        0.870541       0.000000      -0.492096
        0.000000       1.000000       0.000000
        0.492096       0.000000       0.870541
  

 ------------------------------------------------------------
   Atom      X         Y         Z
 ------------------------------------------------------------
    3 H    1.84119   0.00000  -0.93531
 ------------------------------------------------------------

 Electric field gradient in molecular frame (a.u.)
         XX             YY             ZZ             XY             XZ             YZ
 ------------------------------------------------------------------------------------------
       -0.094158       0.085581       0.008577       0.000000       0.085345       0.000000

 Principal components (a.u.) and orientation 
 of principal axis w.r.t. absolute frame                      Asymmetry parameter eta
 --------------------------------------------------------------------------------------
       -0.142402       0.085581       0.056821                       0.201966

        0.870541       0.000000       0.492096
        0.000000       1.000000       0.000000
       -0.492096       0.000000       0.870541
  

          ---------------------
          Electron/spin density
          ---------------------

 1 a.u. = 4.80286 10**(-10) esu 

 Total electron density 
 ---------------------- 
   Point      X         Y         Z      Density (a.u.)
    1 O    0.00000   0.00000   0.11787     193.439507
    2 H   -1.84119   0.00000  -0.93531       0.330282
    3 H    1.84119   0.00000  -0.93531       0.330282

          -----------------------------------------
          Chemical Shielding Tensors (GIAO, in ppm)
          -----------------------------------------

                                NWChem CPHF Module
                                ------------------
 
 
  scftype          =     RHF 
  nclosed          =        5
  nopen            =        0
  variables        =       10
  # of vectors     =        3
  tolerance        = 0.10D-03
  level shift      = 0.00D+00
  max iterations   =       50
  max subspace     =       30


 #quartets = 1.200D+02 #integrals = 2.560D+02 #direct =  0.0% #cached =100.0%


 Integral file          = ./prop_h2o.aoints.0
 Record size in doubles =  65536        No. of integs per rec  =  43688
 Max. records in memory =      2        Max. records in file   =  11657
 No. of bits per label  =      8        No. of bits per value  =     64


File balance: exchanges=     0  moved=     0  time=   0.0



Iterative solution of linear equations
  No. of variables       10
  No. of equations        3
  Maximum subspace       30
        Iterations       50
       Convergence  1.0D-04
        Start time      0.4


   iter   nsub   residual    time
   ----  ------  --------  ---------
     1      3    7.09D-01       0.4
     2      6    5.96D-02       0.4
     3      9    5.89D-03       0.5
     4     12    9.76D-06       0.5

 Parallel integral file used       2 records with       0 large values

      Atom:    1  O 
        Diamagnetic
    394.6973      0.0000      0.0000
      0.0000    361.4697      0.0000
      0.0000      0.0000    380.1678

        Paramagnetic
   -179.4111      0.0000      0.0000
      0.0000   -124.3989      0.0000
      0.0000      0.0000   -109.8420

        Total Shielding Tensor
    215.2862      0.0000      0.0000
      0.0000    237.0708      0.0000
      0.0000      0.0000    270.3258

           isotropic =     240.8943
          anisotropy =      44.1473

          Principal Components and Axis System
                 1           2           3
              270.3258    237.0708    215.2862

      1         0.0000      0.0000      1.0000
      2         0.0000      1.0000      0.0000
      3         1.0000      0.0000      0.0000



      Atom:    2  H 
        Diamagnetic
     33.1490      0.0000      4.5419
      0.0000     21.0187      0.0000
      5.6317      0.0000     24.9948

        Paramagnetic
      0.0626      0.0000     -2.5167
      0.0000      4.1605      0.0000
     -7.7287      0.0000      2.4499

        Total Shielding Tensor
     33.2116      0.0000      2.0252
      0.0000     25.1792      0.0000
     -2.0970      0.0000     27.4448

           isotropic =      28.6119
          anisotropy =       7.8599

          Principal Components and Axis System
                 1           2           3
               33.8518     26.8046     25.1792

      1         0.9535     -0.3014      0.0000
      2         0.0000      0.0000      1.0000
      3         0.3014      0.9535      0.0000



      Atom:    3  H 
        Diamagnetic
     33.1490      0.0000     -4.5419
      0.0000     21.0187      0.0000
     -5.6317      0.0000     24.9948

        Paramagnetic
      0.0626      0.0000      2.5167
      0.0000      4.1605      0.0000
      7.7287      0.0000      2.4499

        Total Shielding Tensor
     33.2116      0.0000     -2.0252
      0.0000     25.1792      0.0000
      2.0970      0.0000     27.4448

           isotropic =      28.6119
          anisotropy =       7.8599

          Principal Components and Axis System
                 1           2           3
               33.8518     26.8046     25.1792

      1         0.9535      0.3014      0.0000
      2         0.0000      0.0000      1.0000
      3        -0.3014      0.9535      0.0000




 Task  times  cpu:        0.2s     wall:        0.5s
 
 
                                NWChem Input Module
                                -------------------
 
 
                              NWChem Property Module
                              ----------------------
 
 
                                        h2o
 
  itol2e modified to match energy
  convergence criterion.
 
                                 NWChem DFT Module
                                 -----------------
 
 
                                        h2o
 
 
  Caching 1-el integrals 
 
            General Information
            -------------------
          SCF calculation type: DFT
          Wavefunction type:  closed shell.
          No. of atoms     :     3
          No. of electrons :    10
           Alpha electrons :     5
            Beta electrons :     5
          Charge           :     0
          Spin multiplicity:     1
          Use of symmetry is: off; symmetry adaption is: off
          Maximum number of iterations:  30
          AO basis - number of functions:     7
                     number of shells:     5
          Convergence on energy requested: 1.00D-07
          Convergence on density requested: 1.00D-05
          Convergence on gradient requested: 1.00D-06
 
              XC Information
              --------------
                         B3LYP Method XC Potential
                     Hartree-Fock (Exact) Exchange  0.200          
                        Slater Exchange Functional  0.800 local    
                    Becke 1988 Exchange Functional  0.720 non-local
              Lee-Yang-Parr Correlation Functional  0.810          
                  VWN I RPA Correlation Functional  0.190 local    
 
             Grid Information
             ----------------
          Grid used for XC integration:  fine      
          Radial quadrature: Mura-Knowles        
          Angular quadrature: Lebedev. 
          Tag              B.-S. Rad. Rad. Pts. Rad. Cut. Ang. Pts.
          ---              ---------- --------- --------- ---------
          o                   0.60       70           5.0       590
          h                   0.35       60           7.0       590
          Grid pruning is: on 
          Number of quadrature shells:   190
          Spatial weights used:  Erf1
 
          Convergence Information
          -----------------------
          Convergence aids based upon iterative change in 
          total energy or number of iterations. 
          Levelshifting, if invoked, occurs when the 
          HOMO/LUMO gap drops below (HL_TOL): 1.00D-02
          DIIS, if invoked, will attempt to extrapolate 
          using up to (NFOCK): 10 stored Fock matrices.

                    Damping( 0%)  Levelshifting(0.5)       DIIS
                  --------------- ------------------- ---------------
          dE  on:    start            ASAP                start   
          dE off:    2 iters         30 iters            30 iters 

 
      Screening Tolerance Information
      -------------------------------
          Density screening/tol_rho: 1.00D-11
          AO Gaussian exp screening on grid/accAOfunc:  16
          CD Gaussian exp screening on grid/accCDfunc:  20
          XC Gaussian exp screening on grid/accXCfunc:  20
          Schwarz screening/accCoul: 1.00D-08

 
      Superposition of Atomic Density Guess
      -------------------------------------
 
 Sum of atomic energies:         -74.71095592
 
      Non-variational initial energy
      ------------------------------

 Total energy =     -74.317721
 1-e energy   =    -119.270021
 2-e energy   =      37.137562
 HOMO         =      -0.227821
 LUMO         =       0.298134
 
   Time after variat. SCF:      0.2
   Time prior to 1st pass:      0.2

 #quartets = 1.200D+02 #integrals = 2.560D+02 #direct =  0.0% #cached =100.0%


 Integral file          = ./prop_h2o.aoints.0
 Record size in doubles =  65536        No. of integs per rec  =  43688
 Max. records in memory =      2        Max. records in file   =  11657
 No. of bits per label  =      8        No. of bits per value  =     64


File balance: exchanges=     0  moved=     0  time=   0.0


 Grid_pts file          = ./prop_h2o.gridpts.0
 Record size in doubles =  12289        No. of grid_pts per rec  =   3070
 Max. records in memory =     22        Max. recs in file   =     62173


           Memory utilization after 1st SCF pass: 
           Heap Space remaining (MW):       12.70            12704956
          Stack Space remaining (MW):       13.11            13107047

   convergence    iter        energy       DeltaE   RMS-Dens  Diis-err    time
 ---------------- ----- ----------------- --------- --------- ---------  ------
 d= 0,ls=0.0,diis     1    -75.2240287850 -8.30D+01  1.85D-01  3.20D-01     0.4
 d= 0,ls=0.0,diis     2    -75.2118932568  1.21D-02  9.83D-02  3.95D-01     0.4
 d= 0,ls=0.0,diis     3    -75.2870526758 -7.52D-02  2.26D-03  2.67D-04     0.5
 d= 0,ls=0.0,diis     4    -75.2871025252 -4.98D-05  7.96D-05  3.61D-07     0.6
 d= 0,ls=0.0,diis     5    -75.2871025925 -6.74D-08  7.71D-06  2.84D-09     0.6


         Total DFT energy =      -75.287102592540
      One electron energy =     -119.927030548495
           Coulomb energy =       46.169323945835
    Exchange-Corr. energy =       -9.344133454453
 Nuclear repulsion energy =        7.814737464571

 Numeric. integr. density =       10.000000133088

     Total iterative time =      0.4s


 
                       DFT Final Molecular Orbital Analysis
                       ------------------------------------
 
 Vector    1  Occ=2.000000D+00  E=-1.883699D+01
              MO Center=  3.6D-12,  6.9D-14,  6.2D-02, r^2= 1.5D-02
   Bfn.  Coefficient  Atom+Function         Bfn.  Coefficient  Atom+Function  
  ----- ------------  ---------------      ----- ------------  ---------------
     1     -0.993732  1 O  s          
 
 Vector    2  Occ=2.000000D+00  E=-8.609986D-01
              MO Center=  1.5D-08,  5.0D-11, -1.1D-01, r^2= 5.6D-01
   Bfn.  Coefficient  Atom+Function         Bfn.  Coefficient  Atom+Function  
  ----- ------------  ---------------      ----- ------------  ---------------
     2      0.868572  1 O  s                  1     -0.237248  1 O  s          
     7      0.157581  3 H  s                  6      0.157581  2 H  s          
 
 Vector    3  Occ=2.000000D+00  E=-4.025992D-01
              MO Center=  9.7D-10, -2.8D-19, -2.1D-01, r^2= 1.0D+00
   Bfn.  Coefficient  Atom+Function         Bfn.  Coefficient  Atom+Function  
  ----- ------------  ---------------      ----- ------------  ---------------
     3     -0.587843  1 O  px                 7     -0.448648  3 H  s          
     6      0.448648  2 H  s          
 
 Vector    4  Occ=2.000000D+00  E=-1.989068D-01
              MO Center= -2.4D-09,  6.3D-11,  8.0D-02, r^2= 7.4D-01
   Bfn.  Coefficient  Atom+Function         Bfn.  Coefficient  Atom+Function  
  ----- ------------  ---------------      ----- ------------  ---------------
     5     -0.766244  1 O  pz                 2     -0.515069  1 O  s          
     6      0.328420  2 H  s                  7      0.328420  3 H  s          
 
 Vector    5  Occ=2.000000D+00  E=-1.304627D-01
              MO Center=  3.0D-20, -1.2D-10,  6.2D-02, r^2= 4.2D-01
   Bfn.  Coefficient  Atom+Function         Bfn.  Coefficient  Atom+Function  
  ----- ------------  ---------------      ----- ------------  ---------------
     4     -1.000000  1 O  py         
 
 Vector    6  Occ=0.000000D+00  E= 1.944120D-01
              MO Center=  5.3D-08,  4.5D-12, -3.8D-01, r^2= 1.3D+00
   Bfn.  Coefficient  Atom+Function         Bfn.  Coefficient  Atom+Function  
  ----- ------------  ---------------      ----- ------------  ---------------
     7      0.706667  3 H  s                  6      0.706667  2 H  s          
     5      0.680902  1 O  pz                 2     -0.645012  1 O  s          
 
 Vector    7  Occ=0.000000D+00  E= 3.489943D-01
              MO Center= -6.7D-08, -4.4D-19, -2.5D-01, r^2= 1.2D+00
   Bfn.  Coefficient  Atom+Function         Bfn.  Coefficient  Atom+Function  
  ----- ------------  ---------------      ----- ------------  ---------------
     3     -0.943588  1 O  px                 6     -0.713238  2 H  s          
     7      0.713238  3 H  s          
 

 center of mass
 --------------
 x =   0.00000000 y =   0.00000000 z =   0.00000000

 moments of inertia (a.u.)
 ------------------
           1.985523714464           0.000000000000           0.000000000000
           0.000000000000           8.818526119040           0.000000000000
           0.000000000000           0.000000000000           6.833002404577
 
     Multipole analysis of the density
     ---------------------------------
 
     L   x y z        total         alpha         beta         nuclear
     -   - - -        -----         -----         ----         -------
     0   0 0 0      0.000000     -5.000000     -5.000000     10.000000
 
     1   1 0 0      0.000000      0.000000      0.000000      0.000000
     1   0 1 0      0.000000      0.000000      0.000000      0.000000
     1   0 0 1     -0.520589      0.203553      0.203553     -0.927695
 
     2   2 0 0     -2.842102     -4.811026     -4.811026      6.779949
     2   1 1 0      0.000000      0.000000      0.000000      0.000000
     2   1 0 1      0.000000      0.000000      0.000000      0.000000
     2   0 2 0     -4.620483     -2.310241     -2.310241      0.000000
     2   0 1 1      0.000000      0.000000      0.000000      0.000000
     2   0 0 2     -4.072475     -2.966619     -2.966619      1.860763
 

 Parallel integral file used       2 records with       0 large values


          -------------
          Dipole Moment
          -------------

 Center of charge (in au) is the expansion point
         X =       0.0000000 Y =       0.0000000 Z =      -0.0927695

   Dipole moment        0.5205893270 A.U.
             DMX       -0.0000000517 DMXEFC        0.0000000000
             DMY        0.0000000000 DMYEFC        0.0000000000
             DMZ       -0.5205893270 DMZEFC        0.0000000000
   -EFC- dipole         0.0000000000 A.U.
   Total dipole         0.5205893270 A.U.

   Dipole moment        1.3232160846 Debye(s)
             DMX       -0.0000001313 DMXEFC        0.0000000000
             DMY        0.0000000000 DMYEFC        0.0000000000
             DMZ       -1.3232160846 DMZEFC        0.0000000000
   -EFC- dipole         0.0000000000 DEBYE(S)
   Total dipole         1.3232160846 DEBYE(S)

 1 a.u. = 2.541766 Debyes 

          -----------------
          Quadrupole Moment
          -----------------

 Center of charge (in au) is the expansion point
         X =       0.0000000 Y =       0.0000000 Z =      -0.0927695

 < R**2 > =  20.186301 a.u.  ( 1 a.u. = 0.280023 10**(-16) cm**2 ) 
 ( also called diamagnetic susceptibility ) 

   Second moments in atomic units

   Component  Electronic+nuclear     Point charges             Total
  --------------------------------------------------------------------------
      XX           -2.8421022347          0.0000000000         -2.8421022347
      YY           -4.6204827914          0.0000000000         -4.6204827914
      ZZ           -4.1690650781          0.0000000000         -4.1690650781
      XY            0.0000000000          0.0000000000          0.0000000000
      XZ            0.0000000364          0.0000000000          0.0000000364
      YZ            0.0000000000          0.0000000000          0.0000000000

   Second moments in buckingham(s)

   Component  Electronic+nuclear     Point charges             Total
  --------------------------------------------------------------------------
      XX           -3.8223745586          0.0000000000         -3.8223745586
      YY           -6.2141381314          0.0000000000         -6.2141381314
      ZZ           -5.6070214833          0.0000000000         -5.6070214833
      XY            0.0000000000          0.0000000000          0.0000000000
      XZ            0.0000000490          0.0000000000          0.0000000490
      YZ            0.0000000000          0.0000000000          0.0000000000

   Quadrupole moments in atomic units

   Component  Electronic+nuclear     Point charges             Total
  --------------------------------------------------------------------------
      XX            1.5526717000          0.0000000000          1.5526717000
      YY           -1.1148991349          0.0000000000         -1.1148991349
      ZZ           -0.4377725651          0.0000000000         -0.4377725651
      XY            0.0000000000          0.0000000000          0.0000000000
      XZ            0.0000000546          0.0000000000          0.0000000546
      YZ            0.0000000000          0.0000000000          0.0000000000

   Quadrupole moments in buckingham(s)

   Component  Electronic+nuclear     Point charges             Total
  --------------------------------------------------------------------------
      XX            2.0882052488          0.0000000000          2.0882052488
      YY           -1.4994401105          0.0000000000         -1.4994401105
      ZZ           -0.5887651383          0.0000000000         -0.5887651383
      XY            0.0000000001          0.0000000000          0.0000000001
      XZ            0.0000000735          0.0000000000          0.0000000735
      YZ            0.0000000000          0.0000000000          0.0000000000

 1 a.u. = 1.344911 Buckinghams = 1.344911 10**(-26) esu*cm**2 

          ---------------
          Octupole Moment
          ---------------

 Center of charge (in au) is the expansion point
         X =       0.0000000 Y =       0.0000000 Z =      -0.0927695

   Third moments in atomic units

   Component  Electronic+nuclear     Point charges             Total
  --------------------------------------------------------------------------
      XXX          -0.0000002811          0.0000000000         -0.0000002811
      YYY           0.0000000000          0.0000000000          0.0000000000
      ZZZ           0.2311614312          0.0000000000          0.2311614312
      XXY           0.0000000000          0.0000000000          0.0000000000
      XXZ          -0.9905617516          0.0000000000         -0.9905617516
      YYX          -0.0000000330          0.0000000000         -0.0000000330
      YYZ           0.1081837458          0.0000000000          0.1081837458
      ZZX          -0.0000000758          0.0000000000         -0.0000000758
      ZZY           0.0000000000          0.0000000000          0.0000000000
      XYZ           0.0000000000          0.0000000000          0.0000000000

   Third moments in 10**(-34) esu*cm**3

   Component  Electronic+nuclear     Point charges             Total
  --------------------------------------------------------------------------
      XXX          -0.0000002000          0.0000000000         -0.0000002000
      YYY           0.0000000000          0.0000000000          0.0000000000
      ZZZ           0.1645148166          0.0000000000          0.1645148166
      XXY           0.0000000000          0.0000000000          0.0000000000
      XXZ          -0.7049709119          0.0000000000         -0.7049709119
      YYX          -0.0000000235          0.0000000000         -0.0000000235
      YYZ           0.0769930737          0.0000000000          0.0769930737
      ZZX          -0.0000000540          0.0000000000         -0.0000000540
      ZZY           0.0000000000          0.0000000000          0.0000000000
      XYZ           0.0000000000          0.0000000000          0.0000000000

   Octupole moments in atomic units

   Component  Electronic+nuclear     Point charges             Total
  --------------------------------------------------------------------------
      XXX          -0.0000001178          0.0000000000         -0.0000001178
      YYY           0.0000000001          0.0000000000          0.0000000001
      ZZZ           1.5547284398          0.0000000000          1.5547284398
      XXY          -0.0000000001          0.0000000000         -0.0000000001
      XXZ          -2.1507960918          0.0000000000         -2.1507960918
      YYX           0.0000001124          0.0000000000          0.0000001124
      YYZ           0.5960676519          0.0000000000          0.5960676519
      ZZX           0.0000000054          0.0000000000          0.0000000054
      ZZY           0.0000000000          0.0000000000          0.0000000000
      XYZ           0.0000000001          0.0000000000          0.0000000001

   Octupole moments in 10**(-34) esu*cm**3

   Component  Electronic+nuclear     Point charges             Total
  --------------------------------------------------------------------------
      XXX          -0.0000000838          0.0000000000         -0.0000000838
      YYY           0.0000000001          0.0000000000          0.0000000001
      ZZZ           1.1064815739          0.0000000000          1.1064815739
      XXY           0.0000000000          0.0000000000          0.0000000000
      XXZ          -1.5306957690          0.0000000000         -1.5306957690
      YYX           0.0000000800          0.0000000000          0.0000000800
      YYZ           0.4242141951          0.0000000000          0.4242141951
      ZZX           0.0000000038          0.0000000000          0.0000000038
      ZZY           0.0000000000          0.0000000000          0.0000000000
      XYZ           0.0000000001          0.0000000000          0.0000000001

 1 a.u. = 0.711688 10**(-34) esu*cm**3 


          ----------------------------
          Mulliken population analysis
          ----------------------------

          ----- Total      overlap population -----

                               1              2              3              4              5              6              7

    1  1 O  s             2.1098349729  -0.1105660677   0.0000000000   0.0000000000   0.0000000000  -0.0005936304  -0.0005936302
    2  1 O  s            -0.1105660677   2.0408850580   0.0000000000   0.0000000000   0.0000000000  -0.0242093071  -0.0242093143
    3  1 O  px            0.0000000000   0.0000000000   0.6911198962   0.0000000000   0.0000000000   0.1520270539   0.1520270550
    4  1 O  py            0.0000000000   0.0000000000   0.0000000000   2.0000000000   0.0000000000   0.0000000000   0.0000000000
    5  1 O  pz            0.0000000000   0.0000000000   0.0000000000   0.0000000000   1.2101898777   0.0899335984   0.0899335993
    6  2 H  s            -0.0005936304  -0.0242093071   0.1520270539   0.0000000000   0.0899335984   0.6680113529  -0.0177756270
    7  3 H  s            -0.0005936302  -0.0242093143   0.1520270550   0.0000000000   0.0899335993  -0.0177756270   0.6680113828

          ----- Total      gross population in ao -----

    1  1 O  s              1.99808
    2  1 O  s              1.88190
    3  1 O  px             0.99517
    4  1 O  py             2.00000
    5  1 O  pz             1.39006
    6  2 H  s              0.86739
    7  3 H  s              0.86739

          ----- Total      overlap population condensed to atoms -----


                               1              2              3
    1  O                  7.8308976694   0.2171577147   0.2171577097
    2  H                  0.2171577147   0.6680113529  -0.0177756270
    3  H                  0.2171577097  -0.0177756270   0.6680113828

 Total      S,P,D,... shell population
 --------------------------------
    Atom          S        P
 --------------------------------------------------------------------------------------
     1 O      3.87998   4.38523
     2 H      0.86739   0.00000
     3 H      0.86739   0.00000

          ----- Total      gross population on atoms ----

              1  O    8.0     8.26521
              2  H    1.0     0.86739
              3  H    1.0     0.86739

          ----- Bond indices -----
  1- 1   0.00000  1- 2   0.96353  1- 3   0.96353
  2- 1   0.96353  2- 2   0.00000  2- 3   0.01889
  3- 1   0.96353  3- 2   0.01889  3- 3   0.00000

 Large bond indices
 ------------------
  1   O -  2   H    0.96353
  1   O -  3   H    0.96353

                                                                Free electrons             Valency
                              Number of         Sum of          + Bond indices         - Bond indices    
                Valency     Free electrons    Bond indices     =Mulliken charge     = Net spin population
     1  O       1.92706        6.33816          1.92706           8.26521                 0.00000
     2  H       0.98242       -0.11502          0.98242           0.86739                 0.00000
     3  H       0.98242       -0.11502          0.98242           0.86739                 0.00000

          ---------------------------------------------
          Electrostatic potential/diamagnetic shielding
          ---------------------------------------------

 1 a.u. = 9.07618 esu/cm ( or statvolts ) 
   Point      X         Y         Z     Total Potential(a.u.)   Diamagnetic shielding(a.u.)
    1 O    0.00000   0.00000   0.11787     -22.058521            23.001418
    2 H   -1.84119   0.00000  -0.93531      -1.100547             5.143698
    3 H    1.84119   0.00000  -0.93531      -1.100547             5.143698

          --------------
          Electric field
          --------------

 1 a.u. = 0.171524 10**(-8) dyn/esu 

   Atom       X         Y         Z                        Electric field (a.u.)
                                              X              Y              Z           Field
  ------------------------------------------------------------------------------------------------
    1 O    0.00000   0.00000   0.11787       0.000000       0.000000       0.316911       0.316911
    2 H   -1.84119   0.00000  -0.93531       0.026961       0.000000       0.016527       0.031623
    3 H    1.84119   0.00000  -0.93531      -0.026961       0.000000       0.016527       0.031623

          -----------------------
          Electric field gradient
          -----------------------

 1 a.u. = 0.324123 10**(16) esu/cm**3  ( or statvolts/cm**2 ) = 0.97174 10**(22) v/m**2 


 ------------------------------------------------------------
   Atom      X         Y         Z
 ------------------------------------------------------------
    1 O    0.00000   0.00000   0.11787
 ------------------------------------------------------------

 Electric field gradient in molecular frame (a.u.)
         XX             YY             ZZ             XY             XZ             YZ
 ------------------------------------------------------------------------------------------
       -2.431975       2.775380      -0.343406       0.000000       0.000000       0.000000

 Principal components (a.u.) and orientation 
 of principal axis w.r.t. absolute frame                      Asymmetry parameter eta
 --------------------------------------------------------------------------------------
        2.775380      -2.431975      -0.343406                       0.752534

        0.000000       1.000000       0.000000
        1.000000       0.000000       0.000000
        0.000000       0.000000       1.000000
  

 ------------------------------------------------------------
   Atom      X         Y         Z
 ------------------------------------------------------------
    2 H   -1.84119   0.00000  -0.93531
 ------------------------------------------------------------

 Electric field gradient in molecular frame (a.u.)
         XX             YY             ZZ             XY             XZ             YZ
 ------------------------------------------------------------------------------------------
       -0.094568       0.086627       0.007941       0.000000      -0.086067       0.000000

 Principal components (a.u.) and orientation 
 of principal axis w.r.t. absolute frame                      Asymmetry parameter eta
 --------------------------------------------------------------------------------------
       -0.143486       0.086627       0.056859                       0.207460

        0.869385       0.000000      -0.494135
        0.000000       1.000000       0.000000
        0.494135       0.000000       0.869385
  

 ------------------------------------------------------------
   Atom      X         Y         Z
 ------------------------------------------------------------
    3 H    1.84119   0.00000  -0.93531
 ------------------------------------------------------------

 Electric field gradient in molecular frame (a.u.)
         XX             YY             ZZ             XY             XZ             YZ
 ------------------------------------------------------------------------------------------
       -0.094568       0.086627       0.007941       0.000000       0.086067       0.000000

 Principal components (a.u.) and orientation 
 of principal axis w.r.t. absolute frame                      Asymmetry parameter eta
 --------------------------------------------------------------------------------------
       -0.143486       0.086627       0.056859                       0.207460

        0.869385       0.000000       0.494135
        0.000000       1.000000       0.000000
       -0.494135       0.000000       0.869385
  

          ---------------------
          Electron/spin density
          ---------------------

 1 a.u. = 4.80286 10**(-10) esu 

 Total electron density 
 ---------------------- 
   Point      X         Y         Z      Density (a.u.)
    1 O    0.00000   0.00000   0.11787     193.574492
    2 H   -1.84119   0.00000  -0.93531       0.334380
    3 H    1.84119   0.00000  -0.93531       0.334380

          -----------------------------------------
          Chemical Shielding Tensors (GIAO, in ppm)
          -----------------------------------------

                                NWChem CPHF Module
                                ------------------
 
 
  scftype          =     RHF 
  nclosed          =        5
  nopen            =        0
  variables        =       10
  # of vectors     =        3
  tolerance        = 0.10D-03
  level shift      = 0.00D+00
  max iterations   =       50
  max subspace     =       30


 #quartets = 1.200D+02 #integrals = 2.560D+02 #direct =  0.0% #cached =100.0%


 Integral file          = ./prop_h2o.aoints.0
 Record size in doubles =  65536        No. of integs per rec  =  43688
 Max. records in memory =      2        Max. records in file   =  11655
 No. of bits per label  =      8        No. of bits per value  =     64


File balance: exchanges=     0  moved=     0  time=   0.0



Iterative solution of linear equations
  No. of variables       10
  No. of equations        3
  Maximum subspace       30
        Iterations       50
       Convergence  1.0D-04
        Start time      1.6


   iter   nsub   residual    time
   ----  ------  --------  ---------
     1      3    4.05D-01       1.7
     2      6    5.63D-03       1.8
     3      9    2.58D-04       2.0
     4     12    1.53D-07       2.1

 Parallel integral file used       2 records with       0 large values

      Atom:    1  O 
        Diamagnetic
    393.9030      0.0000      0.0000
      0.0000    360.6129      0.0000
      0.0000      0.0000    380.3494

        Paramagnetic
   -285.1535      0.0000      0.0000
      0.0000   -155.6410      0.0000
      0.0000      0.0000   -162.8923

        Total Shielding Tensor
    108.7495      0.0000      0.0000
      0.0000    204.9719      0.0000
      0.0000      0.0000    217.4572

           isotropic =     177.0595
          anisotropy =      60.5965

          Principal Components and Axis System
                 1           2           3
              217.4572    204.9719    108.7495

      1         0.0000      0.0000      1.0000
      2         0.0000      1.0000      0.0000
      3         1.0000      0.0000      0.0000



      Atom:    2  H 
        Diamagnetic
     33.1529      0.0000      4.6644
      0.0000     20.9153      0.0000
      5.7481      0.0000     25.0647

        Paramagnetic
     -0.6399      0.0000     -3.5830
      0.0000      4.6716      0.0000
    -11.3156      0.0000      2.9964

        Total Shielding Tensor
     32.5130      0.0000      1.0814
      0.0000     25.5869      0.0000
     -5.5675      0.0000     28.0611

           isotropic =      28.7203
          anisotropy =       6.0621

          Principal Components and Axis System
                 1           2           3
               32.7618     27.8123     25.5869

      1         0.9745     -0.2242      0.0000
      2         0.0000      0.0000      1.0000
      3         0.2242      0.9745      0.0000



      Atom:    3  H 
        Diamagnetic
     33.1529      0.0000     -4.6644
      0.0000     20.9153      0.0000
     -5.7481      0.0000     25.0647

        Paramagnetic
     -0.6399      0.0000      3.5830
      0.0000      4.6716      0.0000
     11.3156      0.0000      2.9964

        Total Shielding Tensor
     32.5130      0.0000     -1.0814
      0.0000     25.5869      0.0000
      5.5675      0.0000     28.0611

           isotropic =      28.7203
          anisotropy =       6.0621

          Principal Components and Axis System
                 1           2           3
               32.7618     27.8123     25.5869

      1         0.9745      0.2242      0.0000
      2         0.0000      0.0000      1.0000
      3        -0.2242      0.9745      0.0000




 Task  times  cpu:        1.3s     wall:        1.7s
 
 
                                NWChem Input Module
                                -------------------
 
 
 Summary of allocated global arrays
-----------------------------------
  No active global arrays



                         GA Statistics for process    0
                         ------------------------------

       create   destroy   get      put      acc     scatter   gather  read&inc
calls:  858      858     1.31e+04 1607     7436      177        0        0     
number of processes/call 1.06e+00 1.39e+00 1.22e+00 1.16e+00 0.00e+00
bytes total:             9.02e+05 1.85e+05 4.12e+05 4.43e+04 0.00e+00 0.00e+00
bytes remote:            1.25e+05 2.44e+04 1.60e+05 -4.32e+03 0.00e+00 0.00e+00
Max memory consumed for GA by this process: 14728 bytes
 
MA_summarize_allocated_blocks: starting scan ...
MA_summarize_allocated_blocks: scan completed: 0 heap blocks, 0 stack blocks
MA usage statistics:

	allocation statistics:
					      heap	     stack
					      ----	     -----
	current number of blocks	         0	         0
	maximum number of blocks	        26	        48
	current total bytes		         0	         0
	maximum total bytes		   3217960	  22509808
	maximum total K-bytes		      3218	     22510
	maximum total M-bytes		         4	        23
 
 
                                     CITATION
                                     --------
                Please cite the following reference when publishing
                           results obtained with NWChem:
 
                 M. Valiev, E.J. Bylaska, N. Govind, K. Kowalski,
              T.P. Straatsma, H.J.J. van Dam, D. Wang, J. Nieplocha,
                        E. Apra, T.L. Windus, W.A. de Jong
                 "NWChem: a comprehensive and scalable open-source
                  solution for large scale molecular simulations"
                      Comput. Phys. Commun. 181, 1477 (2010)
                           doi:10.1016/j.cpc.2010.04.018
 
                              AUTHORS & CONTRIBUTORS
                              ----------------------
      E. J. Bylaska, W. A. de Jong, N. Govind, K. Kowalski, T. P. Straatsma,
     M. Valiev, H. J. J. van Dam, D. Wang, E. Apra, T. L. Windus, J. Hammond,
     J. Autschbach, P. Nichols, S. Hirata, M. T. Hackler, Y. Zhao, P.-D. Fan,
      R. J. Harrison, M. Dupuis, D. M. A. Smith, K. Glaesemann, J. Nieplocha,
      V. Tipparaju, M. Krishnan, A. Vazquez-Mayagoitia, L. Jensen, M. Swart,
      Q. Wu, T. Van Voorhis, A. A. Auer, M. Nooijen, L. D. Crosby, E. Brown,
             G. Cisneros, G. I. Fann, H. Fruchtl, J. Garza, K. Hirao,
        R. Kendall, J. A. Nichols, K. Tsemekhman, K. Wolinski, J. Anchell,
       D. Bernholdt, P. Borowski, T. Clark, D. Clerc, H. Dachsel, M. Deegan,
        K. Dyall, D. Elwood, E. Glendening, M. Gutowski, A. Hess, J. Jaffe,
        B. Johnson, J. Ju, R. Kobayashi, R. Kutteh, Z. Lin, R. Littlefield,
    X. Long, B. Meng, T. Nakajima, S. Niu, L. Pollack, M. Rosing, G. Sandrone,
       M. Stave, H. Taylor, G. Thomas, J. H. van Lenthe, A. Wong, Z. Zhang.

 Total times  cpu:        1.5s     wall:        2.2s
