 argument  1 = /data/edo/nwchem/nwchem-ses-pull//QA/tests/cosmo_h2cco2_opt/cosmo_h2cco2_opt.nw
  NWChem w/ OpenMP: maximum threads =    1



============================== echo of input deck ==============================
echo

start

geometry
    o      0.00000000    -1.11909860    -0.09529177
    o      0.00000000     1.11909860    -0.09529177
    c      0.00000000     0.00000000     0.66838924
    c      0.00000000     0.00000000     1.99717688
    h      0.00000000    -0.92756722     2.53578926
    h      0.00000000     0.92756722     2.53578926
end

charge -2

basis spherical
  * library 6-31g*
end

title "new potential"

cosmo
potcorr true
ificos 1 ; minbem 3
do_gasphase f
end

driver
maxiter 99
 clear
end
dft
xc hfexch
end
task dft optimize

title "old potential"
geometry
    o      0.00000000    -1.11909860    -0.09529177
    o      0.00000000     1.11909860    -0.09529177
    c      0.00000000     0.00000000     0.66838924
    c      0.00000000     0.00000000     1.99717688
    h      0.00000000    -0.92756722     2.53578926
    h      0.00000000     0.92756722     2.53578926
end

cosmo
potcorr false
 do_gasphase f
ificos 1 ; minbem 3
print cosmo_energies
end

driver
 clear
end


task scf optimize ignore
title "GEPOL cavity"
geometry
    o      0.00000000    -1.11909860    -0.09529177
    o      0.00000000     1.11909860    -0.09529177
    c      0.00000000     0.00000000     0.66838924
    c      0.00000000     0.00000000     1.99717688
    h      0.00000000    -0.92756722     2.53578926
    h      0.00000000     0.92756722     2.53578926
end

cosmo
 do_gasphase f
 cavity ses
 ndiv xfine
end
unset cosmo:ptcor
driver
 clear
end


task scf optimize ignore
================================================================================


                                         
                                         


             Northwest Computational Chemistry Package (NWChem) 7.2.3
             --------------------------------------------------------


                    Environmental Molecular Sciences Laboratory
                       Pacific Northwest National Laboratory
                                Richland, WA 99352

                              Copyright (c) 1994-2022
                       Pacific Northwest National Laboratory
                            Battelle Memorial Institute

             NWChem is an open-source computational chemistry package
                        distributed under the terms of the
                      Educational Community License (ECL) 2.0
             A copy of the license is included with this distribution
                              in the LICENSE.TXT file

                                  ACKNOWLEDGMENT
                                  --------------

            This software and its documentation were developed at the
            EMSL at Pacific Northwest National Laboratory, a multiprogram
            national laboratory, operated for the U.S. Department of Energy
            by Battelle under Contract Number DE-AC05-76RL01830. Support
            for this work was provided by the Department of Energy Office
            of Biological and Environmental Research, Office of Basic
            Energy Sciences, and the Office of Advanced Scientific Computing.


           Job information
           ---------------

    hostname        = mica
    program         = /data/edo/nwchem/nwchem-ses-pull//bin/LINUX64/nwchem
    date            = Tue Aug 26 17:46:21 2025

    compiled        = Tue_Aug_26_17:36:29_2025
    source          = /data/edo/nwchem/nwchem-ses-pull/
    nwchem branch   = 7.2.3
    nwchem revision = v7.2.0-beta1-1543-gc535b39b12
    ga revision     = 5.9.2
    use scalapack   = T
    input           = /data/edo/nwchem/nwchem-ses-pull//QA/tests/cosmo_h2cco2_opt/cosmo_h2cco2_opt.nw
    prefix          = cosmo_h2cco2_opt.
    data base       = ./cosmo_h2cco2_opt.db
    status          = startup
    nproc           =        4
    time left       =     -1s



           Memory information
           ------------------

    heap     =     26214396 doubles =      200.0 Mbytes
    stack    =     26214401 doubles =      200.0 Mbytes
    global   =     52428800 doubles =      400.0 Mbytes (distinct from heap & stack)
    total    =    104857597 doubles =      800.0 Mbytes
    verify   = yes
    hardfail = no 


           Directory information
           ---------------------

  0 permanent = .
  0 scratch   = .




                                NWChem Input Module
                                -------------------



 Scaling coordinates for geometry "geometry" by  1.889725989
 (inverse scale =  0.529177249)

 C2V symmetry detected

          ------
          auto-z
          ------
  no constraints, skipping  0.
  no constraints, skipping  0.


                             Geometry "geometry" -> ""
                             -------------------------

 Output coordinates in angstroms (scale by  1.889725989 to convert to a.u.)

  No.       Tag          Charge          X              Y              Z
 ---- ---------------- ---------- -------------- -------------- --------------
    1 o                    8.0000     0.00000000    -1.11909860    -0.74663533
    2 o                    8.0000     0.00000000     1.11909860    -0.74663533
    3 c                    6.0000     0.00000000     0.00000000     0.01704568
    4 c                    6.0000     0.00000000     0.00000000     1.34583332
    5 h                    1.0000     0.00000000    -0.92756722     1.88444570
    6 h                    1.0000     0.00000000     0.92756722     1.88444570

      Atomic Mass 
      ----------- 

      o                 15.994910
      c                 12.000000
      h                  1.007825


 Effective nuclear repulsion energy (a.u.)     103.3732581554

            Nuclear Dipole moment (a.u.) 
            ----------------------------
        X                 Y               Z
 ---------------- ---------------- ----------------
     0.0000000000     0.0000000000    -0.0000000000

      Symmetry information
      --------------------

 Group name             C2v       
 Group number             16
 Group order               4
 No. of unique centers     4

      Symmetry unique atoms

     1    3    4    5



                                Z-matrix (autoz)
                                -------- 

 Units are Angstrom for bonds and degrees for angles

      Type          Name      I     J     K     L     M      Value
      ----------- --------  ----- ----- ----- ----- ----- ----------
    1 Stretch                  1     3                       1.35484
    2 Stretch                  2     3                       1.35484
    3 Stretch                  3     4                       1.32879
    4 Stretch                  4     5                       1.07261
    5 Stretch                  4     6                       1.07261
    6 Bend                     1     3     2               111.38018
    7 Bend                     1     3     4               124.30991
    8 Bend                     2     3     4               124.30991
    9 Bend                     3     4     5               120.14254
   10 Bend                     3     4     6               120.14254
   11 Bend                     5     4     6               119.71492
   12 Torsion                  1     3     4     5           0.00000
   13 Torsion                  1     3     4     6         180.00000
   14 Torsion                  2     3     4     5         180.00000
   15 Torsion                  2     3     4     6           0.00000


            XYZ format geometry
            -------------------
     6
 geometry
 o                     0.00000000    -1.11909860    -0.74663533
 o                     0.00000000     1.11909860    -0.74663533
 c                     0.00000000     0.00000000     0.01704568
 c                     0.00000000     0.00000000     1.34583332
 h                     0.00000000    -0.92756722     1.88444570
 h                     0.00000000     0.92756722     1.88444570

 ==============================================================================
                                internuclear distances
 ------------------------------------------------------------------------------
       center one      |      center two      | atomic units |  angstroms
 ------------------------------------------------------------------------------
    3 c                |   1 o                |     2.56028  |     1.35484
    3 c                |   2 o                |     2.56028  |     1.35484
    4 c                |   3 c                |     2.51104  |     1.32879
    5 h                |   4 c                |     2.02693  |     1.07261
    6 h                |   4 c                |     2.02693  |     1.07261
 ------------------------------------------------------------------------------
                         number of included internuclear distances:          5
 ==============================================================================



 ==============================================================================
                                 internuclear angles
 ------------------------------------------------------------------------------
        center 1       |       center 2       |       center 3       |  degrees
 ------------------------------------------------------------------------------
    1 o                |   3 c                |   2 o                |   111.38
    1 o                |   3 c                |   4 c                |   124.31
    2 o                |   3 c                |   4 c                |   124.31
    3 c                |   4 c                |   5 h                |   120.14
    3 c                |   4 c                |   6 h                |   120.14
    5 h                |   4 c                |   6 h                |   119.71
 ------------------------------------------------------------------------------
                            number of included internuclear angles:          6
 ==============================================================================





 Summary of "ao basis" -> "" (spherical)
 ------------------------------------------------------------------------------
       Tag                 Description            Shells   Functions and Types
 ---------------- ------------------------------  ------  ---------------------
 *                           6-31g*                   on all atoms 


                                   new potential
                                   -------------

  Deleted DRIVER restart files 

  xc_inp: hfexch multiplicative factor not found.


                           NWChem Geometry Optimization
                           ----------------------------




                                   new potential


  no constraints, skipping  0.
 maximum gradient threshold         (gmax) =   0.000450
 rms gradient threshold             (grms) =   0.000300
 maximum cartesian step threshold   (xmax) =   0.001800
 rms cartesian step threshold       (xrms) =   0.001200
 fixed trust radius                (trust) =   0.300000
 maximum step size to saddle      (sadstp) =   0.100000
 energy precision                  (eprec) =   5.0D-06
 maximum number of steps          (nptopt) =   99
 initial hessian option           (inhess) =    0
 line search option               (linopt) =    1
 hessian update option            (modupd) =    1
 saddle point option              (modsad) =    0
 initial eigen-mode to follow     (moddir) =    0
 initial variable to follow       (vardir) =    0
 follow first negative mode     (firstneg) =    T
 apply conjugacy                    (opcg) =    F
 source of zmatrix                         =   autoz   


          -------------------
          Energy Minimization
          -------------------


 Names of Z-matrix variables 
    1              2              3              4              5         
    6              7              8              9             10         
   11             12             13             14             15         

 Variables with the same non-blank name are constrained to be equal


 Using diagonal initial Hessian 
 Scaling for Hessian diagonals: bonds = 1.00  angles = 0.25  torsions = 0.10

          --------
          Step   0
          --------


                         Geometry "geometry" -> "geometry"
                         ---------------------------------

 Output coordinates in angstroms (scale by  1.889725989 to convert to a.u.)

  No.       Tag          Charge          X              Y              Z
 ---- ---------------- ---------- -------------- -------------- --------------
    1 o                    8.0000     0.00000000    -1.11909860    -0.74663533
    2 o                    8.0000     0.00000000     1.11909860    -0.74663533
    3 c                    6.0000     0.00000000     0.00000000     0.01704568
    4 c                    6.0000     0.00000000     0.00000000     1.34583332
    5 h                    1.0000     0.00000000    -0.92756722     1.88444570
    6 h                    1.0000     0.00000000     0.92756722     1.88444570

      Atomic Mass 
      ----------- 

      o                 15.994910
      c                 12.000000
      h                  1.007825


 Effective nuclear repulsion energy (a.u.)     103.3732581554

            Nuclear Dipole moment (a.u.) 
            ----------------------------
        X                 Y               Z
 ---------------- ---------------- ----------------
     0.0000000000     0.0000000000    -0.0000000000

      Symmetry information
      --------------------

 Group name             C2v       
 Group number             16
 Group order               4
 No. of unique centers     4

      Symmetry unique atoms

     1    3    4    5


                                 NWChem DFT Module
                                 -----------------


                                   new potential


                      Basis "ao basis" -> "ao basis" (spherical)
                      -----
  o (Oxygen)
  ----------
            Exponent  Coefficients 
       -------------- ---------------------------------------------------------
  1 S  5.48467170E+03  0.001831
  1 S  8.25234950E+02  0.013950
  1 S  1.88046960E+02  0.068445
  1 S  5.29645000E+01  0.232714
  1 S  1.68975700E+01  0.470193
  1 S  5.79963530E+00  0.358521

  2 S  1.55396160E+01 -0.110778
  2 S  3.59993360E+00 -0.148026
  2 S  1.01376180E+00  1.130767

  3 P  1.55396160E+01  0.070874
  3 P  3.59993360E+00  0.339753
  3 P  1.01376180E+00  0.727159

  4 S  2.70005800E-01  1.000000

  5 P  2.70005800E-01  1.000000

  6 D  8.00000000E-01  1.000000

  c (Carbon)
  ----------
            Exponent  Coefficients 
       -------------- ---------------------------------------------------------
  1 S  3.04752490E+03  0.001835
  1 S  4.57369510E+02  0.014037
  1 S  1.03948690E+02  0.068843
  1 S  2.92101550E+01  0.232184
  1 S  9.28666300E+00  0.467941
  1 S  3.16392700E+00  0.362312

  2 S  7.86827240E+00 -0.119332
  2 S  1.88128850E+00 -0.160854
  2 S  5.44249300E-01  1.143456

  3 P  7.86827240E+00  0.068999
  3 P  1.88128850E+00  0.316424
  3 P  5.44249300E-01  0.744308

  4 S  1.68714400E-01  1.000000

  5 P  1.68714400E-01  1.000000

  6 D  8.00000000E-01  1.000000

  h (Hydrogen)
  ------------
            Exponent  Coefficients 
       -------------- ---------------------------------------------------------
  1 S  1.87311370E+01  0.033495
  1 S  2.82539370E+00  0.234727
  1 S  6.40121700E-01  0.813757

  2 S  1.61277800E-01  1.000000



 Summary of "ao basis" -> "ao basis" (spherical)
 ------------------------------------------------------------------------------
       Tag                 Description            Shells   Functions and Types
 ---------------- ------------------------------  ------  ---------------------
 o                           6-31g*                  6       14   3s2p1d
 c                           6-31g*                  6       14   3s2p1d
 h                           6-31g*                  2        2   2s




 Summary of "ao basis" -> "ao basis" (spherical)
 ------------------------------------------------------------------------------
       Tag                 Description            Shells   Functions and Types
 ---------------- ------------------------------  ------  ---------------------
 o                           6-31g*                  6       14   3s2p1d
 c                           6-31g*                  6       14   3s2p1d
 h                           6-31g*                  2        2   2s


      Symmetry analysis of basis
      --------------------------

        a1         26
        a2          6
        b1         10
        b2         18

 in cosmo_initialize ...

 solvent parameters
 solvname_short: unkn    
 solvname_long:  unknown                            
 dielec:       78.4000

          ---------------
          -cosmo- solvent
          ---------------
 Cosmo: York-Karplus, doi: 10.1021/jp992097l
 dielectric constant -eps-     =  78.40
 screen = (eps-1)/(eps    )    =   0.98724
 surface charge correction     = lagrangian

   van der Waals surface   
 --------------------------

 ---------- ATOMIC COORDINATES (A.U.) ------------ VDWR(ANG.) --
     1    0.00000000   -2.11478971   -1.41093619     1.720
     2    0.00000000    2.11478971   -1.41093619     1.720
     3    0.00000000    0.00000000    0.03221166     2.000
     4    0.00000000    0.00000000    2.54325619     2.000
     5    0.00000000   -1.75284788    3.56108601     1.300
     6    0.00000000    1.75284788    3.56108601     1.300
 number of segments per atom =        320
 number of   points per atom =        320
 atom (   nspa,  nppa )
 ----------------------
    1 (    197,     0 )       0
    2 (    197,     0 )       0
    3 (     96,     0 )       0
    4 (    184,     0 )       0
    5 (    120,     0 )       0
    6 (    120,     0 )       0
 number of -cosmo- surface points =      914
 molecular surface =     88.928 angstrom**2
 molecular volume  =     70.318 angstrom**3
 G(cav/disp)       =      1.305 kcal/mol
 -lineq- algorithm             =   0
 -bem- low  level              =   3
 -bem- from -icosahedral-
 gaussian surface charge width =   4.50000
 degree of switching           =   1.00000
 switching function tolerance  =   0.00010
 atomic radii = 
 --------------
    1  8.000  1.720
    2  8.000  1.720
    3  6.000  2.000
    4  6.000  2.000
    5  1.000  1.300
    6  1.000  1.300
 ...... end of -cosmo- initialization ......


  Caching 1-el integrals 

            General Information
            -------------------
          SCF calculation type: DFT
          Wavefunction type:  closed shell.
          No. of atoms     :     6
          No. of electrons :    32
           Alpha electrons :    16
            Beta electrons :    16
          Charge           :    -2
          Spin multiplicity:     1
          Use of symmetry is: on ; symmetry adaption is: on 
          Maximum number of iterations:  50
          AO basis - number of functions:    60
                     number of shells:    28
          Convergence on energy requested:  1.00D-06
          Convergence on density requested:  1.00D-05
          Convergence on gradient requested:  5.00D-04

              XC Information
              --------------
                     Hartree-Fock (Exact) Exchange  1.000          

          Convergence Information
          -----------------------
          Convergence aids based upon iterative change in 
          total energy or number of iterations. 
          Levelshifting, if invoked, occurs when the 
          HOMO/LUMO gap drops below (HL_TOL):  1.00D-02
          DIIS, if invoked, will attempt to extrapolate 
          using up to (NFOCK): 10 stored Fock matrices.

                    Damping( 0%)  Levelshifting(0.5)       DIIS
                  --------------- ------------------- ---------------
          dE  on:    start            ASAP                start   
          dE off:    2 iters         50 iters            50 iters 


      Screening Tolerance Information
      -------------------------------
          Density screening/tol_rho:  1.00D-10
          AO Gaussian exp screening on grid/accAOfunc:  14
          CD Gaussian exp screening on grid/accCDfunc:  20
          XC Gaussian exp screening on grid/accXCfunc:  20
          Schwarz screening/accCoul:  1.00D-08


      Superposition of Atomic Density Guess
      -------------------------------------

 Sum of atomic energies:        -225.82567784

 Renormalizing density from      30.00 to     32

      Non-variational initial energy
      ------------------------------

 Total energy =    -236.069883
 1-e energy   =    -547.709226
 2-e energy   =     208.266085
 HOMO         =       0.422208
 LUMO         =       0.673818


      Symmetry analysis of molecular orbitals - initial
      -------------------------------------------------

  Numbering of irreducible representations: 

     1 a1          2 a2          3 b1          4 b2      

  Orbital symmetries:

     1 a1          2 b2          3 a1          4 a1          5 a1      
     6 b2          7 a1          8 a1          9 b2         10 a1      
    11 b1         12 b2         13 a1         14 a2         15 b2      
    16 b1         17 a1         18 b2         19 b1         20 a1      
    21 a1         22 b2         23 b1         24 a1         25 a1      
    26 b2      

   Time after variat. SCF:      0.4
   Time prior to 1st pass:      0.4
 Local filesystem for scratch_dir

 Integral file          = ./cosmo_h2cco2_opt.aoints.0
 Record size in doubles =  65536        No. of integs per rec  =  43688
 Max. records in memory =      7        Max. records in file   = 652797
 No. of bits per label  =      8        No. of bits per value  =     64


 #quartets = 4.508D+04 #integrals = 4.812D+05 #direct =  0.0% #cached =100.0%


File balance: exchanges=     0  moved=     0  time=   0.0


           Memory utilization after 1st SCF pass: 
           Heap Space remaining (MW):       25.75            25745588
          Stack Space remaining (MW):       26.21            26213924

   convergence    iter        energy       DeltaE   RMS-Dens  Diis-err    time
 ---------------- ----- ----------------- --------- --------- ---------  ------
     COSMO solvation phase
 d= 0,ls=0.0,diis     1   -226.4551368346 -3.30D+02  2.93D-02  2.30D+00     0.7
 d= 0,ls=0.0,diis     2   -226.6950402127 -2.40D-01  5.62D-03  4.06D-01     1.0
 d= 0,ls=0.0,diis     3   -226.7411599442 -4.61D-02  2.00D-03  5.73D-03     1.3
 d= 0,ls=0.0,diis     4   -226.7421582963 -9.98D-04  6.62D-04  1.10D-03     1.6
 d= 0,ls=0.0,diis     5   -226.7423181251 -1.60D-04  1.52D-04  4.38D-05     2.0
  Resetting Diis
 d= 0,ls=0.0,diis     6   -226.7423283404 -1.02D-05  5.26D-05  4.95D-06     2.3
 d= 0,ls=0.0,diis     7   -226.7423299847 -1.64D-06  1.43D-05  5.48D-07     2.6
 d= 0,ls=0.0,diis     8   -226.7423301580 -1.73D-07  7.77D-06  1.05D-07     2.9


         Total DFT energy =     -226.742330158020
      One electron energy =     -545.842929434242
           Coulomb energy =      230.881316519271
    Exchange-Corr. energy =      -28.143477483501
 Nuclear repulsion energy =      103.373258155412

             COSMO energy =       12.989502085040

 Numeric. integr. density =        0.000000000000

     Total iterative time =      2.5s


                                   COSMO solvation results
                                   -----------------------

     skipped: no gas phase energy
                 sol phase energy =      -226.742330158020

                  Occupations of the irreducible representations
                  ----------------------------------------------

                     irrep           alpha         beta
                     --------     --------     --------
                     a1                8.0          8.0
                     a2                1.0          1.0
                     b1                2.0          2.0
                     b2                5.0          5.0


                       DFT Final Molecular Orbital Analysis
                       ------------------------------------

 Vector    1  Occ=2.000000D+00  E=-2.039568D+01  Symmetry=b2
              MO Center= -2.2D-32, -1.7D-15, -7.5D-01, r^2= 1.3D+00
   Bfn.  Coefficient  Atom+Function         Bfn.  Coefficient  Atom+Function  
  ----- ------------  ---------------      ----- ------------  ---------------
     1      0.704210  1 O  s                 15     -0.704210  2 O  s          

 Vector    2  Occ=2.000000D+00  E=-2.039562D+01  Symmetry=a1
              MO Center=  4.9D-37,  1.8D-15, -7.5D-01, r^2= 1.3D+00
   Bfn.  Coefficient  Atom+Function         Bfn.  Coefficient  Atom+Function  
  ----- ------------  ---------------      ----- ------------  ---------------
     1      0.704201  1 O  s                 15      0.704201  2 O  s          

 Vector    3  Occ=2.000000D+00  E=-1.124005D+01  Symmetry=a1
              MO Center=  4.6D-18, -3.5D-17,  1.7D-02, r^2= 2.7D-02
   Bfn.  Coefficient  Atom+Function         Bfn.  Coefficient  Atom+Function  
  ----- ------------  ---------------      ----- ------------  ---------------
    29      0.996204  3 C  s          

 Vector    4  Occ=2.000000D+00  E=-1.110185D+01  Symmetry=a1
              MO Center=  1.0D-17,  1.6D-17,  1.3D+00, r^2= 2.7D-02
   Bfn.  Coefficient  Atom+Function         Bfn.  Coefficient  Atom+Function  
  ----- ------------  ---------------      ----- ------------  ---------------
    43      0.996008  4 C  s          

 Vector    5  Occ=2.000000D+00  E=-1.232359D+00  Symmetry=a1
              MO Center= -1.1D-32, -1.1D-16, -5.2D-01, r^2= 1.3D+00
   Bfn.  Coefficient  Atom+Function         Bfn.  Coefficient  Atom+Function  
  ----- ------------  ---------------      ----- ------------  ---------------
     6      0.308851  1 O  s                 20      0.308851  2 O  s          
     2      0.283997  1 O  s                 16      0.283997  2 O  s          
    30      0.227105  3 C  s                  1     -0.133486  1 O  s          
    15     -0.133486  2 O  s                 29     -0.119977  3 C  s          
    33     -0.078036  3 C  pz                34      0.078118  3 C  s          

 Vector    6  Occ=2.000000D+00  E=-1.121219D+00  Symmetry=b2
              MO Center= -5.5D-20, -5.1D-17, -6.1D-01, r^2= 1.6D+00
   Bfn.  Coefficient  Atom+Function         Bfn.  Coefficient  Atom+Function  
  ----- ------------  ---------------      ----- ------------  ---------------
     6      0.382667  1 O  s                 20     -0.382667  2 O  s          
     2      0.330490  1 O  s                 16     -0.330490  2 O  s          
    32     -0.190290  3 C  py                 1     -0.154980  1 O  s          
    15      0.154980  2 O  s                  5      0.037534  1 O  pz         
    19     -0.037534  2 O  pz                 4      0.032768  1 O  py         

 Vector    7  Occ=2.000000D+00  E=-9.034155D-01  Symmetry=a1
              MO Center= -6.4D-33, -9.1D-17,  8.7D-01, r^2= 1.4D+00
   Bfn.  Coefficient  Atom+Function         Bfn.  Coefficient  Atom+Function  
  ----- ------------  ---------------      ----- ------------  ---------------
    44      0.323914  4 C  s                 48      0.309670  4 C  s          
    33      0.231763  3 C  pz                30      0.179936  3 C  s          
    43     -0.180689  4 C  s                  6     -0.141776  1 O  s          
    20     -0.141776  2 O  s                  2     -0.109851  1 O  s          
    16     -0.109851  2 O  s                 57      0.108376  5 H  s          

 Vector    8  Occ=2.000000D+00  E=-6.276805D-01  Symmetry=a1
              MO Center= -3.7D-16, -1.2D-15,  6.6D-01, r^2= 2.8D+00
   Bfn.  Coefficient  Atom+Function         Bfn.  Coefficient  Atom+Function  
  ----- ------------  ---------------      ----- ------------  ---------------
    47     -0.281075  4 C  pz                30      0.268408  3 C  s          
    48     -0.178075  4 C  s                  6     -0.176629  1 O  s          
    20     -0.176629  2 O  s                 34      0.174635  3 C  s          
    57     -0.147093  5 H  s                 59     -0.147093  6 H  s          
     4      0.145006  1 O  py                18     -0.145006  2 O  py         

 Vector    9  Occ=2.000000D+00  E=-5.378821D-01  Symmetry=b2
              MO Center=  2.0D-17, -4.5D-14,  8.0D-01, r^2= 2.6D+00
   Bfn.  Coefficient  Atom+Function         Bfn.  Coefficient  Atom+Function  
  ----- ------------  ---------------      ----- ------------  ---------------
    46      0.334233  4 C  py                32      0.215107  3 C  py         
    50      0.188320  4 C  py                57     -0.183693  5 H  s          
    59      0.183693  6 H  s                  5     -0.166777  1 O  pz         
    19      0.166777  2 O  pz                58     -0.150966  5 H  s          
    60      0.150966  6 H  s                  9     -0.128634  1 O  pz         

 Vector   10  Occ=2.000000D+00  E=-5.233133D-01  Symmetry=a1
              MO Center=  1.1D-15,  5.4D-14, -4.7D-02, r^2= 2.5D+00
   Bfn.  Coefficient  Atom+Function         Bfn.  Coefficient  Atom+Function  
  ----- ------------  ---------------      ----- ------------  ---------------
    33      0.341088  3 C  pz                 4     -0.290682  1 O  py         
    18      0.290682  2 O  py                47     -0.247717  4 C  pz         
     8     -0.224380  1 O  py                22      0.224380  2 O  py         
    51     -0.164196  4 C  pz                 6      0.143598  1 O  s          
    20      0.143598  2 O  s                 57     -0.091889  5 H  s          

 Vector   11  Occ=2.000000D+00  E=-4.649367D-01  Symmetry=b1
              MO Center= -2.0D-15,  2.0D-15, -3.1D-01, r^2= 1.8D+00
   Bfn.  Coefficient  Atom+Function         Bfn.  Coefficient  Atom+Function  
  ----- ------------  ---------------      ----- ------------  ---------------
     3      0.310604  1 O  px                17      0.310604  2 O  px         
    31      0.285472  3 C  px                 7      0.241526  1 O  px         
    21      0.241526  2 O  px                35      0.186162  3 C  px         
    45      0.156176  4 C  px                49      0.116625  4 C  px         

 Vector   12  Occ=2.000000D+00  E=-4.362295D-01  Symmetry=b2
              MO Center= -1.4D-16, -7.8D-16,  1.3D-01, r^2= 3.0D+00
   Bfn.  Coefficient  Atom+Function         Bfn.  Coefficient  Atom+Function  
  ----- ------------  ---------------      ----- ------------  ---------------
    32      0.287798  3 C  py                46     -0.232344  4 C  py         
     5     -0.224014  1 O  pz                19      0.224014  2 O  pz         
     4     -0.208617  1 O  py                18     -0.208617  2 O  py         
    58      0.201087  5 H  s                 60     -0.201087  6 H  s          
     9     -0.186949  1 O  pz                23      0.186949  2 O  pz         

 Vector   13  Occ=2.000000D+00  E=-3.480559D-01  Symmetry=a1
              MO Center=  1.9D-16,  3.9D-15, -5.6D-01, r^2= 2.1D+00
   Bfn.  Coefficient  Atom+Function         Bfn.  Coefficient  Atom+Function  
  ----- ------------  ---------------      ----- ------------  ---------------
     5      0.386191  1 O  pz                19      0.386191  2 O  pz         
     9      0.343768  1 O  pz                23      0.343768  2 O  pz         
    48     -0.258610  4 C  s                 47      0.185140  4 C  pz         
    33     -0.174279  3 C  pz                37      0.111084  3 C  pz         
    51      0.106788  4 C  pz                 4     -0.096789  1 O  py         

 Vector   14  Occ=2.000000D+00  E=-3.212514D-01  Symmetry=a2
              MO Center=  4.3D-16,  5.0D-15, -7.3D-01, r^2= 1.9D+00
   Bfn.  Coefficient  Atom+Function         Bfn.  Coefficient  Atom+Function  
  ----- ------------  ---------------      ----- ------------  ---------------
     3      0.427674  1 O  px                17     -0.427674  2 O  px         
     7      0.395410  1 O  px                21     -0.395410  2 O  px         
    38     -0.035551  3 C  d -2       

 Vector   15  Occ=2.000000D+00  E=-3.007855D-01  Symmetry=b2
              MO Center= -1.0D-16, -9.1D-15, -6.7D-01, r^2= 2.0D+00
   Bfn.  Coefficient  Atom+Function         Bfn.  Coefficient  Atom+Function  
  ----- ------------  ---------------      ----- ------------  ---------------
     4      0.349977  1 O  py                18      0.349977  2 O  py         
     8      0.323961  1 O  py                22      0.323961  2 O  py         
     5     -0.282380  1 O  pz                19      0.282380  2 O  pz         
     9     -0.229051  1 O  pz                23      0.229051  2 O  pz         
    36      0.122911  3 C  py                 6      0.069040  1 O  s          

 Vector   16  Occ=2.000000D+00  E=-2.333132D-01  Symmetry=b1
              MO Center= -3.9D-17, -7.5D-15,  7.6D-01, r^2= 2.2D+00
   Bfn.  Coefficient  Atom+Function         Bfn.  Coefficient  Atom+Function  
  ----- ------------  ---------------      ----- ------------  ---------------
    49      0.505468  4 C  px                45      0.425210  4 C  px         
     3     -0.224208  1 O  px                17     -0.224208  2 O  px         
     7     -0.220869  1 O  px                21     -0.220869  2 O  px         
    31      0.138391  3 C  px                35      0.043337  3 C  px         
    41     -0.041003  3 C  d  1       

 Vector   17  Occ=0.000000D+00  E= 3.321727D-01  Symmetry=a1
              MO Center=  9.2D-18, -3.2D-16,  1.9D+00, r^2= 3.3D+00
   Bfn.  Coefficient  Atom+Function         Bfn.  Coefficient  Atom+Function  
  ----- ------------  ---------------      ----- ------------  ---------------
    48      1.930442  4 C  s                 58     -1.569288  5 H  s          
    60     -1.569288  6 H  s                 51      0.966297  4 C  pz         
    37      0.238083  3 C  pz                47      0.194962  4 C  pz         
     6      0.130505  1 O  s                 20      0.130505  2 O  s          
    43     -0.121322  4 C  s                 44      0.095206  4 C  s          

 Vector   18  Occ=0.000000D+00  E= 3.425101D-01  Symmetry=b1
              MO Center=  3.1D-16,  1.3D-15,  2.7D-01, r^2= 2.2D+00
   Bfn.  Coefficient  Atom+Function         Bfn.  Coefficient  Atom+Function  
  ----- ------------  ---------------      ----- ------------  ---------------
    35      0.900931  3 C  px                49     -0.680029  4 C  px         
    31      0.489878  3 C  px                 7     -0.358248  1 O  px         
    21     -0.358248  2 O  px                 3     -0.210272  1 O  px         
    17     -0.210272  2 O  px                45     -0.188082  4 C  px         
    55      0.038096  4 C  d  1       

 Vector   19  Occ=0.000000D+00  E= 3.658037D-01  Symmetry=b2
              MO Center=  9.3D-18, -2.2D-15,  1.9D+00, r^2= 3.4D+00
   Bfn.  Coefficient  Atom+Function         Bfn.  Coefficient  Atom+Function  
  ----- ------------  ---------------      ----- ------------  ---------------
    58      1.901186  5 H  s                 60     -1.901186  6 H  s          
    50      1.886177  4 C  py                36     -0.448117  3 C  py         
    46      0.316373  4 C  py                 6     -0.136713  1 O  s          
    20      0.136713  2 O  s                 32      0.114495  3 C  py         
     5      0.082192  1 O  pz                19     -0.082192  2 O  pz         

 Vector   20  Occ=0.000000D+00  E= 5.364176D-01  Symmetry=a1
              MO Center=  3.4D-16, -4.8D-15,  9.9D-01, r^2= 3.3D+00
   Bfn.  Coefficient  Atom+Function         Bfn.  Coefficient  Atom+Function  
  ----- ------------  ---------------      ----- ------------  ---------------
    34      4.617387  3 C  s                 51      2.461608  4 C  pz         
    48     -2.371315  4 C  s                 37      0.945307  3 C  pz         
     6     -0.747416  1 O  s                 20     -0.747416  2 O  s          
     8     -0.461653  1 O  py                22      0.461653  2 O  py         
     9     -0.374727  1 O  pz                23     -0.374727  2 O  pz         

 Vector   21  Occ=0.000000D+00  E= 5.534956D-01  Symmetry=a1
              MO Center=  3.3D-16,  4.0D-14,  2.0D-01, r^2= 3.9D+00
   Bfn.  Coefficient  Atom+Function         Bfn.  Coefficient  Atom+Function  
  ----- ------------  ---------------      ----- ------------  ---------------
    37      3.260583  3 C  pz                48     -3.109169  4 C  s          
    51      2.120339  4 C  pz                 6      1.302548  1 O  s          
    20      1.302548  2 O  s                  8      0.833806  1 O  py         
    22     -0.833806  2 O  py                34      0.479020  3 C  s          
    33      0.296143  3 C  pz                30      0.255845  3 C  s          

 Vector   22  Occ=0.000000D+00  E= 5.815799D-01  Symmetry=b2
              MO Center=  2.2D-17, -3.6D-14,  3.0D-01, r^2= 3.4D+00
   Bfn.  Coefficient  Atom+Function         Bfn.  Coefficient  Atom+Function  
  ----- ------------  ---------------      ----- ------------  ---------------
    36      2.824012  3 C  py                50     -1.522248  4 C  py         
     6      1.480700  1 O  s                 20     -1.480700  2 O  s          
    58     -0.973098  5 H  s                 60      0.973098  6 H  s          
     9      0.688852  1 O  pz                23     -0.688852  2 O  pz         
     8      0.465835  1 O  py                22      0.465835  2 O  py         

 Vector   23  Occ=0.000000D+00  E= 8.394653D-01  Symmetry=b1
              MO Center= -1.0D-17,  1.3D-18,  7.7D-01, r^2= 2.2D+00
   Bfn.  Coefficient  Atom+Function         Bfn.  Coefficient  Atom+Function  
  ----- ------------  ---------------      ----- ------------  ---------------
    45      0.829710  4 C  px                35     -0.718727  3 C  px         
    31      0.629602  3 C  px                49     -0.631105  4 C  px         
     3      0.104040  1 O  px                17      0.104040  2 O  px         
     7      0.088896  1 O  px                21      0.088896  2 O  px         
    41     -0.053387  3 C  d  1              55      0.047570  4 C  d  1       

 Vector   24  Occ=0.000000D+00  E= 8.870898D-01  Symmetry=a1
              MO Center=  1.3D-15,  2.5D-14, -2.4D-01, r^2= 2.3D+00
   Bfn.  Coefficient  Atom+Function         Bfn.  Coefficient  Atom+Function  
  ----- ------------  ---------------      ----- ------------  ---------------
    37      1.884430  3 C  pz                48     -1.591999  4 C  s          
    30      0.897975  3 C  s                  6      0.693663  1 O  s          
    20      0.693663  2 O  s                 34     -0.673622  3 C  s          
    33     -0.585679  3 C  pz                47      0.296040  4 C  pz         
     8      0.235442  1 O  py                22     -0.235442  2 O  py         

 Vector   25  Occ=0.000000D+00  E= 9.297184D-01  Symmetry=a1
              MO Center=  8.7D-17,  1.0D-13,  7.3D-01, r^2= 2.4D+00
   Bfn.  Coefficient  Atom+Function         Bfn.  Coefficient  Atom+Function  
  ----- ------------  ---------------      ----- ------------  ---------------
    37      2.019505  3 C  pz                34      1.088852  3 C  s          
    44     -0.881315  4 C  s                 30     -0.706675  3 C  s          
    51      0.665655  4 C  pz                 6      0.432048  1 O  s          
    20      0.432048  2 O  s                 57     -0.389280  5 H  s          
    59     -0.389280  6 H  s                 33     -0.376005  3 C  pz         

 Vector   26  Occ=0.000000D+00  E= 9.312822D-01  Symmetry=b2
              MO Center= -4.3D-17, -1.2D-13,  1.1D-01, r^2= 1.9D+00
   Bfn.  Coefficient  Atom+Function         Bfn.  Coefficient  Atom+Function  
  ----- ------------  ---------------      ----- ------------  ---------------
    36      1.269746  3 C  py                32     -1.015781  3 C  py         
     6      0.485798  1 O  s                 20     -0.485798  2 O  s          
    50      0.450771  4 C  py                58      0.422047  5 H  s          
    60     -0.422047  6 H  s                  4     -0.214772  1 O  py         
    18     -0.214772  2 O  py                46     -0.188408  4 C  py         

 Vector   27  Occ=0.000000D+00  E= 9.520818D-01  Symmetry=b1
              MO Center= -2.7D-15,  4.1D-16,  6.3D-01, r^2= 2.5D+00
   Bfn.  Coefficient  Atom+Function         Bfn.  Coefficient  Atom+Function  
  ----- ------------  ---------------      ----- ------------  ---------------
    35      1.363839  3 C  px                49     -1.125931  4 C  px         
    31     -0.848107  3 C  px                45      0.732339  4 C  px         
     7     -0.140926  1 O  px                21     -0.140926  2 O  px         
     3     -0.093018  1 O  px                17     -0.093018  2 O  px         
    41     -0.059916  3 C  d  1              10     -0.038363  1 O  d -2       

 Vector   28  Occ=0.000000D+00  E= 1.019833D+00  Symmetry=a1
              MO Center=  1.4D-15,  4.4D-15,  6.1D-01, r^2= 1.9D+00
   Bfn.  Coefficient  Atom+Function         Bfn.  Coefficient  Atom+Function  
  ----- ------------  ---------------      ----- ------------  ---------------
    48      1.726399  4 C  s                 34     -1.464233  3 C  s          
    37     -0.919829  3 C  pz                47     -0.743378  4 C  pz         
    33     -0.598492  3 C  pz                30      0.434937  3 C  s          
    57     -0.325461  5 H  s                 59     -0.325461  6 H  s          
     8     -0.159399  1 O  py                22      0.159399  2 O  py         

 Vector   29  Occ=0.000000D+00  E= 1.141513D+00  Symmetry=b2
              MO Center= -5.2D-17,  3.2D-15,  2.3D-01, r^2= 4.1D+00
   Bfn.  Coefficient  Atom+Function         Bfn.  Coefficient  Atom+Function  
  ----- ------------  ---------------      ----- ------------  ---------------
    50      3.280648  4 C  py                36     -2.667039  3 C  py         
    58      1.301214  5 H  s                 60     -1.301214  6 H  s          
     6     -1.056826  1 O  s                 20      1.056826  2 O  s          
    46     -0.813385  4 C  py                 9     -0.655566  1 O  pz         
    23      0.655566  2 O  pz                 8     -0.531256  1 O  py         

 Vector   30  Occ=0.000000D+00  E= 1.236809D+00  Symmetry=b2
              MO Center=  2.2D-18, -6.1D-15,  8.1D-01, r^2= 3.7D+00
   Bfn.  Coefficient  Atom+Function         Bfn.  Coefficient  Atom+Function  
  ----- ------------  ---------------      ----- ------------  ---------------
    50      1.808036  4 C  py                58      1.337057  5 H  s          
    60     -1.337057  6 H  s                 46     -0.911056  4 C  py         
    57     -0.447153  5 H  s                 59      0.447153  6 H  s          
    36     -0.443648  3 C  py                 8      0.429749  1 O  py         
    22      0.429749  2 O  py                32      0.318173  3 C  py         

 Vector   31  Occ=0.000000D+00  E= 1.271864D+00  Symmetry=a1
              MO Center=  9.1D-17,  1.8D-14,  4.3D-01, r^2= 4.1D+00
   Bfn.  Coefficient  Atom+Function         Bfn.  Coefficient  Atom+Function  
  ----- ------------  ---------------      ----- ------------  ---------------
    48      1.598631  4 C  s                 44     -0.975140  4 C  s          
    58     -0.847111  5 H  s                 60     -0.847111  6 H  s          
     8      0.622297  1 O  py                22     -0.622297  2 O  py         
    51      0.534618  4 C  pz                 4     -0.457687  1 O  py         
    18      0.457687  2 O  py                47     -0.442798  4 C  pz         

 Vector   32  Occ=0.000000D+00  E= 1.294492D+00  Symmetry=a1
              MO Center=  1.3D-16, -9.5D-16,  4.9D-01, r^2= 3.9D+00
   Bfn.  Coefficient  Atom+Function         Bfn.  Coefficient  Atom+Function  
  ----- ------------  ---------------      ----- ------------  ---------------
    34      2.592264  3 C  s                 51      1.415032  4 C  pz         
    37      0.854040  3 C  pz                58     -0.840708  5 H  s          
    60     -0.840708  6 H  s                  8     -0.608906  1 O  py         
    22      0.608906  2 O  py                47     -0.547687  4 C  pz         
    57      0.496898  5 H  s                 59      0.496898  6 H  s          

 Vector   33  Occ=0.000000D+00  E= 1.346054D+00  Symmetry=a2
              MO Center= -1.9D-18, -2.0D-14, -7.4D-01, r^2= 2.5D+00
   Bfn.  Coefficient  Atom+Function         Bfn.  Coefficient  Atom+Function  
  ----- ------------  ---------------      ----- ------------  ---------------
     7     -0.762955  1 O  px                21      0.762955  2 O  px         
     3      0.700719  1 O  px                17     -0.700719  2 O  px         
    52      0.047648  4 C  d -2              10      0.041694  1 O  d -2       
    24      0.041694  2 O  d -2       

 Vector   34  Occ=0.000000D+00  E= 1.351135D+00  Symmetry=a1
              MO Center= -1.5D-16, -5.7D-15, -3.4D-01, r^2= 3.0D+00
   Bfn.  Coefficient  Atom+Function         Bfn.  Coefficient  Atom+Function  
  ----- ------------  ---------------      ----- ------------  ---------------
    48      2.956117  4 C  s                 34     -2.675662  3 C  s          
    44     -1.112373  4 C  s                 51     -1.049471  4 C  pz         
    30      0.843387  3 C  s                 37     -0.602356  3 C  pz         
     9     -0.530467  1 O  pz                23     -0.530467  2 O  pz         
     5      0.462529  1 O  pz                19      0.462529  2 O  pz         

 Vector   35  Occ=0.000000D+00  E= 1.406538D+00  Symmetry=b1
              MO Center=  8.8D-17,  2.0D-14, -7.3D-01, r^2= 2.7D+00
   Bfn.  Coefficient  Atom+Function         Bfn.  Coefficient  Atom+Function  
  ----- ------------  ---------------      ----- ------------  ---------------
     7      0.945467  1 O  px                21      0.945467  2 O  px         
    35     -0.931512  3 C  px                 3     -0.685400  1 O  px         
    17     -0.685400  2 O  px                49      0.278647  4 C  px         
    31      0.232214  3 C  px                55     -0.057190  4 C  d  1       
    13      0.045242  1 O  d  1              27      0.045242  2 O  d  1       

 Vector   36  Occ=0.000000D+00  E= 1.444395D+00  Symmetry=b2
              MO Center= -1.8D-17,  5.3D-14, -5.3D-01, r^2= 3.2D+00
   Bfn.  Coefficient  Atom+Function         Bfn.  Coefficient  Atom+Function  
  ----- ------------  ---------------      ----- ------------  ---------------
    36      1.430817  3 C  py                50     -0.773923  4 C  py         
     8     -0.661481  1 O  py                22     -0.661481  2 O  py         
     9      0.557860  1 O  pz                23     -0.557860  2 O  pz         
     4      0.509204  1 O  py                18      0.509204  2 O  py         
     6      0.498840  1 O  s                 20     -0.498840  2 O  s          

 Vector   37  Occ=0.000000D+00  E= 1.470205D+00  Symmetry=a1
              MO Center= -6.7D-17, -6.1D-14,  3.1D-01, r^2= 3.4D+00
   Bfn.  Coefficient  Atom+Function         Bfn.  Coefficient  Atom+Function  
  ----- ------------  ---------------      ----- ------------  ---------------
    48      6.488650  4 C  s                 34     -5.477809  3 C  s          
    37     -3.722995  3 C  pz                51     -1.977497  4 C  pz         
    44     -1.276938  4 C  s                 30      1.134737  3 C  s          
     9      0.904861  1 O  pz                23      0.904861  2 O  pz         
    58     -0.500439  5 H  s                 60     -0.500439  6 H  s          

 Vector   38  Occ=0.000000D+00  E= 1.501164D+00  Symmetry=b2
              MO Center= -3.1D-17, -4.6D-15,  1.7D-01, r^2= 3.4D+00
   Bfn.  Coefficient  Atom+Function         Bfn.  Coefficient  Atom+Function  
  ----- ------------  ---------------      ----- ------------  ---------------
    50      1.917681  4 C  py                36     -1.330098  3 C  py         
    57      0.597943  5 H  s                 59     -0.597943  6 H  s          
     5     -0.532749  1 O  pz                19      0.532749  2 O  pz         
     9      0.493976  1 O  pz                23     -0.493976  2 O  pz         
    58      0.460393  5 H  s                 60     -0.460393  6 H  s          

 Vector   39  Occ=0.000000D+00  E= 1.747595D+00  Symmetry=b1
              MO Center= -1.9D-16,  1.3D-13,  2.7D-01, r^2= 1.6D+00
   Bfn.  Coefficient  Atom+Function         Bfn.  Coefficient  Atom+Function  
  ----- ------------  ---------------      ----- ------------  ---------------
    41      0.585887  3 C  d  1              55     -0.474310  4 C  d  1       
    10      0.271978  1 O  d -2              24     -0.271978  2 O  d -2       
    45      0.203751  4 C  px                35      0.163414  3 C  px         
     7     -0.149634  1 O  px                21     -0.149634  2 O  px         
    49     -0.096312  4 C  px         

 Vector   40  Occ=0.000000D+00  E= 1.778756D+00  Symmetry=a2
              MO Center= -1.8D-21, -8.6D-14, -1.6D-01, r^2= 1.5D+00
   Bfn.  Coefficient  Atom+Function         Bfn.  Coefficient  Atom+Function  
  ----- ------------  ---------------      ----- ------------  ---------------
    38      0.625765  3 C  d -2              52      0.314806  4 C  d -2       
    13      0.281368  1 O  d  1              27     -0.281368  2 O  d  1       
    10     -0.232586  1 O  d -2              24     -0.232586  2 O  d -2       
     7      0.123346  1 O  px                21     -0.123346  2 O  px         
     3      0.030601  1 O  px                17     -0.030601  2 O  px         

 Vector   41  Occ=0.000000D+00  E= 1.918065D+00  Symmetry=a1
              MO Center= -2.2D-17, -3.0D-15, -4.0D-01, r^2= 2.3D+00
   Bfn.  Coefficient  Atom+Function         Bfn.  Coefficient  Atom+Function  
  ----- ------------  ---------------      ----- ------------  ---------------
    37      2.882199  3 C  pz                 6      2.231359  1 O  s          
    20      2.231359  2 O  s                 48     -2.225195  4 C  s          
    51      1.289170  4 C  pz                 2     -1.083799  1 O  s          
    16     -1.083799  2 O  s                  8      0.891101  1 O  py         
    22     -0.891101  2 O  py                30     -0.341815  3 C  s          

 Vector   42  Occ=0.000000D+00  E= 2.082110D+00  Symmetry=a2
              MO Center= -7.2D-22,  1.2D-14,  1.1D+00, r^2= 1.2D+00
   Bfn.  Coefficient  Atom+Function         Bfn.  Coefficient  Atom+Function  
  ----- ------------  ---------------      ----- ------------  ---------------
    52      0.931985  4 C  d -2              13     -0.173331  1 O  d  1       
    27      0.173331  2 O  d  1              10      0.151356  1 O  d -2       
    24      0.151356  2 O  d -2              38     -0.118940  3 C  d -2       
     3     -0.056876  1 O  px                17      0.056876  2 O  px         
     7      0.040376  1 O  px                21     -0.040376  2 O  px         

 Vector   43  Occ=0.000000D+00  E= 2.185368D+00  Symmetry=a1
              MO Center=  9.6D-17,  1.2D-13, -2.3D-01, r^2= 1.9D+00
   Bfn.  Coefficient  Atom+Function         Bfn.  Coefficient  Atom+Function  
  ----- ------------  ---------------      ----- ------------  ---------------
    48     -2.359700  4 C  s                 37      2.231362  3 C  pz         
    34      2.158063  3 C  s                 51      0.741579  4 C  pz         
    30     -0.486759  3 C  s                 14     -0.427631  1 O  d  2       
    28     -0.427631  2 O  d  2              47      0.429191  4 C  pz         
    40      0.409703  3 C  d  0               9     -0.403450  1 O  pz         

 Vector   44  Occ=0.000000D+00  E= 2.200161D+00  Symmetry=b2
              MO Center= -4.8D-18, -4.2D-14, -4.0D-01, r^2= 2.3D+00
   Bfn.  Coefficient  Atom+Function         Bfn.  Coefficient  Atom+Function  
  ----- ------------  ---------------      ----- ------------  ---------------
    36      2.777909  3 C  py                 6      2.296626  1 O  s          
    20     -2.296626  2 O  s                 50     -1.265713  4 C  py         
     2     -0.770204  1 O  s                 16      0.770204  2 O  s          
     9      0.616668  1 O  pz                23     -0.616668  2 O  pz         
    39     -0.485239  3 C  d -1              58     -0.424638  5 H  s          

 Vector   45  Occ=0.000000D+00  E= 2.219276D+00  Symmetry=b1
              MO Center=  1.1D-17,  9.3D-13, -5.5D-01, r^2= 2.1D+00
   Bfn.  Coefficient  Atom+Function         Bfn.  Coefficient  Atom+Function  
  ----- ------------  ---------------      ----- ------------  ---------------
    13      0.596966  1 O  d  1              27      0.596966  2 O  d  1       
    10      0.315833  1 O  d -2              24     -0.315833  2 O  d -2       
    55      0.304306  4 C  d  1              49      0.125674  4 C  px         
    35     -0.062165  3 C  px                45     -0.057159  4 C  px         
    41      0.030880  3 C  d  1               3      0.028193  1 O  px         

 Vector   46  Occ=0.000000D+00  E= 2.234721D+00  Symmetry=b2
              MO Center= -7.5D-17,  5.9D-13, -5.8D-01, r^2= 2.3D+00
   Bfn.  Coefficient  Atom+Function         Bfn.  Coefficient  Atom+Function  
  ----- ------------  ---------------      ----- ------------  ---------------
    36      2.328009  3 C  py                 6      1.851116  1 O  s          
    20     -1.851116  2 O  s                 50     -1.697928  4 C  py         
     2     -0.716034  1 O  s                 16      0.716034  2 O  s          
    58     -0.598706  5 H  s                 60      0.598706  6 H  s          
    12     -0.506362  1 O  d  0              26      0.506362  2 O  d  0       

 Vector   47  Occ=0.000000D+00  E= 2.255299D+00  Symmetry=a1
              MO Center= -3.2D-17, -5.1D-13, -3.7D-01, r^2= 2.0D+00
   Bfn.  Coefficient  Atom+Function         Bfn.  Coefficient  Atom+Function  
  ----- ------------  ---------------      ----- ------------  ---------------
    37      2.021681  3 C  pz                 6      1.873858  1 O  s          
    20      1.873858  2 O  s                 34     -1.749602  3 C  s          
    48     -0.945098  4 C  s                  8      0.690796  1 O  py         
    22     -0.690796  2 O  py                42      0.606323  3 C  d  2       
     2     -0.563256  1 O  s                 16     -0.563256  2 O  s          

 Vector   48  Occ=0.000000D+00  E= 2.258580D+00  Symmetry=a2
              MO Center= -3.5D-22, -9.5D-13, -7.6D-01, r^2= 1.8D+00
   Bfn.  Coefficient  Atom+Function         Bfn.  Coefficient  Atom+Function  
  ----- ------------  ---------------      ----- ------------  ---------------
    10      0.515310  1 O  d -2              24      0.515310  2 O  d -2       
    13      0.485601  1 O  d  1              27     -0.485601  2 O  d  1       
     7      0.057776  1 O  px                21     -0.057776  2 O  px         
     3     -0.048238  1 O  px                17      0.048238  2 O  px         

 Vector   49  Occ=0.000000D+00  E= 2.438918D+00  Symmetry=a1
              MO Center=  7.6D-17,  6.8D-14,  3.7D-01, r^2= 2.1D+00
   Bfn.  Coefficient  Atom+Function         Bfn.  Coefficient  Atom+Function  
  ----- ------------  ---------------      ----- ------------  ---------------
    48      0.646649  4 C  s                 56     -0.628508  4 C  d  2       
    44     -0.488954  4 C  s                 12     -0.389318  1 O  d  0       
    26     -0.389318  2 O  d  0              57     -0.325786  5 H  s          
    59     -0.325786  6 H  s                 37      0.319655  3 C  pz         
    42     -0.293144  3 C  d  2              47      0.286143  4 C  pz         

 Vector   50  Occ=0.000000D+00  E= 2.446942D+00  Symmetry=b2
              MO Center= -1.9D-17, -1.5D-13,  7.5D-02, r^2= 2.1D+00
   Bfn.  Coefficient  Atom+Function         Bfn.  Coefficient  Atom+Function  
  ----- ------------  ---------------      ----- ------------  ---------------
    53      0.544728  4 C  d -1              50      0.505735  4 C  py         
     6     -0.492751  1 O  s                 20      0.492751  2 O  s          
    39     -0.450763  3 C  d -1              57      0.445864  5 H  s          
    59     -0.445864  6 H  s                  2      0.437077  1 O  s          
    16     -0.437077  2 O  s                  8     -0.342469  1 O  py         

 Vector   51  Occ=0.000000D+00  E= 2.507862D+00  Symmetry=b1
              MO Center= -1.6D-20, -1.1D-14,  1.1D-01, r^2= 2.3D+00
   Bfn.  Coefficient  Atom+Function         Bfn.  Coefficient  Atom+Function  
  ----- ------------  ---------------      ----- ------------  ---------------
    55      0.707605  4 C  d  1              35     -0.595230  3 C  px         
    10      0.436338  1 O  d -2              24     -0.436338  2 O  d -2       
    13     -0.390028  1 O  d  1              27     -0.390028  2 O  d  1       
     7      0.315278  1 O  px                21      0.315278  2 O  px         
    49      0.315604  4 C  px                31     -0.275016  3 C  px         

 Vector   52  Occ=0.000000D+00  E= 2.522189D+00  Symmetry=b2
              MO Center=  1.2D-18, -3.5D-14, -4.0D-02, r^2= 2.7D+00
   Bfn.  Coefficient  Atom+Function         Bfn.  Coefficient  Atom+Function  
  ----- ------------  ---------------      ----- ------------  ---------------
    36      2.132099  3 C  py                50     -1.437323  4 C  py         
     6      1.390233  1 O  s                 20     -1.390233  2 O  s          
     9      0.566761  1 O  pz                23     -0.566761  2 O  pz         
    57     -0.513247  5 H  s                 59      0.513247  6 H  s          
    53     -0.480021  4 C  d -1              14      0.423383  1 O  d  2       

 Vector   53  Occ=0.000000D+00  E= 2.675505D+00  Symmetry=a1
              MO Center= -6.5D-17, -9.7D-15,  8.7D-01, r^2= 1.5D+00
   Bfn.  Coefficient  Atom+Function         Bfn.  Coefficient  Atom+Function  
  ----- ------------  ---------------      ----- ------------  ---------------
    56      0.701992  4 C  d  2              30     -0.634514  3 C  s          
    54      0.617279  4 C  d  0              34      0.608155  3 C  s          
    57      0.435227  5 H  s                 59      0.435227  6 H  s          
    48     -0.397865  4 C  s                 33     -0.380610  3 C  pz         
    42     -0.369946  3 C  d  2              51     -0.314851  4 C  pz         

 Vector   54  Occ=0.000000D+00  E= 2.886748D+00  Symmetry=a1
              MO Center= -1.7D-17, -8.6D-15,  4.6D-01, r^2= 2.0D+00
   Bfn.  Coefficient  Atom+Function         Bfn.  Coefficient  Atom+Function  
  ----- ------------  ---------------      ----- ------------  ---------------
    48      3.458917  4 C  s                 34     -2.510572  3 C  s          
    37     -2.283695  3 C  pz                51     -1.504553  4 C  pz         
    54      0.838047  4 C  d  0              33     -0.725796  3 C  pz         
     6     -0.674750  1 O  s                 20     -0.674750  2 O  s          
    42      0.462294  3 C  d  2               8     -0.443421  1 O  py         

 Vector   55  Occ=0.000000D+00  E= 2.959740D+00  Symmetry=a2
              MO Center=  1.5D-25, -3.7D-14, -3.2D-01, r^2= 1.6D+00
   Bfn.  Coefficient  Atom+Function         Bfn.  Coefficient  Atom+Function  
  ----- ------------  ---------------      ----- ------------  ---------------
    38      0.931173  3 C  d -2              10      0.459593  1 O  d -2       
    24      0.459593  2 O  d -2              13     -0.441972  1 O  d  1       
    27      0.441972  2 O  d  1               7      0.217061  1 O  px         
    21     -0.217061  2 O  px                52     -0.193534  4 C  d -2       

 Vector   56  Occ=0.000000D+00  E= 3.019143D+00  Symmetry=b1
              MO Center=  2.4D-17,  8.2D-15,  7.2D-02, r^2= 1.7D+00
   Bfn.  Coefficient  Atom+Function         Bfn.  Coefficient  Atom+Function  
  ----- ------------  ---------------      ----- ------------  ---------------
    41      0.985973  3 C  d  1              55      0.632607  4 C  d  1       
    10     -0.467591  1 O  d -2              24      0.467591  2 O  d -2       
     7     -0.180401  1 O  px                21     -0.180401  2 O  px         
    45      0.151730  4 C  px                13      0.120071  1 O  d  1       
    27      0.120071  2 O  d  1              35      0.112398  3 C  px         

 Vector   57  Occ=0.000000D+00  E= 3.143706D+00  Symmetry=b2
              MO Center=  6.6D-20,  6.3D-14, -8.5D-02, r^2= 2.2D+00
   Bfn.  Coefficient  Atom+Function         Bfn.  Coefficient  Atom+Function  
  ----- ------------  ---------------      ----- ------------  ---------------
     6      2.002646  1 O  s                 20     -2.002646  2 O  s          
    36      1.734775  3 C  py                32      0.863081  3 C  py         
     2     -0.818529  1 O  s                 16      0.818529  2 O  s          
     9      0.779311  1 O  pz                23     -0.779311  2 O  pz         
     8      0.725625  1 O  py                22      0.725625  2 O  py         

 Vector   58  Occ=0.000000D+00  E= 3.282150D+00  Symmetry=a1
              MO Center=  3.2D-19, -1.7D-13, -5.0D-01, r^2= 2.1D+00
   Bfn.  Coefficient  Atom+Function         Bfn.  Coefficient  Atom+Function  
  ----- ------------  ---------------      ----- ------------  ---------------
    34      2.682126  3 C  s                  6     -1.911655  1 O  s          
    20     -1.911655  2 O  s                 30      1.037591  3 C  s          
     8     -0.952745  1 O  py                22      0.952745  2 O  py         
    42     -0.735347  3 C  d  2              11     -0.699983  1 O  d -1       
    25      0.699983  2 O  d -1              48     -0.674281  4 C  s          

 Vector   59  Occ=0.000000D+00  E= 3.506691D+00  Symmetry=a1
              MO Center= -5.4D-19,  2.1D-14, -5.1D-02, r^2= 1.6D+00
   Bfn.  Coefficient  Atom+Function         Bfn.  Coefficient  Atom+Function  
  ----- ------------  ---------------      ----- ------------  ---------------
    40      1.186861  3 C  d  0              54     -0.680595  4 C  d  0       
    33      0.608910  3 C  pz                47      0.608344  4 C  pz         
    37     -0.488868  3 C  pz                44     -0.474489  4 C  s          
    42      0.466803  3 C  d  2              12      0.437622  1 O  d  0       
    26      0.437622  2 O  d  0              11      0.368195  1 O  d -1       

 Vector   60  Occ=0.000000D+00  E= 3.531724D+00  Symmetry=b2
              MO Center=  4.4D-21,  6.4D-14, -1.6D-02, r^2= 2.1D+00
   Bfn.  Coefficient  Atom+Function         Bfn.  Coefficient  Atom+Function  
  ----- ------------  ---------------      ----- ------------  ---------------
     6      1.577247  1 O  s                 20     -1.577247  2 O  s          
    39     -1.286948  3 C  d -1              36      1.265947  3 C  py         
    32      0.771253  3 C  py                 8      0.739589  1 O  py         
    22      0.739589  2 O  py                50     -0.649786  4 C  py         
    53     -0.633918  4 C  d -1              11      0.517013  1 O  d -1       


 center of mass
 --------------
 x =   0.00000000 y =   0.00000000 z =  -0.12157608

 moments of inertia (a.u.)
 ------------------
         315.279729958950           0.000000000000           0.000000000000
           0.000000000000         166.017486378855           0.000000000000
           0.000000000000           0.000000000000         149.262243580095

     Multipole analysis of the density
     ---------------------------------

     L   x y z        total         alpha         beta         nuclear
     -   - - -        -----         -----         ----         -------
     0   0 0 0     -2.000000    -16.000000    -16.000000     30.000000

     1   1 0 0     -0.000000     -0.000000     -0.000000      0.000000
     1   0 1 0      0.000000      0.000000      0.000000      0.000000
     1   0 0 1      1.334418      0.667209      0.667209     -0.000000

     2   2 0 0    -20.824170    -10.412085    -10.412085      0.000000
     2   1 1 0      0.000000      0.000000      0.000000      0.000000
     2   1 0 1     -0.000000     -0.000000     -0.000000      0.000000
     2   0 2 0    -28.895176    -53.298748    -53.298748     77.702320
     2   0 1 1     -0.000000     -0.000000     -0.000000      0.000000
     2   0 0 2    -27.530126    -61.779893    -61.779893     96.029660


 Parallel integral file used      14 records with       0 large values


            General Information
            -------------------
          SCF calculation type: DFT
          Wavefunction type:  closed shell.
          No. of atoms     :     6
          No. of electrons :    32
           Alpha electrons :    16
            Beta electrons :    16
          Charge           :    -2
          Spin multiplicity:     1
          Use of symmetry is: on ; symmetry adaption is: on 
          Maximum number of iterations:  50
          AO basis - number of functions:    60
                     number of shells:    28
          Convergence on energy requested:  1.00D-06
          Convergence on density requested:  1.00D-05
          Convergence on gradient requested:  5.00D-04

              XC Information
              --------------
                     Hartree-Fock (Exact) Exchange  1.000          

          Convergence Information
          -----------------------
          Convergence aids based upon iterative change in 
          total energy or number of iterations. 
          Levelshifting, if invoked, occurs when the 
          HOMO/LUMO gap drops below (HL_TOL):  1.00D-02
          DIIS, if invoked, will attempt to extrapolate 
          using up to (NFOCK): 10 stored Fock matrices.

                    Damping( 0%)  Levelshifting(0.5)       DIIS
                  --------------- ------------------- ---------------
          dE  on:    start            ASAP                start   
          dE off:    2 iters         50 iters            50 iters 


      Screening Tolerance Information
      -------------------------------
          Density screening/tol_rho:  1.00D-10
          AO Gaussian exp screening on grid/accAOfunc:  14
          CD Gaussian exp screening on grid/accCDfunc:  20
          XC Gaussian exp screening on grid/accXCfunc:  20
          Schwarz screening/accCoul:  1.00D-08



                            NWChem DFT Gradient Module
                            --------------------------


                                   new potential



  charge          =  -2.00
  wavefunction    = closed shell

  Using symmetry


                         DFT ENERGY GRADIENTS

    atom               coordinates                        gradient
                 x          y          z           x          y          z
   1 o       0.000000  -2.114790  -1.410936    0.000000  -0.026610  -0.046852
   2 o       0.000000   2.114790  -1.410936    0.000000   0.026610  -0.046852
   3 c       0.000000   0.000000   0.032212    0.000000   0.000000   0.152694
   4 c       0.000000   0.000000   2.543256    0.000000   0.000000  -0.047483
   5 h       0.000000  -1.752848   3.561086    0.000000   0.002503  -0.005754
   6 h       0.000000   1.752848   3.561086    0.000000  -0.002503  -0.005754

                 ----------------------------------------
                 |  Time  |  1-e(secs)   |  2-e(secs)   |
                 ----------------------------------------
                 |  CPU   |       0.04   |       0.25   |
                 ----------------------------------------
                 |  WALL  |       0.04   |       0.25   |
                 ----------------------------------------
  no constraints, skipping  0.

@ Step       Energy      Delta E   Gmax     Grms     Xrms     Xmax   Walltime
@ ---- ---------------- -------- -------- -------- -------- -------- --------
@    0    -226.74233016  0.0D+00  0.05899  0.02437  0.00000  0.00000      3.4
                                                                    



                                Z-matrix (autoz)
                                -------- 

 Units are Angstrom for bonds and degrees for angles

      Type          Name      I     J     K     L     M      Value     Gradient
      ----------- --------  ----- ----- ----- ----- ----- ---------- ----------
    1 Stretch                  1     3                       1.35484    0.04839
    2 Stretch                  2     3                       1.35484    0.04839
    3 Stretch                  3     4                       1.32879   -0.05899
    4 Stretch                  4     5                       1.07261   -0.00505
    5 Stretch                  4     6                       1.07261   -0.00505
    6 Bend                     1     3     2               111.38018   -0.02141
    7 Bend                     1     3     4               124.30991    0.01070
    8 Bend                     2     3     4               124.30991    0.01070
    9 Bend                     3     4     5               120.14254   -0.00133
   10 Bend                     3     4     6               120.14254   -0.00133
   11 Bend                     5     4     6               119.71492    0.00266
   12 Torsion                  1     3     4     5           0.00000    0.00000
   13 Torsion                  1     3     4     6         180.00000    0.00000
   14 Torsion                  2     3     4     5         180.00000    0.00000
   15 Torsion                  2     3     4     6           0.00000    0.00000

 Restricting large step in mode    6 eval= 6.3D-02 step= 4.1D-01 new= 3.0D-01
  no constraints, skipping  0.
  no constraints, skipping  0.
  no constraints, skipping  0.
  no constraints, skipping  0.
  no constraints, skipping  0.

                                 NWChem DFT Module
                                 -----------------


                                   new potential




 Summary of "ao basis" -> "ao basis" (spherical)
 ------------------------------------------------------------------------------
       Tag                 Description            Shells   Functions and Types
 ---------------- ------------------------------  ------  ---------------------
 o                           6-31g*                  6       14   3s2p1d
 c                           6-31g*                  6       14   3s2p1d
 h                           6-31g*                  2        2   2s


      Symmetry analysis of basis
      --------------------------

        a1         26
        a2          6
        b1         10
        b2         18

 in cosmo_initialize ...

 solvent parameters
 solvname_short: unkn    
 solvname_long:  unknown                            
 dielec:       78.4000

          ---------------
          -cosmo- solvent
          ---------------
 Cosmo: York-Karplus, doi: 10.1021/jp992097l
 dielectric constant -eps-     =  78.40
 screen = (eps-1)/(eps    )    =   0.98724
 surface charge correction     = lagrangian

   van der Waals surface   
 --------------------------

 ---------- ATOMIC COORDINATES (A.U.) ------------ VDWR(ANG.) --
     1    0.00000000   -2.10387263   -1.34253169     1.720
     2    0.00000000    2.10387263   -1.34253169     1.720
     3    0.00000000    0.00000000   -0.09847681     2.000
     4    0.00000000    0.00000000    2.52122107     2.000
     5    0.00000000   -1.75154249    3.56904329     1.300
     6    0.00000000    1.75154249    3.56904329     1.300
 number of segments per atom =        320
 number of   points per atom =        320
 atom (   nspa,  nppa )
 ----------------------
    1 (    197,     0 )       0
    2 (    197,     0 )       0
    3 (     96,     0 )       0
    4 (    184,     0 )       0
    5 (    120,     0 )       0
    6 (    120,     0 )       0
 number of -cosmo- surface points =      914
 molecular surface =     87.785 angstrom**2
 molecular volume  =     68.449 angstrom**3
 G(cav/disp)       =      1.299 kcal/mol
 -lineq- algorithm             =   0
 -bem- low  level              =   3
 -bem- from -icosahedral-
 gaussian surface charge width =   4.50000
 degree of switching           =   1.00000
 switching function tolerance  =   0.00010
 atomic radii = 
 --------------
    1  8.000  1.720
    2  8.000  1.720
    3  6.000  2.000
    4  6.000  2.000
    5  1.000  1.300
    6  1.000  1.300
 ...... end of -cosmo- initialization ......


  Caching 1-el integrals 

            General Information
            -------------------
          SCF calculation type: DFT
          Wavefunction type:  closed shell.
          No. of atoms     :     6
          No. of electrons :    32
           Alpha electrons :    16
            Beta electrons :    16
          Charge           :    -2
          Spin multiplicity:     1
          Use of symmetry is: on ; symmetry adaption is: on 
          Maximum number of iterations:  50
          AO basis - number of functions:    60
                     number of shells:    28
          Convergence on energy requested:  1.00D-06
          Convergence on density requested:  1.00D-05
          Convergence on gradient requested:  5.00D-04

              XC Information
              --------------
                     Hartree-Fock (Exact) Exchange  1.000          

          Convergence Information
          -----------------------
          Convergence aids based upon iterative change in 
          total energy or number of iterations. 
          Levelshifting, if invoked, occurs when the 
          HOMO/LUMO gap drops below (HL_TOL):  1.00D-02
          DIIS, if invoked, will attempt to extrapolate 
          using up to (NFOCK): 10 stored Fock matrices.

                    Damping( 0%)  Levelshifting(0.5)       DIIS
                  --------------- ------------------- ---------------
          dE  on:    start            ASAP                start   
          dE off:    2 iters         50 iters            50 iters 


      Screening Tolerance Information
      -------------------------------
          Density screening/tol_rho:  1.00D-10
          AO Gaussian exp screening on grid/accAOfunc:  14
          CD Gaussian exp screening on grid/accCDfunc:  20
          XC Gaussian exp screening on grid/accXCfunc:  20
          Schwarz screening/accCoul:  1.00D-08


 Loading old vectors from job with title :

new potential


      Symmetry analysis of molecular orbitals - initial
      -------------------------------------------------

  Numbering of irreducible representations: 

     1 a1          2 a2          3 b1          4 b2      

  Orbital symmetries:

     1 b2          2 a1          3 a1          4 a1          5 a1      
     6 b2          7 a1          8 a1          9 b2         10 a1      
    11 b1         12 b2         13 a1         14 a2         15 b2      
    16 b1         17 a1         18 b1         19 b2         20 a1      
    21 a1         22 b2         23 b1         24 a1         25 a1      
    26 b2      

   Time after variat. SCF:      3.5
   Time prior to 1st pass:      3.6
 Local filesystem for scratch_dir

 Integral file          = ./cosmo_h2cco2_opt.aoints.0
 Record size in doubles =  65536        No. of integs per rec  =  43688
 Max. records in memory =      7        Max. records in file   = 652795
 No. of bits per label  =      8        No. of bits per value  =     64


 #quartets = 4.513D+04 #integrals = 4.830D+05 #direct =  0.0% #cached =100.0%


File balance: exchanges=     0  moved=     0  time=   0.0


           Memory utilization after 1st SCF pass: 
           Heap Space remaining (MW):       25.75            25745588
          Stack Space remaining (MW):       26.21            26213924

   convergence    iter        energy       DeltaE   RMS-Dens  Diis-err    time
 ---------------- ----- ----------------- --------- --------- ---------  ------
     COSMO solvation phase
 d= 0,ls=0.0,diis     1   -226.7458468263 -3.32D+02  4.01D-03  5.68D-02     3.9
 d= 0,ls=0.0,diis     2   -226.7555826269 -9.74D-03  1.47D-03  5.58D-03     4.2
 d= 0,ls=0.0,diis     3   -226.7567477272 -1.17D-03  6.03D-04  1.67D-03     4.5
 d= 0,ls=0.0,diis     4   -226.7570052307 -2.58D-04  3.03D-04  8.05D-05     4.8
 d= 0,ls=0.0,diis     5   -226.7570430275 -3.78D-05  1.21D-04  1.30D-05     5.1
 d= 0,ls=0.0,diis     6   -226.7570480986 -5.07D-06  4.86D-05  1.83D-06     5.4
 d= 0,ls=0.0,diis     7   -226.7570486689 -5.70D-07  1.08D-05  6.48D-08     5.7
 d= 0,ls=0.0,diis     8   -226.7570486729 -3.99D-09  2.18D-06  3.16D-09     6.0


         Total DFT energy =     -226.757048672918
      One electron energy =     -548.793957769435
           Coulomb energy =      232.287845299086
    Exchange-Corr. energy =      -28.173734956444
 Nuclear repulsion energy =      104.979420152398

             COSMO energy =       12.943378601477

 Numeric. integr. density =        0.000000000000

     Total iterative time =      2.4s


                                   COSMO solvation results
                                   -----------------------

     skipped: no gas phase energy
                 sol phase energy =      -226.757048672918

                  Occupations of the irreducible representations
                  ----------------------------------------------

                     irrep           alpha         beta
                     --------     --------     --------
                     a1                8.0          8.0
                     a2                1.0          1.0
                     b1                2.0          2.0
                     b2                5.0          5.0


                       DFT Final Molecular Orbital Analysis
                       ------------------------------------

 Vector    1  Occ=2.000000D+00  E=-2.040284D+01  Symmetry=b2
              MO Center=  4.0D-50, -6.3D-18, -7.1D-01, r^2= 1.3D+00
   Bfn.  Coefficient  Atom+Function         Bfn.  Coefficient  Atom+Function  
  ----- ------------  ---------------      ----- ------------  ---------------
     1      0.704197  1 O  s                 15     -0.704197  2 O  s          

 Vector    2  Occ=2.000000D+00  E=-2.040277D+01  Symmetry=a1
              MO Center=  4.0D-38,  1.5D-16, -7.1D-01, r^2= 1.3D+00
   Bfn.  Coefficient  Atom+Function         Bfn.  Coefficient  Atom+Function  
  ----- ------------  ---------------      ----- ------------  ---------------
     1      0.704179  1 O  s                 15      0.704179  2 O  s          

 Vector    3  Occ=2.000000D+00  E=-1.124121D+01  Symmetry=a1
              MO Center=  8.1D-19, -2.4D-17, -5.2D-02, r^2= 2.7D-02
   Bfn.  Coefficient  Atom+Function         Bfn.  Coefficient  Atom+Function  
  ----- ------------  ---------------      ----- ------------  ---------------
    29      0.996217  3 C  s          

 Vector    4  Occ=2.000000D+00  E=-1.109079D+01  Symmetry=a1
              MO Center=  1.7D-18,  1.1D-18,  1.3D+00, r^2= 2.7D-02
   Bfn.  Coefficient  Atom+Function         Bfn.  Coefficient  Atom+Function  
  ----- ------------  ---------------      ----- ------------  ---------------
    43      0.996058  4 C  s          

 Vector    5  Occ=2.000000D+00  E=-1.270222D+00  Symmetry=a1
              MO Center= -1.6D-16, -1.7D-15, -5.2D-01, r^2= 1.2D+00
   Bfn.  Coefficient  Atom+Function         Bfn.  Coefficient  Atom+Function  
  ----- ------------  ---------------      ----- ------------  ---------------
     6      0.298145  1 O  s                 20      0.298145  2 O  s          
     2      0.284026  1 O  s                 16      0.284026  2 O  s          
    30      0.238097  3 C  s                  1     -0.133361  1 O  s          
[...]
  ----- ------------  ---------------      ----- ------------  ---------------
    37      3.048139  3 C  pz                48     -2.550981  4 C  s          
    51      1.831431  4 C  pz                 6      1.343647  1 O  s          
    20      1.343647  2 O  s                  8      0.835865  1 O  py         
    22     -0.835865  2 O  py                33      0.284420  3 C  pz         
    30      0.242368  3 C  s                 44      0.193657  4 C  s          

 Vector   22  Occ=0.000000D+00  E= 6.104680D-01  Symmetry=b2
              MO Center= -6.1D-28, -1.6D-15,  2.2D-01, r^2= 3.5D+00
   Bfn.  Coefficient  Atom+Function         Bfn.  Coefficient  Atom+Function  
  ----- ------------  ---------------      ----- ------------  ---------------
    36      3.291200  3 C  py                 6      1.875864  1 O  s          
    20     -1.875864  2 O  s                 50     -1.341869  4 C  py         
    58     -0.814030  5 H  s                 60      0.814030  6 H  s          
     9      0.712789  1 O  pz                23     -0.712789  2 O  pz         
     8      0.546310  1 O  py                22      0.546310  2 O  py         

 Vector   23  Occ=0.000000D+00  E= 8.540501D-01  Symmetry=b1
              MO Center=  1.5D-19, -2.0D-18,  4.9D-01, r^2= 2.2D+00
   Bfn.  Coefficient  Atom+Function         Bfn.  Coefficient  Atom+Function  
  ----- ------------  ---------------      ----- ------------  ---------------
    35      0.917519  3 C  px                31     -0.760902  3 C  px         
    45     -0.719387  4 C  px                49      0.457217  4 C  px         

 Vector   24  Occ=0.000000D+00  E= 9.253106D-01  Symmetry=a1
              MO Center=  1.1D-16, -1.9D-14, -6.4D-02, r^2= 2.6D+00
   Bfn.  Coefficient  Atom+Function         Bfn.  Coefficient  Atom+Function  
  ----- ------------  ---------------      ----- ------------  ---------------
    37      1.425999  3 C  pz                48     -1.400548  4 C  s          
    30      0.823958  3 C  s                 33     -0.533418  3 C  pz         
    34     -0.477159  3 C  s                  6      0.448439  1 O  s          
    20      0.448439  2 O  s                 47      0.389383  4 C  pz         
    51     -0.358491  4 C  pz                57      0.281280  5 H  s          

 Vector   25  Occ=0.000000D+00  E= 9.379224D-01  Symmetry=a1
              MO Center=  2.1D-18,  5.0D-17,  8.8D-01, r^2= 2.4D+00
   Bfn.  Coefficient  Atom+Function         Bfn.  Coefficient  Atom+Function  
  ----- ------------  ---------------      ----- ------------  ---------------
    37      1.605503  3 C  pz                34      0.893168  3 C  s          
    51      0.807976  4 C  pz                44     -0.682649  4 C  s          
    33     -0.677418  3 C  pz                30     -0.499379  3 C  s          
    57     -0.453869  5 H  s                 59     -0.453869  6 H  s          
     6      0.263550  1 O  s                 20      0.263550  2 O  s          

 Vector   26  Occ=0.000000D+00  E= 9.391089D-01  Symmetry=b1
              MO Center= -1.1D-18, -9.6D-18,  8.2D-01, r^2= 2.5D+00
   Bfn.  Coefficient  Atom+Function         Bfn.  Coefficient  Atom+Function  
  ----- ------------  ---------------      ----- ------------  ---------------
    35      1.209706  3 C  px                49     -1.176497  4 C  px         
    45      0.851603  4 C  px                31     -0.712852  3 C  px         


 center of mass
 --------------
 x =   0.00000000 y =   0.00000000 z =  -0.12445524

 moments of inertia (a.u.)
 ------------------
         307.774967114418           0.000000000000           0.000000000000
           0.000000000000         160.557483587358           0.000000000000
           0.000000000000           0.000000000000         147.217483527060

  Mulliken analysis of the total density
  --------------------------------------

    Atom       Charge   Shell Charges
 -----------   ------   -------------------------------------------------------
    1 O    8     8.99   2.00  0.87  2.87  0.99  2.25  0.02
    2 O    8     8.99   2.00  0.87  2.87  0.99  2.25  0.02
    3 C    6     5.25   2.00  0.67  1.78  0.26  0.39  0.15
    4 C    6     6.84   2.00  0.61  2.03  0.63  1.54  0.03
    5 H    1     0.96   0.53  0.44
    6 H    1     0.96   0.53  0.44

       Multipole analysis of the density wrt the origin
       ------------------------------------------------

     L   x y z        total         open         nuclear
     -   - - -        -----         ----         -------
     0   0 0 0     -2.000000      0.000000     30.000000

     1   1 0 0     -0.000000      0.000000      0.000000
     1   0 1 0      0.000000      0.000000      0.000000
     1   0 0 1      0.609252      0.000000     -0.054383

     2   2 0 0    -21.019121      0.000000      0.000000
     2   1 1 0     -0.000000      0.000000      0.000000
     2   1 0 1      0.000000      0.000000      0.000000
     2   0 2 0    -28.477849      0.000000     76.664190
     2   0 1 1     -0.000000      0.000000      0.000000
     2   0 0 2    -28.264687      0.000000     93.525472


 Parallel integral file used      13 records with       0 large values

                              NWChem Gradients Module
                              -----------------------


                                   GEPOL cavity


  wavefunction    =   RHF     

  Using symmetry


                         RHF ENERGY GRADIENTS

    atom               coordinates                        gradient
                 x          y          z           x          y          z
   1 o       0.000000  -2.099856  -1.351913    0.000000   0.000063   0.000052
   2 o       0.000000   2.099856  -1.351913    0.000000  -0.000063   0.000052
   3 c       0.000000   0.000000  -0.130572    0.000000   0.000000  -0.000127
   4 c       0.000000   0.000000   2.529899    0.000000   0.000000   0.000012
   5 h       0.000000  -1.748406   3.590133    0.000000  -0.000006   0.000006
   6 h       0.000000   1.748406   3.590133    0.000000   0.000006   0.000006

                 ----------------------------------------
                 |  Time  |  1-e(secs)   |  2-e(secs)   |
                 ----------------------------------------
                 |  CPU   |       0.10   |       0.26   |
                 ----------------------------------------
                 |  WALL  |       0.10   |       0.26   |
                 ----------------------------------------
  no constraints, skipping  0.

  Step       Energy      Delta E   Gmax     Grms     Xrms     Xmax   Walltime
  ---- ---------------- -------- -------- -------- -------- -------- --------
@    5    -226.75768329 -1.2D-05  0.00008  0.00003  0.00049  0.00138     89.3
                                     ok       ok       ok       ok  



                                Z-matrix (autoz)
                                -------- 

 Units are Angstrom for bonds and degrees for angles

      Type          Name      I     J     K     L     M      Value     Gradient
      ----------- --------  ----- ----- ----- ----- ----- ---------- ----------
    1 Stretch                  1     3                       1.28548   -0.00008
    2 Stretch                  2     3                       1.28548   -0.00008
    3 Stretch                  3     4                       1.40786    0.00002
    4 Stretch                  4     5                       1.08204    0.00001
    5 Stretch                  4     6                       1.08204    0.00001
    6 Bend                     1     3     2               119.63278    0.00001
    7 Bend                     1     3     4               120.18361   -0.00001
    8 Bend                     2     3     4               120.18361   -0.00001
    9 Bend                     3     4     5               121.23263    0.00000
   10 Bend                     3     4     6               121.23263    0.00000
   11 Bend                     5     4     6               117.53473   -0.00000
   12 Torsion                  1     3     4     5           0.00000    0.00000
   13 Torsion                  1     3     4     6         180.00000    0.00000
   14 Torsion                  2     3     4     5         180.00000    0.00000
   15 Torsion                  2     3     4     6           0.00000    0.00000


      ----------------------
      Optimization converged
      ----------------------


  Step       Energy      Delta E   Gmax     Grms     Xrms     Xmax   Walltime
  ---- ---------------- -------- -------- -------- -------- -------- --------
@    5    -226.75768329 -1.2D-05  0.00008  0.00003  0.00049  0.00138     89.3
                                     ok       ok       ok       ok  



                                Z-matrix (autoz)
                                -------- 

 Units are Angstrom for bonds and degrees for angles

      Type          Name      I     J     K     L     M      Value     Gradient
      ----------- --------  ----- ----- ----- ----- ----- ---------- ----------
    1 Stretch                  1     3                       1.28548   -0.00008
    2 Stretch                  2     3                       1.28548   -0.00008
    3 Stretch                  3     4                       1.40786    0.00002
    4 Stretch                  4     5                       1.08204    0.00001
    5 Stretch                  4     6                       1.08204    0.00001
    6 Bend                     1     3     2               119.63278    0.00001
    7 Bend                     1     3     4               120.18361   -0.00001
    8 Bend                     2     3     4               120.18361   -0.00001
    9 Bend                     3     4     5               121.23263    0.00000
   10 Bend                     3     4     6               121.23263    0.00000
   11 Bend                     5     4     6               117.53473   -0.00000
   12 Torsion                  1     3     4     5           0.00000    0.00000
   13 Torsion                  1     3     4     6         180.00000    0.00000
   14 Torsion                  2     3     4     5         180.00000    0.00000
   15 Torsion                  2     3     4     6           0.00000    0.00000



                         Geometry "geometry" -> "geometry"
                         ---------------------------------

 Output coordinates in angstroms (scale by  1.889725989 to convert to a.u.)

  No.       Tag          Charge          X              Y              Z
 ---- ---------------- ---------- -------------- -------------- --------------
    1 o                    8.0000     0.00000000    -1.11119616    -0.71540182
    2 o                    8.0000     0.00000000     1.11119616    -0.71540182
    3 c                    6.0000     0.00000000     0.00000000    -0.06909567
    4 c                    6.0000     0.00000000     0.00000000     1.33876517
    5 h                    1.0000     0.00000000    -0.92521683     1.89981693
    6 h                    1.0000     0.00000000     0.92521683     1.89981693

      Atomic Mass 
      ----------- 

      o                 15.994910
      c                 12.000000
      h                  1.007825


 Effective nuclear repulsion energy (a.u.)     104.8990580036

            Nuclear Dipole moment (a.u.) 
            ----------------------------
        X                 Y               Z
 ---------------- ---------------- ----------------
     0.0000000000     0.0000000000    -0.0543830267

      Symmetry information
      --------------------

 Group name             C2v       
 Group number             16
 Group order               4
 No. of unique centers     4

      Symmetry unique atoms

     1    3    4    5


                Final and change from initial internal coordinates
                --------------------------------------------------



                                Z-matrix (autoz)
                                -------- 

 Units are Angstrom for bonds and degrees for angles

      Type          Name      I     J     K     L     M      Value       Change
      ----------- --------  ----- ----- ----- ----- ----- ---------- ----------
    1 Stretch                  1     3                       1.28548   -0.06936
    2 Stretch                  2     3                       1.28548   -0.06936
    3 Stretch                  3     4                       1.40786    0.07907
    4 Stretch                  4     5                       1.08204    0.00943
    5 Stretch                  4     6                       1.08204    0.00943
    6 Bend                     1     3     2               119.63278    8.25260
    7 Bend                     1     3     4               120.18361   -4.12630
    8 Bend                     2     3     4               120.18361   -4.12630
    9 Bend                     3     4     5               121.23263    1.09010
   10 Bend                     3     4     6               121.23263    1.09010
   11 Bend                     5     4     6               117.53473   -2.18019
   12 Torsion                  1     3     4     5           0.00000    0.00000
   13 Torsion                  1     3     4     6         180.00000    0.00000
   14 Torsion                  2     3     4     5         180.00000    0.00000
   15 Torsion                  2     3     4     6           0.00000    0.00000

 ==============================================================================
                                internuclear distances
 ------------------------------------------------------------------------------
       center one      |      center two      | atomic units |  angstroms
 ------------------------------------------------------------------------------
    3 c                |   1 o                |     2.42921  |     1.28548
    3 c                |   2 o                |     2.42921  |     1.28548
    4 c                |   3 c                |     2.66047  |     1.40786
    5 h                |   4 c                |     2.04475  |     1.08204
    6 h                |   4 c                |     2.04475  |     1.08204
 ------------------------------------------------------------------------------
                         number of included internuclear distances:          5
 ==============================================================================



 ==============================================================================
                                 internuclear angles
 ------------------------------------------------------------------------------
        center 1       |       center 2       |       center 3       |  degrees
 ------------------------------------------------------------------------------
    1 o                |   3 c                |   2 o                |   119.63
    1 o                |   3 c                |   4 c                |   120.18
    2 o                |   3 c                |   4 c                |   120.18
    3 c                |   4 c                |   5 h                |   121.23
    3 c                |   4 c                |   6 h                |   121.23
    5 h                |   4 c                |   6 h                |   117.53
 ------------------------------------------------------------------------------
                            number of included internuclear angles:          6
 ==============================================================================




 Task  times  cpu:       52.4s     wall:       52.4s


                                NWChem Input Module
                                -------------------


 Summary of allocated global arrays
-----------------------------------
  No active global arrays


MA_summarize_allocated_blocks: starting scan ...
MA_summarize_allocated_blocks: scan completed: 0 heap blocks, 0 stack blocks
MA usage statistics:

	allocation statistics:
					      heap	     stack
					      ----	     -----
	current number of blocks	         0	         0
	maximum number of blocks	        25	        33
	current total bytes		         0	         0
	maximum total bytes		   3839952	  43832872
	maximum total K-bytes		      3840	     43833
	maximum total M-bytes		         4	        44


                                     CITATION
                                     --------
                Please cite the following reference when publishing
                           results obtained with NWChem:

          E. Apra, E. J. Bylaska, W. A. de Jong, N. Govind, K. Kowalski,
       T. P. Straatsma, M. Valiev, H. J. J. van Dam, Y. Alexeev, J. Anchell,
       V. Anisimov, F. W. Aquino, R. Atta-Fynn, J. Autschbach, N. P. Bauman,
     J. C. Becca, D. E. Bernholdt, K. Bhaskaran-Nair, S. Bogatko, P. Borowski,
         J. Boschen, J. Brabec, A. Bruner, E. Cauet, Y. Chen, G. N. Chuev,
      C. J. Cramer, J. Daily, M. J. O. Deegan, T. H. Dunning Jr., M. Dupuis,
   K. G. Dyall, G. I. Fann, S. A. Fischer, A. Fonari, H. Fruchtl, L. Gagliardi,
      J. Garza, N. Gawande, S. Ghosh, K. Glaesemann, A. W. Gotz, J. Hammond,
       V. Helms, E. D. Hermes, K. Hirao, S. Hirata, M. Jacquelin, L. Jensen,
   B. G. Johnson, H. Jonsson, R. A. Kendall, M. Klemm, R. Kobayashi, V. Konkov,
      S. Krishnamoorthy, M. Krishnan, Z. Lin, R. D. Lins, R. J. Littlefield,
      A. J. Logsdail, K. Lopata, W. Ma, A. V. Marenich, J. Martin del Campo,
   D. Mejia-Rodriguez, J. E. Moore, J. M. Mullin, T. Nakajima, D. R. Nascimento,
    J. A. Nichols, P. J. Nichols, J. Nieplocha, A. Otero-de-la-Roza, B. Palmer,
    A. Panyala, T. Pirojsirikul, B. Peng, R. Peverati, J. Pittner, L. Pollack,
   R. M. Richard, P. Sadayappan, G. C. Schatz, W. A. Shelton, D. W. Silverstein,
   D. M. A. Smith, T. A. Soares, D. Song, M. Swart, H. L. Taylor, G. S. Thomas,
            V. Tipparaju, D. G. Truhlar, K. Tsemekhman, T. Van Voorhis,
      A. Vazquez-Mayagoitia, P. Verma, O. Villa, A. Vishnu, K. D. Vogiatzis,
        D. Wang, J. H. Weare, M. J. Williamson, T. L. Windus, K. Wolinski,
        A. T. Wong, Q. Wu, C. Yang, Q. Yu, M. Zacharias, Z. Zhang, Y. Zhao,
                                and R. J. Harrison
                        "NWChem: Past, present, and future
                         J. Chem. Phys. 152, 184102 (2020)
                               doi:10.1063/5.0004997

                                      AUTHORS
                                      -------
        E. Apra, E. J. Bylaska, N. Govind, K. Kowalski, D. Mejia-Rodriguez,
        N. P. Bauman, A. Panyala, R. J. Harrison, M. Valiev, W. A. de Jong,
       T. P. Straatsma, H. J. J. van Dam, D. Wang, T. L. Windus, J. Hammond,
     J. Autschbach, R. de P. Soares, A. Kunitsa, K. Bhaskaran-Nair, J. Brabec,
    K. Lopata, S. A. Fischer, S. Krishnamoorthy, M. Jacquelin, A. Woods, W. Ma,
          M. Klemm, O. Villa, Y. Chen, V. Anisimov, F. Aquino, S. Hirata,
    M. T. Hackler, E. Hermes, L. Jensen, J. E. Moore, J. C. Becca, V. Konjkov,
      T. Risthaus, M. Malagoli, A. Marenich, A. Otero-de-la-Roza, J. Mullin,
        P. Nichols, R. Peverati, J. Pittner, Y. Zhao, P.-D. Fan, A. Fonari,
     M. J. Williamson, J. R. Rehr, M. Dupuis, D. Silverstein, D. M. A. Smith,
            J. Nieplocha, V. Tipparaju, M. Krishnan, B. E. Van Kuiken,
        A. Vazquez-Mayagoitia, M. Swart, Q. Wu, T. Van Voorhis, A. A. Auer,
     M. Nooijen, L. D. Crosby, E. Brown, G. Cisneros, G. I. Fann, H. Fruchtl,
   J. Garza, K. Hirao, R. A. Kendall, J. A. Nichols, K. Tsemekhman, K. Wolinski,
     J. Anchell, D. E. Bernholdt, P. Borowski, T. Clark, D. Clerc, H. Dachsel,
   M. J. O. Deegan, K. Dyall, D. Elwood, E. Glendening, M. Gutowski, A. C. Hess,
         J. Jaffe, B. G. Johnson, J. Ju, R. Kobayashi, R. Kutteh, Z. Lin,
   R. Littlefield, X. Long, B. Meng, T. Nakajima, S. Niu, L. Pollack, M. Rosing,
   K. Glaesemann, G. Sandrone, M. Stave, H. Taylor, G. Thomas, J. H. van Lenthe,
                               A. T. Wong, Z. Zhang.

 Total times  cpu:       89.3s     wall:       89.3s
