 argument  1 = br2_dk.nw
ARMCI configured for 4 cluster nodes
                                         
                                         
 
 
              Northwest Computational Chemistry Package (NWChem) 4.0
              ------------------------------------------------------
 
 
                    Environmental Molecular Sciences Laboratory
                       Pacific Northwest National Laboratory
                                Richland, WA 99352
 
                                         
                                         
 
 
            COPYRIGHT (C) 1994, 1995, 1996, 1997, 1998, 1999, 2000, 2001
                        Pacific Northwest National Laboratory,
                             Battelle Memorial Institute.
 
                            >>> All Rights Reserved <<<
 
 
                                    DISCLAIMER
                                    ----------

            This material was prepared as an account of work sponsored
            by an agency of the United States Government.  Neither the
            United States Government nor the United States Department
            of Energy, nor Battelle, nor any of their employees, MAKES
            ANY WARRANTY, EXPRESS OR IMPLIED, OR ASSUMES ANY LEGAL
            LIABILITY OR RESPONSIBILITY FOR THE ACCURACY, COMPLETENESS,
            OR USEFULNESS OF ANY INFORMATION, APPARATUS, PRODUCT,
            SOFTWARE, OR PROCESS DISCLOSED, OR REPRESENTS THAT ITS USE
            WOULD NOT INFRINGE PRIVATELY OWNED RIGHTS.


                                    LIMITED USE
                                    -----------

            This software (including any documentation) is being made
            available to you for your internal use only, solely for use
            in performance of work directly for the U.S. Federal
            Government or work under contracts with the U.S. Department
            of Energy or other U.S. Federal Government agencies.  This
            software is a version which has not yet been evaluated and
            cleared for commercialization.  Adherence to this notice
            may be necessary for the author, Battelle Memorial
            Institute, to successfully assert copyright in and
            commercialize this software. This software is not intended
            for duplication or distribution to third parties without
            the permission of the Manager of Software Products at
            Pacific Northwest National Laboratory, Richland,
            Washington, 99352.


                                  ACKNOWLEDGMENT
                                  --------------

            This software and its documentation were produced with
            Government support under Contract Number DE-AC06-76RLO-1830
            awarded by the United States Department of Energy.  The
            Government retains a paid-up non-exclusive, irrevocable
            worldwide license to reproduce, prepare derivative works,
            perform publicly and display publicly by or for the
            Government, including the right to distribute to other
            Government contractors.


           Job information
           ---------------

    hostname      = j02n13.jupiter.emsl.pnl.gov
    program       = /u/bert/sources/jupiter/nwchem/bin/LAPI_PWR3/nwchem
    date          = Thu Feb  7 10:29:57 2002

    compiled      = Thu Jan 31 15:31:14 PST 2002
    source        = /u/bert/sources/jupiter/nwchem
    nwchem branch = Development
    input         = br2_dk.nw
    prefix        = br2.
    data base     = ./br2.db
    status        = startup
    nproc         =   16
    time left     =     -1s



           Memory information
           ------------------

    heap      =   24182776 doubles =    184.5 Mbytes
    stack     =   24182785 doubles =    184.5 Mbytes
    global    =   48365568 doubles =    369.0 Mbytes (distinct from heap & stack)
    total     =   96731129 doubles =    738.0 Mbytes
    verify    = yes
    hardfail  = no 


           Directory information
           ---------------------
 
  0 permanent = .
  0 scratch   = .
 
 
 
 
                                NWChem Input Module
                                -------------------
 
 

 Scaling coordinates for geometry "geometry" by  1.889725989
 (inverse scale =   .529177249)

 ORDER OF PRIMARY AXIS IS BEING SET TO 4
 D4H symmetry detected

          ------
          auto-z
          ------
     1 autoz failed with cvr_scaling = 1.2 changing to 1.3
     2 autoz failed with cvr_scaling = 1.3 changing to 1.4
 
 
                             Geometry "geometry" -> ""
                             -------------------------
 
 Output coordinates in angstroms (scale by  1.889725989 to convert to a.u.)
 
  No.       Tag          Charge          X              Y              Z
 ---- ---------------- ---------- -------------- -------------- --------------
    1 br                  35.0000      .00000000      .00000000     1.50000000
    2 br                  35.0000      .00000000      .00000000    -1.50000000
 
      Atomic Mass 
      ----------- 
 
      br                78.918300
 

 Effective nuclear repulsion energy (a.u.)     216.0807100082

            Nuclear Dipole moment (a.u.) 
            ----------------------------
        X                 Y               Z
 ---------------- ---------------- ----------------
      .0000000000      .0000000000      .0000000000
 
      Symmetry information
      --------------------
 
 Group name             D4h       
 Group number             28
 Group order              16
 No. of unique centers     1
 
      Symmetry unique atoms
 
     1
 


                                Z-matrix (autoz)
                                -------- 

 Units are Angstrom for bonds and degrees for angles
 
      Type          Name      I     J     K     L     M      Value
      ----------- --------  ----- ----- ----- ----- ----- ----------
    1 Stretch                  1     2                       3.00000
 
  library name resolved from: .nwchemrc
  library file name is: </u/bert/sources/jupiter/nwchem/src/basis/libraries/>
  
                      Basis "ao basis" -> "" (spherical)
                      -----
  br (Bromine)
  ------------
            Exponent  Coefficients 
       -------------- ---------------------------------------------------------
  1 S  5.74300000E+05  1.000000
 
  2 S  8.90700000E+04  1.000000
 
  3 S  2.02100000E+04  1.000000
 
  4 S  5.73600000E+03  1.000000
 
  5 S  1.89900000E+03  1.000000
 
  6 S  6.98700000E+02  1.000000
 
  7 S  2.77800000E+02  1.000000
 
  8 S  1.15200000E+02  1.000000
 
  9 S  3.59700000E+01  1.000000
 
 10 S  1.55000000E+01  1.000000
 
 11 S  4.77100000E+00  1.000000
 
 12 S  2.07700000E+00  1.000000
 
 13 S  4.21100000E-01  1.000000
 
 14 S  1.61000000E-01  1.000000
 
 15 S  4.00000000E-02  1.000000
 
 16 S  2.00000000E-02  1.000000
 
 17 P  4.40600000E+03  1.000000
 
 18 P  1.04200000E+03  1.000000
 
 19 P  3.32100000E+02  1.000000
 
 20 P  1.21900000E+02  1.000000
 
 21 P  4.92400000E+01  1.000000
 
 22 P  2.11600000E+01  1.000000
 
 23 P  8.83600000E+00  1.000000
 
 24 P  3.82900000E+00  1.000000
 
 25 P  1.64300000E+00  1.000000
 
 26 P  4.65000000E-01  1.000000
 
 27 P  1.42700000E-01  1.000000
 
 28 P  4.00000000E-02  1.000000
 
 29 D  1.08400000E+02  1.000000
 
 30 D  3.07100000E+01  1.000000
 
 31 D  1.06600000E+01  1.000000
 
 32 D  3.85100000E+00  1.000000
 
 33 D  1.31700000E+00  1.000000
 
 34 D  3.30000000E-01  1.000000
 
 35 D  1.30000000E-01  1.000000
 
 36 F  5.55000000E-01  1.000000
 


 Summary of "ao basis" -> "" (spherical)
 ------------------------------------------------------------------------------
       Tag                 Description            Shells   Functions and Types
 ---------------- ------------------------------  ------  ---------------------
 br                      user specified             36       94   16s12p7d1f



Douglas-Kroll integrals are switched on !

Integrals for the no-pair equation with external-field projection operators
will be computed (Douglas-Kroll-Hess).


The speed of light used in the relativistic calculations is   137.0360000000au.

                                 NWChem SCF Module
                                 -----------------
 
 

  ao basis        = "ao basis"
  functions       =   188
  atoms           =     2
  closed shells   =    35
  open shells     =     0
  charge          =    .00
  wavefunction    = RHF 
  input vectors   = atomic
  output vectors  = ./br2.movecs
  use symmetry    = T
  symmetry adapt  = T


 Summary of "ao basis" -> "ao basis" (spherical)
 ------------------------------------------------------------------------------
       Tag                 Description            Shells   Functions and Types
 ---------------- ------------------------------  ------  ---------------------
 br                      user specified             36       94   16s12p7d1f


      Symmetry analysis of basis
      --------------------------
 
        a1g        36
        a1u         0
        a2g         0
        a2u        36
        b1g         8
        b1u         8
        b2g         8
        b2u         8
        eg         42
        eu         42
 

 Forming initial guess at      14.9s

 
      Superposition of Atomic Density Guess
      -------------------------------------
 
 Sum of atomic energies:       -5144.74924043
 
      Non-variational initial energy
      ------------------------------

 Total energy =   -5191.125080
 1-e energy   =   -7642.114664
 2-e energy   =    2234.908874
 HOMO         =       -.382106
 LUMO         =       -.307499
 
 
      Symmetry analysis of molecular orbitals - initial
      -------------------------------------------------
 

 !! scf_movecs_sym_adapt:   32 vectors were symmetry contaminated

  Symmetry fudging

 !! scf_movecs_sym_adapt:   24 vectors were symmetry contaminated

  Numbering of irreducible representations: 
 
     1 a1g         2 a1u         3 a2g         4 a2u         5 b1g     
     6 b1u         7 b2g         8 b2u         9 eg         10 eu      
 
  Orbital symmetries:
 
     1 a2u         2 a1g         3 a2u         4 a1g         5 a1g     
     6 a2u         7 eg          8 eg          9 eu         10 eu      
    11 a1g        12 a2u        13 a2u        14 a1g        15 eu      
    16 eu         17 eg         18 eg         19 a1g        20 eu      
    21 eu         22 eg         23 eg         24 b2g        25 b1g     
    26 b2u        27 b1u        28 a2u        29 a1g        30 a2u     
    31 a1g        32 eu         33 eu         34 eg         35 eg      
    36 a2u        37 a1g        38 a2u        39 eu         40 eu      
    41 eg         42 eg         43 a1g        44 a2u        45 a1g     
 

 Starting SCF solution at      25.2s



 ----------------------------------------------
         Quadratically convergent ROHF

 Convergence threshold     :          1.000E-08
 Maximum no. of iterations :           20
 Final Fock-matrix accuracy:          1.000E-10
 ----------------------------------------------


 Integral file          = ./br2.aoints.00
 Record size in doubles =  65536        No. of integs per rec  =  43688
 Max. records in memory =     26        Max. records in file   =  42078
 No. of bits per label  =      8        No. of bits per value  =     64


 #quartets = 1.249D+06 #integrals = 8.507D+06 #direct =   .0% #cached =100.0%


File balance: exchanges=     0  moved=     0  time=    .0


              iter       energy          gnorm     gmax       time
             ----- ------------------- --------- --------- --------
                 1    -5208.3218826685  4.03D+00  8.31D-01     22.6
                 2    -5208.3509751642  6.65D-01  1.86D-01     34.1
                 3    -5208.3548664412  3.86D-01  7.83D-02     39.3
                 4    -5208.3553810749  1.04D-02  5.45D-03     46.4
                 5    -5208.3553958830  3.17D-05  1.17D-05     53.5
                 6    -5208.3553958832  5.29D-07  2.53D-07     62.1
                 7    -5208.3553958831  1.12D-10  2.12D-11     67.5


       Final RHF  results 
       ------------------ 

         Total SCF energy =  -5208.355395883143
      One-electron energy =  -7675.252505185873
      Two-electron energy =   2250.816399294520
 Nuclear repulsion energy =    216.080710008210

        Time for solution =     53.0s


 
       Symmetry analysis of molecular orbitals - final
       -----------------------------------------------
 
  Numbering of irreducible representations: 
 
     1 a1g         2 a1u         3 a2g         4 a2u         5 b1g     
     6 b1u         7 b2g         8 b2u         9 eg         10 eu      
 
  Orbital symmetries:
 
     1 a2u         2 a1g         3 a2u         4 a1g         5 a2u     
     6 a1g         7 eg          8 eg          9 eu         10 eu      
    11 a1g        12 a2u        13 a1g        14 a2u        15 eu      
    16 eu         17 eg         18 eg         19 a1g        20 a2u     
    21 eu         22 eu         23 eg         24 eg         25 b2u     
    26 b1u        27 b1g        28 b2g        29 a1g        30 a2u     
    31 eu         32 eu         33 a1g        34 eg         35 eg      
    36 a2u        37 a1g        38 a2u        39 eu         40 eu      
    41 a1g        42 eg         43 eg         44 a2u        45 a1g     
 
             Final eigenvalues
             -----------------

              1      
    1 -498.1701
    2 -498.1701
    3  -67.1233
    4  -67.1233
    5  -59.0331
    6  -59.0331
    7  -59.0305
    8  -59.0305
    9  -59.0305
   10  -59.0305
   11  -10.2235
   12  -10.2235
   13   -7.5845
   14   -7.5845
   15   -7.5733
   16   -7.5733
   17   -7.5733
   18   -7.5733
   19   -3.1887
   20   -3.1884
   21   -3.1835
   22   -3.1835
   23   -3.1834
   24   -3.1834
   25   -3.1685
   26   -3.1685
   27   -3.1685
   28   -3.1685
   29   -1.0569
   30   -1.0193
   31    -.4692
   32    -.4692
   33    -.4431
   34    -.4414
   35    -.4414
   36    -.1256
   37     .0314
   38     .0431
   39     .1174
   40     .1174
   41     .1340
   42     .1388
   43     .1388
   44     .1607
   45     .1707
 
                       ROHF Final Molecular Orbital Analysis
                       -------------------------------------
 
 Vector   26  Occ=2.000000D+00  E=-3.168533D+00  Symmetry=b1u
              MO Center=  3.4D-18,  4.4D-17, -2.2D-16, r^2= 2.4D+00
   Bfn.  Coefficient  Atom+Function         Bfn.  Coefficient  Atom+Function  
  ----- ------------  ---------------      ----- ------------  ---------------
    68       .348226  1 Br d -2             162      -.348226  2 Br d -2       
   157      -.258576  2 Br d -2              63       .258576  1 Br d -2       
    73       .187006  1 Br d -2             167      -.187006  2 Br d -2       
 
 Vector   27  Occ=2.000000D+00  E=-3.168530D+00  Symmetry=b1g
              MO Center=  7.0D-16,  2.3D-15,  0.0D+00, r^2= 2.4D+00
   Bfn.  Coefficient  Atom+Function         Bfn.  Coefficient  Atom+Function  
  ----- ------------  ---------------      ----- ------------  ---------------
    72       .348223  1 Br d  2             166       .348223  2 Br d  2       
   161       .258578  2 Br d  2              67       .258578  1 Br d  2       
   171       .187016  2 Br d  2              77       .187016  1 Br d  2       
 
 Vector   28  Occ=2.000000D+00  E=-3.168530D+00  Symmetry=b2g
              MO Center=  5.6D-16,  2.6D-16,  1.1D-16, r^2= 2.4D+00
   Bfn.  Coefficient  Atom+Function         Bfn.  Coefficient  Atom+Function  
  ----- ------------  ---------------      ----- ------------  ---------------
    68       .348223  1 Br d -2             162       .348223  2 Br d -2       
   157       .258578  2 Br d -2              63       .258578  1 Br d -2       
   167       .187016  2 Br d -2              73       .187016  1 Br d -2       
 
 Vector   29  Occ=2.000000D+00  E=-1.056908D+00  Symmetry=a1g
              MO Center=  1.4D-18, -1.8D-16, -1.1D-14, r^2= 3.0D+00
   Bfn.  Coefficient  Atom+Function         Bfn.  Coefficient  Atom+Function  
  ----- ------------  ---------------      ----- ------------  ---------------
    13       .507424  1 Br s                107       .507424  2 Br s          
   106      -.341175  2 Br s                 12      -.341175  1 Br s          
   108       .336572  2 Br s                 14       .336572  1 Br s          
    11      -.182697  1 Br s                105      -.182697  2 Br s          
 
 Vector   30  Occ=2.000000D+00  E=-1.019277D+00  Symmetry=a2u
              MO Center=  2.0D-16,  7.3D-16, -1.3D-14, r^2= 3.4D+00
   Bfn.  Coefficient  Atom+Function         Bfn.  Coefficient  Atom+Function  
  ----- ------------  ---------------      ----- ------------  ---------------
   107       .532682  2 Br s                 13      -.532682  1 Br s          
    12       .352385  1 Br s                106      -.352385  2 Br s          
    14      -.337722  1 Br s                108       .337722  2 Br s          
   105      -.188190  2 Br s                 11       .188190  1 Br s          
 
 Vector   31  Occ=2.000000D+00  E=-4.691881D-01  Symmetry=eu
              MO Center=  5.3D-15, -8.6D-16,  4.2D-12, r^2= 3.6D+00
   Bfn.  Coefficient  Atom+Function         Bfn.  Coefficient  Atom+Function  
  ----- ------------  ---------------      ----- ------------  ---------------
    44       .403625  1 Br px               138       .403625  2 Br px         
    47       .346864  1 Br px               141       .346864  2 Br px         
    38      -.151968  1 Br px               132      -.151968  2 Br px         
 
 Vector   32  Occ=2.000000D+00  E=-4.691881D-01  Symmetry=eu
              MO Center=  2.7D-16, -2.5D-16,  1.7D-14, r^2= 3.6D+00
   Bfn.  Coefficient  Atom+Function         Bfn.  Coefficient  Atom+Function  
  ----- ------------  ---------------      ----- ------------  ---------------
   139       .403625  2 Br py                45       .403625  1 Br py         
    48       .346864  1 Br py               142       .346864  2 Br py         
    39      -.151968  1 Br py               133      -.151968  2 Br py         
 
 Vector   33  Occ=2.000000D+00  E=-4.430521D-01  Symmetry=a1g
              MO Center=  8.5D-15, -1.1D-15,  2.1D-13, r^2= 3.4D+00
   Bfn.  Coefficient  Atom+Function         Bfn.  Coefficient  Atom+Function  
  ----- ------------  ---------------      ----- ------------  ---------------
   140       .364155  2 Br pz                46      -.364155  1 Br pz         
   143       .350652  2 Br pz                49      -.350652  1 Br pz         
 
 Vector   34  Occ=2.000000D+00  E=-4.414310D-01  Symmetry=eg
              MO Center=  3.3D-16, -7.8D-16,  4.4D-13, r^2= 3.8D+00
   Bfn.  Coefficient  Atom+Function         Bfn.  Coefficient  Atom+Function  
  ----- ------------  ---------------      ----- ------------  ---------------
   139       .361666  2 Br py                45      -.361666  1 Br py         
   142       .313206  2 Br py                48      -.313206  1 Br py         
    44       .232917  1 Br px               138      -.232917  2 Br px         
    47       .201709  1 Br px               141      -.201709  2 Br px         
 
 Vector   35  Occ=2.000000D+00  E=-4.414310D-01  Symmetry=eg
              MO Center= -1.7D-14, -1.2D-14, -4.6D-12, r^2= 3.8D+00
   Bfn.  Coefficient  Atom+Function         Bfn.  Coefficient  Atom+Function  
  ----- ------------  ---------------      ----- ------------  ---------------
   138       .361666  2 Br px                44      -.361666  1 Br px         
   141       .313206  2 Br px                47      -.313206  1 Br px         
   139       .232917  2 Br py                45      -.232917  1 Br py         
   142       .201709  2 Br py                48      -.201709  1 Br py         
 
 Vector   36  Occ=0.000000D+00  E=-1.255973D-01  Symmetry=a2u
              MO Center=  1.6D-15,  8.9D-15, -1.5D-13, r^2= 4.6D+00
   Bfn.  Coefficient  Atom+Function         Bfn.  Coefficient  Atom+Function  
  ----- ------------  ---------------      ----- ------------  ---------------
   143       .429826  2 Br pz                49       .429826  1 Br pz         
    46       .405790  1 Br pz               140       .405790  2 Br pz         
    52       .164236  1 Br pz               146       .164236  2 Br pz         
    40      -.156286  1 Br pz               134      -.156286  2 Br pz         
 
 Vector   37  Occ=0.000000D+00  E= 3.135822D-02  Symmetry=a1g
              MO Center=  1.6D-14,  3.7D-15,  9.0D-16, r^2= 2.2D+01
   Bfn.  Coefficient  Atom+Function         Bfn.  Coefficient  Atom+Function  
  ----- ------------  ---------------      ----- ------------  ---------------
    16      1.207210  1 Br s                110      1.207210  2 Br s          
   109      -.868195  2 Br s                 15      -.868195  1 Br s          
 
 Vector   38  Occ=0.000000D+00  E= 4.312505D-02  Symmetry=a2u
              MO Center=  1.2D-14,  9.0D-15, -1.2D-14, r^2= 2.9D+01
   Bfn.  Coefficient  Atom+Function         Bfn.  Coefficient  Atom+Function  
  ----- ------------  ---------------      ----- ------------  ---------------
   110      2.753997  2 Br s                 16     -2.753997  1 Br s          
   109     -1.065965  2 Br s                 15      1.065965  1 Br s          
   146       .264030  2 Br pz                52       .264030  1 Br pz         
 
 Vector   39  Occ=0.000000D+00  E= 1.174151D-01  Symmetry=eu
              MO Center=  9.6D-17,  9.3D-18,  1.1D-15, r^2= 1.3D+01
   Bfn.  Coefficient  Atom+Function         Bfn.  Coefficient  Atom+Function  
  ----- ------------  ---------------      ----- ------------  ---------------
   144       .722367  2 Br px                50       .722367  1 Br px         
    47      -.392281  1 Br px               141      -.392281  2 Br px         
 
 Vector   40  Occ=0.000000D+00  E= 1.174151D-01  Symmetry=eu
              MO Center= -1.1D-14,  2.0D-13,  4.1D-12, r^2= 1.3D+01
   Bfn.  Coefficient  Atom+Function         Bfn.  Coefficient  Atom+Function  
  ----- ------------  ---------------      ----- ------------  ---------------
    51       .722367  1 Br py               145       .722367  2 Br py         
    48      -.392281  1 Br py               142      -.392281  2 Br py         
 
 Vector   41  Occ=0.000000D+00  E= 1.339705D-01  Symmetry=a1g
              MO Center=  1.2D-14, -1.3D-13, -5.8D-15, r^2= 1.6D+01
   Bfn.  Coefficient  Atom+Function         Bfn.  Coefficient  Atom+Function  
  ----- ------------  ---------------      ----- ------------  ---------------
   109      1.168854  2 Br s                 15      1.168854  1 Br s          
    52       .972523  1 Br pz               146      -.972523  2 Br pz         
   110      -.709949  2 Br s                 16      -.709949  1 Br s          
    49      -.383334  1 Br pz               143       .383334  2 Br pz         
    14      -.163614  1 Br s                108      -.163614  2 Br s          
 
 Vector   42  Occ=0.000000D+00  E= 1.387597D-01  Symmetry=eg
              MO Center= -8.0D-17, -1.8D-16, -4.7D-14, r^2= 1.6D+01
   Bfn.  Coefficient  Atom+Function         Bfn.  Coefficient  Atom+Function  
  ----- ------------  ---------------      ----- ------------  ---------------
   144     -1.250607  2 Br px                50      1.250607  1 Br px         
   141       .386251  2 Br px                47      -.386251  1 Br px         
 
 Vector   43  Occ=0.000000D+00  E= 1.387597D-01  Symmetry=eg
              MO Center= -3.0D-17, -4.6D-16, -4.1D-12, r^2= 1.6D+01
   Bfn.  Coefficient  Atom+Function         Bfn.  Coefficient  Atom+Function  
  ----- ------------  ---------------      ----- ------------  ---------------
   145      1.250607  2 Br py                51     -1.250607  1 Br py         
   142      -.386251  2 Br py                48       .386251  1 Br py         
 
 Vector   44  Occ=0.000000D+00  E= 1.607108D-01  Symmetry=a2u
              MO Center=  1.0D-15,  1.0D-15, -3.1D-15, r^2= 2.2D+01
   Bfn.  Coefficient  Atom+Function         Bfn.  Coefficient  Atom+Function  
  ----- ------------  ---------------      ----- ------------  ---------------
   146      3.448811  2 Br pz                52      3.448811  1 Br pz         
   110      2.830314  2 Br s                 16     -2.830314  1 Br s          
    15     -2.133205  1 Br s                109      2.133205  2 Br s          
   143      -.296153  2 Br pz                49      -.296153  1 Br pz         
   179       .216014  2 Br d  0              85      -.216014  1 Br d  0       
 
 Vector   45  Occ=0.000000D+00  E= 1.706940D-01  Symmetry=a1g
              MO Center=  3.1D-15, -6.2D-14, -1.4D-14, r^2= 1.4D+01
   Bfn.  Coefficient  Atom+Function         Bfn.  Coefficient  Atom+Function  
  ----- ------------  ---------------      ----- ------------  ---------------
    15      2.130452  1 Br s                109      2.130452  2 Br s          
   110     -1.291549  2 Br s                 16     -1.291549  1 Br s          
   108      -.921208  2 Br s                 14      -.921208  1 Br s          
    49       .179344  1 Br pz               143      -.179344  2 Br pz         
    52      -.163908  1 Br pz               146       .163908  2 Br pz         
 
 Vector   46  Occ=0.000000D+00  E= 1.952060D-01  Symmetry=a2u
              MO Center=  6.4D-15,  5.6D-15, -1.9D-14, r^2= 1.5D+01
   Bfn.  Coefficient  Atom+Function         Bfn.  Coefficient  Atom+Function  
  ----- ------------  ---------------      ----- ------------  ---------------
    15      4.310843  1 Br s                109     -4.310843  2 Br s          
    16     -1.624782  1 Br s                110      1.624782  2 Br s          
   146     -1.239101  2 Br pz                52     -1.239101  1 Br pz         
    14      -.968485  1 Br s                108       .968485  2 Br s          
    49      -.254262  1 Br pz               143      -.254262  2 Br pz         
 
 Vector   47  Occ=0.000000D+00  E= 2.759980D-01  Symmetry=eu
              MO Center= -7.0D-14, -1.9D-17, -4.3D-13, r^2= 5.4D+00
   Bfn.  Coefficient  Atom+Function         Bfn.  Coefficient  Atom+Function  
  ----- ------------  ---------------      ----- ------------  ---------------
   180       .560315  2 Br d  1              86      -.560315  1 Br d  1       
 
 Vector   48  Occ=0.000000D+00  E= 2.759980D-01  Symmetry=eu
              MO Center= -1.1D-14,  4.0D-14, -1.0D-14, r^2= 5.4D+00
   Bfn.  Coefficient  Atom+Function         Bfn.  Coefficient  Atom+Function  
  ----- ------------  ---------------      ----- ------------  ---------------
    84       .560315  1 Br d -1             178      -.560315  2 Br d -1       
 
 Vector   49  Occ=0.000000D+00  E= 2.936111D-01  Symmetry=b1g
              MO Center=  5.2D-15, -1.2D-14,  6.7D-16, r^2= 5.7D+00
   Bfn.  Coefficient  Atom+Function         Bfn.  Coefficient  Atom+Function  
  ----- ------------  ---------------      ----- ------------  ---------------
    87       .663018  1 Br d  2             181       .663018  2 Br d  2       
 
 Vector   50  Occ=0.000000D+00  E= 2.936111D-01  Symmetry=b2g
              MO Center=  2.7D-15, -1.1D-14,  4.4D-16, r^2= 5.7D+00
   Bfn.  Coefficient  Atom+Function         Bfn.  Coefficient  Atom+Function  
  ----- ------------  ---------------      ----- ------------  ---------------
    83       .663018  1 Br d -2             177       .663018  2 Br d -2       
 
 Vector   51  Occ=0.000000D+00  E= 3.514309D-01  Symmetry=b2u
              MO Center= -2.4D-15,  1.8D-15, -4.4D-16, r^2= 6.2D+00
   Bfn.  Coefficient  Atom+Function         Bfn.  Coefficient  Atom+Function  
  ----- ------------  ---------------      ----- ------------  ---------------
   181       .736030  2 Br d  2              87      -.736030  1 Br d  2       
 
 Vector   52  Occ=0.000000D+00  E= 3.514309D-01  Symmetry=b1u
              MO Center= -6.3D-16, -1.1D-15, -3.3D-16, r^2= 6.2D+00
   Bfn.  Coefficient  Atom+Function         Bfn.  Coefficient  Atom+Function  
  ----- ------------  ---------------      ----- ------------  ---------------
   177       .736030  2 Br d -2              83      -.736030  1 Br d -2       
 
 Vector   53  Occ=0.000000D+00  E= 3.752237D-01  Symmetry=a1g
              MO Center=  6.9D-14,  2.3D-14, -3.4D-11, r^2= 7.1D+00
   Bfn.  Coefficient  Atom+Function         Bfn.  Coefficient  Atom+Function  
  ----- ------------  ---------------      ----- ------------  ---------------
   179       .675900  2 Br d  0              85       .675900  1 Br d  0       
   146       .514950  2 Br pz                52      -.514950  1 Br pz         
    49       .446942  1 Br pz               143      -.446942  2 Br pz         
    15      -.189443  1 Br s                109      -.189443  2 Br s          
   108      -.177640  2 Br s                 14      -.177640  1 Br s          
 
 Vector   54  Occ=0.000000D+00  E= 4.402138D-01  Symmetry=eg
              MO Center= -1.2D-13,  6.0D-15, -2.6D-13, r^2= 7.7D+00
   Bfn.  Coefficient  Atom+Function         Bfn.  Coefficient  Atom+Function  
  ----- ------------  ---------------      ----- ------------  ---------------
    86       .985304  1 Br d  1             180       .985304  2 Br d  1       
   144      -.503311  2 Br px                50       .503311  1 Br px         
 
 Vector   55  Occ=0.000000D+00  E= 4.402138D-01  Symmetry=eg
              MO Center=  1.7D-15,  3.5D-14, -8.6D-13, r^2= 7.7D+00
   Bfn.  Coefficient  Atom+Function         Bfn.  Coefficient  Atom+Function  
  ----- ------------  ---------------      ----- ------------  ---------------
   178       .985304  2 Br d -1              84       .985304  1 Br d -1       
   145       .503311  2 Br py                51      -.503311  1 Br py         
 
 Vector   56  Occ=0.000000D+00  E= 4.648617D-01  Symmetry=a2u
              MO Center=  1.2D-14,  1.6D-14,  3.4D-11, r^2= 1.0D+01
   Bfn.  Coefficient  Atom+Function         Bfn.  Coefficient  Atom+Function  
  ----- ------------  ---------------      ----- ------------  ---------------
   109      3.710296  2 Br s                 15     -3.710296  1 Br s          
    52      2.470531  1 Br pz               146      2.470531  2 Br pz         
    85     -1.386653  1 Br d  0             179      1.386653  2 Br d  0       
    16      -.529627  1 Br s                110       .529627  2 Br s          
   143       .490118  2 Br pz                49       .490118  1 Br pz         
 
 Vector   57  Occ=0.000000D+00  E= 7.685530D-01  Symmetry=eu
              MO Center= -2.3D-14, -2.5D-17,  6.2D-13, r^2= 6.1D+00
   Bfn.  Coefficient  Atom+Function         Bfn.  Coefficient  Atom+Function  
  ----- ------------  ---------------      ----- ------------  ---------------
    47      1.160939  1 Br px               141      1.160939  2 Br px         
    44     -1.033533  1 Br px               138     -1.033533  2 Br px         
    50      -.373048  1 Br px               144      -.373048  2 Br px         
 

 center of mass
 --------------
 x =    .00000000 y =    .00000000 z =    .00000000

 moments of inertia (a.u.)
 ------------------
        1268.200461091386            .000000000000            .000000000000
            .000000000000        1268.200461091386            .000000000000
            .000000000000            .000000000000            .000000000000
 
  Mulliken analysis of the total density
  --------------------------------------

    Atom       Charge   Shell Charges
 -----------   ------   -------------------------------------------------------
    1 Br  35    35.00    .00   .00   .01   .05   .20   .56   .80   .34   .94  1.04   .89  1.13  1.18   .84   .01   .00   .00   .02   .21  1.16  2.61  1.84  1.49  3.31  1.40
  2.48  2.38   .06   .04   .65  3.01  4.54  1.74   .05   .01   .00
    2 Br  35    35.00    .00   .00   .01   .05   .20   .56   .80   .34   .94  1.04   .89  1.13  1.18   .84   .01   .00   .00   .02   .21  1.16  2.61  1.84  1.49  3.31  1.40
  2.48  2.38   .06   .04   .65  3.01  4.54  1.74   .05   .01   .00
 
       Multipole analysis of the density wrt the origin
       ------------------------------------------------
 
     L   x y z        total         open         nuclear
     -   - - -        -----         ----         -------
     0   0 0 0       .000000       .000000     70.000000
 
     1   1 0 0       .000000       .000000       .000000
     1   0 1 0       .000000       .000000       .000000
     1   0 0 1       .000000       .000000       .000000
 
     2   2 0 0    -28.147421       .000000       .000000
     2   1 1 0       .000000       .000000       .000000
     2   1 0 1       .000000       .000000       .000000
     2   0 2 0    -28.147421       .000000       .000000
     2   0 1 1       .000000       .000000       .000000
     2   0 0 2    -22.422198       .000000    562.442629
 

 Parallel integral file used     204 records with       0 large values


 Task  times  cpu:       69.7s     wall:       76.1s
 
 
                                NWChem Input Module
                                -------------------
 
 
                                 NWChem SCF Module
                                 -----------------
 
 

  ao basis        = "ao basis"
  functions       =   188
  atoms           =     2
  closed shells   =    35
  open shells     =     0
  charge          =    .00
  wavefunction    = RHF 
  input vectors   = ./br2.movecs
  output vectors  = ./br2.movecs
  use symmetry    = T
  symmetry adapt  = T


 Summary of "ao basis" -> "ao basis" (spherical)
 ------------------------------------------------------------------------------
       Tag                 Description            Shells   Functions and Types
 ---------------- ------------------------------  ------  ---------------------
 br                      user specified             36       94   16s12p7d1f


      Symmetry analysis of basis
      --------------------------
 
        a1g        36
        a1u         0
        a2g         0
        a2u        36
        b1g         8
        b1u         8
        b2g         8
        b2u         8
        eg         42
        eu         42
 

  The SCF is already converged 

         Total SCF energy =  -5208.355395883143

                              NWChem Gradients Module
                              -----------------------
 
 

  wavefunction    =   RHF     

  Using symmetry

 Read molecular orbitals from ./br2.movecs

                              Douglas-Kroll gradients
                              -----------------------

            The Douglas-Kroll correction to the gradient is 
            computed numerically and added to the analytical 
            non-relativistic gradients.


                         NWChem Numerical Gradients Module
                         ---------------------------------
 
 
 No. of totally-symmetric internal modes =   1

 Finite difference step  1.00000D-02
 Use five point formula T

 step   1 +2        -102.91416535
 step   1 +1        -102.91416511
 step   1 -1        -102.91416463
 step   1 -2        -102.91416439
            gradient         -.000024 (3pt was  -.000024)


                         DOUGLAS-KROLL CORRECTION TO ENERGY GRADIENTS

    atom               coordinates                        gradient
                 x          y          z           x          y          z
   1 br       .000000    .000000   2.834589     .000000    .000000   -.000017
   2 br       .000000    .000000  -2.834589     .000000    .000000    .000017
 
 
 iat testbf ibflo ibfhi sf value 1 1 1 94 1 36
 iat testbf ibflo ibfhi sf value 1 2 1 94 1 36
 iat testbf ibflo ibfhi sf value 1 3 1 94 1 36
 iat testbf ibflo ibfhi sf value 1 4 1 94 1 36
 iat testbf ibflo ibfhi sf value 1 5 1 94 1 36
 iat testbf ibflo ibfhi sf value 1 6 1 94 1 36
 iat testbf ibflo ibfhi sf value 1 1 1 94 1 36
 iat testbf ibflo ibfhi sf value 1 1 1 94 1 36
 iat testbf ibflo ibfhi sf value 1 2 1 94 1 36
 iat testbf ibflo ibfhi sf value 1 3 1 94 1 36
 iat testbf ibflo ibfhi sf value 1 4 1 94 1 36
 iat testbf ibflo ibfhi sf value 1 5 1 94 1 36
 iat testbf ibflo ibfhi sf value 1 6 1 94 1 36
 iat testbf ibflo ibfhi sf value 1 7 1 94 1 36
 iat testbf ibflo ibfhi sf value 1 8 1 94 1 36
 iat testbf ibflo ibfhi sf value 1 9 1 94 1 36
 iat testbf ibflo ibfhi sf value 1 10 1 94 1 36
 iat testbf ibflo ibfhi sf value 1 11 1 94 1 36
 iat testbf ibflo ibfhi sf value 1 12 1 94 1 36
 iat testbf ibflo ibfhi sf value 1 13 1 94 1 36
 iat testbf ibflo ibfhi sf value 1 1 1 94 1 36
 iat testbf ibflo ibfhi sf value 1 2 1 94 1 36
 iat testbf ibflo ibfhi sf value 1 3 1 94 1 36
 iat testbf ibflo ibfhi sf value 1 4 1 94 1 36
 iat testbf ibflo ibfhi sf value 1 5 1 94 1 36
 iat testbf ibflo ibfhi sf value 1 6 1 94 1 36
 iat testbf ibflo ibfhi sf value 1 7 1 94 1 36
 iat testbf ibflo ibfhi sf value 1 8 1 94 1 36
 iat testbf ibflo ibfhi sf value 1 9 1 94 1 36
 iat testbf ibflo ibfhi sf value 1 10 1 94 1 36
 iat testbf ibflo ibfhi sf value 1 1 1 94 1 36
 iat testbf ibflo ibfhi sf value 1 2 1 94 1 36
 iat testbf ibflo ibfhi sf value 1 3 1 94 1 36
 iat testbf ibflo ibfhi sf value 1 4 1 94 1 36
 iat testbf ibflo ibfhi sf value 1 5 1 94 1 36
 iat testbf ibflo ibfhi sf value 1 6 1 94 1 36
 iat testbf ibflo ibfhi sf value 1 7 1 94 1 36
 iat testbf ibflo ibfhi sf value 1 8 1 94 1 36
 iat testbf ibflo ibfhi sf value 1 9 1 94 1 36
 iat testbf ibflo ibfhi sf value 1 10 1 94 1 36
 iat testbf ibflo ibfhi sf value 1 11 1 94 1 36
 iat testbf ibflo ibfhi sf value 1 12 1 94 1 36
 iat testbf ibflo ibfhi sf value 1 13 1 94 1 36
 iat testbf ibflo ibfhi sf value 1 14 1 94 1 36
 iat testbf ibflo ibfhi sf value 1 15 1 94 1 36
 iat testbf ibflo ibfhi sf value 1 1 1 94 1 36
 iat testbf ibflo ibfhi sf value 1 2 1 94 1 36
 iat testbf ibflo ibfhi sf value 1 3 1 94 1 36
 iat testbf ibflo ibfhi sf value 1 4 1 94 1 36
 iat testbf ibflo ibfhi sf value 1 5 1 94 1 36
 iat testbf ibflo ibfhi sf value 1 6 1 94 1 36
 iat testbf ibflo ibfhi sf value 1 7 1 94 1 36
 iat testbf ibflo ibfhi sf value 1 8 1 94 1 36
 iat testbf ibflo ibfhi sf value 1 9 1 94 1 36
 iat testbf ibflo ibfhi sf value 1 10 1 94 1 36
 iat testbf ibflo ibfhi sf value 1 11 1 94 1 36
 iat testbf ibflo ibfhi sf value 1 12 1 94 1 36
 iat testbf ibflo ibfhi sf value 1 13 1 94 1 36
 iat testbf ibflo ibfhi sf value 1 14 1 94 1 36
 iat testbf ibflo ibfhi sf value 1 1 1 94 1 36
 iat testbf ibflo ibfhi sf value 1 1 1 94 1 36
 iat testbf ibflo ibfhi sf value 1 2 1 94 1 36
 iat testbf ibflo ibfhi sf value 1 3 1 94 1 36
 iat testbf ibflo ibfhi sf value 1 4 1 94 1 36
 iat testbf ibflo ibfhi sf value 1 5 1 94 1 36
 iat testbf ibflo ibfhi sf value 1 6 1 94 1 36
 iat testbf ibflo ibfhi sf value 1 1 1 94 1 36
 iat testbf ibflo ibfhi sf value 1 2 1 94 1 36
 iat testbf ibflo ibfhi sf value 1 3 1 94 1 36
 iat testbf ibflo ibfhi sf value 1 4 1 94 1 36
 iat testbf ibflo ibfhi sf value 1 5 1 94 1 36
 iat testbf ibflo ibfhi sf value 1 6 1 94 1 36
 iat testbf ibflo ibfhi sf value 1 7 1 94 1 36
 iat testbf ibflo ibfhi sf value 1 8 1 94 1 36
 iat testbf ibflo ibfhi sf value 1 9 1 94 1 36
 iat testbf ibflo ibfhi sf value 1 10 1 94 1 36
 iat testbf ibflo ibfhi sf value 1 11 1 94 1 36
 iat testbf ibflo ibfhi sf value 1 12 1 94 1 36
 iat testbf ibflo ibfhi sf value 1 13 1 94 1 36
 iat testbf ibflo ibfhi sf value 1 14 1 94 1 36
 iat testbf ibflo ibfhi sf value 1 15 1 94 1 36
 iat testbf ibflo ibfhi sf value 1 16 1 94 1 36
 iat testbf ibflo ibfhi sf value 1 7 1 94 1 36
 iat testbf ibflo ibfhi sf value 1 8 1 94 1 36
 iat testbf ibflo ibfhi sf value 1 9 1 94 1 36
 iat testbf ibflo ibfhi sf value 1 10 1 94 1 36
 iat testbf ibflo ibfhi sf value 1 11 1 94 1 36
 iat testbf ibflo ibfhi sf value 1 12 1 94 1 36
 iat testbf ibflo ibfhi sf value 1 13 1 94 1 36
 iat testbf ibflo ibfhi sf value 1 14 1 94 1 36
 iat testbf ibflo ibfhi sf value 1 15 1 94 1 36
 iat testbf ibflo ibfhi sf value 1 16 1 94 1 36
 iat testbf ibflo ibfhi sf value 1 17 1 94 1 36
 iat testbf ibflo ibfhi sf value 1 18 1 94 1 36
 iat testbf ibflo ibfhi sf value 1 19 1 94 1 36
 iat testbf ibflo ibfhi sf value 1 20 1 94 1 36
 iat testbf ibflo ibfhi sf value 1 21 1 94 1 36
 iat testbf ibflo ibfhi sf value 1 22 1 94 1 36
 iat testbf ibflo ibfhi sf value 1 23 1 94 1 36
 iat testbf ibflo ibfhi sf value 1 11 1 94 1 36
 iat testbf ibflo ibfhi sf value 1 12 1 94 1 36
 iat testbf ibflo ibfhi sf value 1 13 1 94 1 36
 iat testbf ibflo ibfhi sf value 1 14 1 94 1 36
 iat testbf ibflo ibfhi sf value 1 15 1 94 1 36
 iat testbf ibflo ibfhi sf value 1 16 1 94 1 36
 iat testbf ibflo ibfhi sf value 1 17 1 94 1 36
 iat testbf ibflo ibfhi sf value 1 18 1 94 1 36
 iat testbf ibflo ibfhi sf value 1 19 1 94 1 36
 iat testbf ibflo ibfhi sf value 1 20 1 94 1 36
 iat testbf ibflo ibfhi sf value 1 21 1 94 1 36
 iat testbf ibflo ibfhi sf value 1 14 1 94 1 36
 iat testbf ibflo ibfhi sf value 1 15 1 94 1 36
 iat testbf ibflo ibfhi sf value 1 16 1 94 1 36
 iat testbf ibflo ibfhi sf value 1 17 1 94 1 36
 iat testbf ibflo ibfhi sf value 1 18 1 94 1 36
 iat testbf ibflo ibfhi sf value 1 19 1 94 1 36
 iat testbf ibflo ibfhi sf value 1 20 1 94 1 36
 iat testbf ibflo ibfhi sf value 1 21 1 94 1 36
 iat testbf ibflo ibfhi sf value 1 22 1 94 1 36
 iat testbf ibflo ibfhi sf value 1 23 1 94 1 36
 iat testbf ibflo ibfhi sf value 1 24 1 94 1 36
 iat testbf ibflo ibfhi sf value 1 25 1 94 1 36
 iat testbf ibflo ibfhi sf value 1 1 1 94 1 36
 iat testbf ibflo ibfhi sf value 1 2 1 94 1 36
 iat testbf ibflo ibfhi sf value 1 3 1 94 1 36
 iat testbf ibflo ibfhi sf value 1 15 1 94 1 36
 iat testbf ibflo ibfhi sf value 1 16 1 94 1 36
 iat testbf ibflo ibfhi sf value 1 17 1 94 1 36
 iat testbf ibflo ibfhi sf value 1 18 1 94 1 36
 iat testbf ibflo ibfhi sf value 1 19 1 94 1 36
 iat testbf ibflo ibfhi sf value 1 20 1 94 1 36
 iat testbf ibflo ibfhi sf value 1 21 1 94 1 36
 iat testbf ibflo ibfhi sf value 1 22 1 94 1 36
 iat testbf ibflo ibfhi sf value 1 23 1 94 1 36
 iat testbf ibflo ibfhi sf value 1 24 1 94 1 36
 iat testbf ibflo ibfhi sf value 1 25 1 94 1 36
 iat testbf ibflo ibfhi sf value 1 16 1 94 1 36
 iat testbf ibflo ibfhi sf value 1 17 1 94 1 36
 iat testbf ibflo ibfhi sf value 1 18 1 94 1 36
 iat testbf ibflo ibfhi sf value 1 19 1 94 1 36
 iat testbf ibflo ibfhi sf value 1 20 1 94 1 36
 iat testbf ibflo ibfhi sf value 1 21 1 94 1 36
 iat testbf ibflo ibfhi sf value 1 22 1 94 1 36
 iat testbf ibflo ibfhi sf value 1 23 1 94 1 36
 iat testbf ibflo ibfhi sf value 1 24 1 94 1 36
 iat testbf ibflo ibfhi sf value 1 25 1 94 1 36
 iat testbf ibflo ibfhi sf value 1 26 1 94 1 36
 iat testbf ibflo ibfhi sf value 1 1 1 94 1 36
 iat testbf ibflo ibfhi sf value 1 2 1 94 1 36
 iat testbf ibflo ibfhi sf value 1 3 1 94 1 36
 iat testbf ibflo ibfhi sf value 1 4 1 94 1 36
 iat testbf ibflo ibfhi sf value 1 5 1 94 1 36
 iat testbf ibflo ibfhi sf value 1 6 1 94 1 36
 iat testbf ibflo ibfhi sf value 1 1 1 94 1 36
 iat testbf ibflo ibfhi sf value 1 2 1 94 1 36
 iat testbf ibflo ibfhi sf value 1 3 1 94 1 36
 iat testbf ibflo ibfhi sf value 1 4 1 94 1 36
 iat testbf ibflo ibfhi sf value 1 5 1 94 1 36
 iat testbf ibflo ibfhi sf value 1 6 1 94 1 36
 iat testbf ibflo ibfhi sf value 1 7 1 94 1 36
 iat testbf ibflo ibfhi sf value 1 8 1 94 1 36
 iat testbf ibflo ibfhi sf value 1 9 1 94 1 36
 iat testbf ibflo ibfhi sf value 1 10 1 94 1 36
 iat testbf ibflo ibfhi sf value 1 11 1 94 1 36
 iat testbf ibflo ibfhi sf value 1 12 1 94 1 36
 iat testbf ibflo ibfhi sf value 1 17 1 94 1 36
 iat testbf ibflo ibfhi sf value 1 18 1 94 1 36
 iat testbf ibflo ibfhi sf value 1 19 1 94 1 36
 iat testbf ibflo ibfhi sf value 1 20 1 94 1 36
 iat testbf ibflo ibfhi sf value 1 21 1 94 1 36
 iat testbf ibflo ibfhi sf value 1 22 1 94 1 36
 iat testbf ibflo ibfhi sf value 1 23 1 94 1 36
 iat testbf ibflo ibfhi sf value 1 24 1 94 1 36
 iat testbf ibflo ibfhi sf value 1 25 1 94 1 36
 iat testbf ibflo ibfhi sf value 1 26 1 94 1 36
 iat testbf ibflo ibfhi sf value 1 24 1 94 1 36
 iat testbf ibflo ibfhi sf value 1 25 1 94 1 36
 iat testbf ibflo ibfhi sf value 1 26 1 94 1 36
 iat testbf ibflo ibfhi sf value 1 27 1 94 1 36
 iat testbf ibflo ibfhi sf value 1 28 1 94 1 36
 iat testbf ibflo ibfhi sf value 1 29 1 94 1 36
 iat testbf ibflo ibfhi sf value 1 30 1 94 1 36
 iat testbf ibflo ibfhi sf value 1 31 1 94 1 36
 iat testbf ibflo ibfhi sf value 1 32 1 94 1 36
 iat testbf ibflo ibfhi sf value 1 33 1 94 1 36
 iat testbf ibflo ibfhi sf value 1 1 1 94 1 36
 iat testbf ibflo ibfhi sf value 1 2 1 94 1 36
 iat testbf ibflo ibfhi sf value 1 3 1 94 1 36
 iat testbf ibflo ibfhi sf value 1 4 1 94 1 36
 iat testbf ibflo ibfhi sf value 1 5 1 94 1 36
 iat testbf ibflo ibfhi sf value 1 6 1 94 1 36
 iat testbf ibflo ibfhi sf value 1 7 1 94 1 36
 iat testbf ibflo ibfhi sf value 1 1 1 94 1 36
 iat testbf ibflo ibfhi sf value 1 2 1 94 1 36
 iat testbf ibflo ibfhi sf value 1 3 1 94 1 36
 iat testbf ibflo ibfhi sf value 1 4 1 94 1 36
 iat testbf ibflo ibfhi sf value 1 5 1 94 1 36
 iat testbf ibflo ibfhi sf value 1 6 1 94 1 36
 iat testbf ibflo ibfhi sf value 1 7 1 94 1 36
 iat testbf ibflo ibfhi sf value 1 8 1 94 1 36
 iat testbf ibflo ibfhi sf value 1 9 1 94 1 36
 iat testbf ibflo ibfhi sf value 1 10 1 94 1 36
 iat testbf ibflo ibfhi sf value 1 11 1 94 1 36
 iat testbf ibflo ibfhi sf value 1 12 1 94 1 36
 iat testbf ibflo ibfhi sf value 1 22 1 94 1 36
 iat testbf ibflo ibfhi sf value 1 23 1 94 1 36
 iat testbf ibflo ibfhi sf value 1 24 1 94 1 36
 iat testbf ibflo ibfhi sf value 1 25 1 94 1 36
 iat testbf ibflo ibfhi sf value 1 26 1 94 1 36
 iat testbf ibflo ibfhi sf value 1 27 1 94 1 36
 iat testbf ibflo ibfhi sf value 1 28 1 94 1 36
 iat testbf ibflo ibfhi sf value 1 29 1 94 1 36
 iat testbf ibflo ibfhi sf value 1 26 1 94 1 36
 iat testbf ibflo ibfhi sf value 1 27 1 94 1 36
 iat testbf ibflo ibfhi sf value 1 28 1 94 1 36
 iat testbf ibflo ibfhi sf value 1 29 1 94 1 36
 iat testbf ibflo ibfhi sf value 1 30 1 94 1 36
 iat testbf ibflo ibfhi sf value 1 31 1 94 1 36
 iat testbf ibflo ibfhi sf value 1 32 1 94 1 36
 iat testbf ibflo ibfhi sf value 1 33 1 94 1 36
 iat testbf ibflo ibfhi sf value 1 34 1 94 1 36
 iat testbf ibflo ibfhi sf value 1 1 1 94 1 36
 iat testbf ibflo ibfhi sf value 1 1 1 94 1 36
 iat testbf ibflo ibfhi sf value 1 26 1 94 1 36
 iat testbf ibflo ibfhi sf value 1 27 1 94 1 36
 iat testbf ibflo ibfhi sf value 1 28 1 94 1 36
 iat testbf ibflo ibfhi sf value 1 29 1 94 1 36
 iat testbf ibflo ibfhi sf value 1 30 1 94 1 36
 iat testbf ibflo ibfhi sf value 1 31 1 94 1 36
 iat testbf ibflo ibfhi sf value 1 32 1 94 1 36
 iat testbf ibflo ibfhi sf value 1 33 1 94 1 36
 iat testbf ibflo ibfhi sf value 1 34 1 94 1 36
 iat testbf ibflo ibfhi sf value 1 27 1 94 1 36
 iat testbf ibflo ibfhi sf value 1 28 1 94 1 36
 iat testbf ibflo ibfhi sf value 1 29 1 94 1 36
 iat testbf ibflo ibfhi sf value 1 30 1 94 1 36
 iat testbf ibflo ibfhi sf value 1 4 1 94 1 36
 iat testbf ibflo ibfhi sf value 1 5 1 94 1 36
 iat testbf ibflo ibfhi sf value 1 6 1 94 1 36
 iat testbf ibflo ibfhi sf value 1 7 1 94 1 36
 iat testbf ibflo ibfhi sf value 1 8 1 94 1 36
 iat testbf ibflo ibfhi sf value 1 9 1 94 1 36
 iat testbf ibflo ibfhi sf value 1 10 1 94 1 36
 iat testbf ibflo ibfhi sf value 1 11 1 94 1 36
 iat testbf ibflo ibfhi sf value 1 12 1 94 1 36
 iat testbf ibflo ibfhi sf value 1 13 1 94 1 36
 iat testbf ibflo ibfhi sf value 1 14 1 94 1 36
 iat testbf ibflo ibfhi sf value 1 7 1 94 1 36
 iat testbf ibflo ibfhi sf value 1 8 1 94 1 36
 iat testbf ibflo ibfhi sf value 1 9 1 94 1 36
 iat testbf ibflo ibfhi sf value 1 10 1 94 1 36
 iat testbf ibflo ibfhi sf value 1 11 1 94 1 36
 iat testbf ibflo ibfhi sf value 1 12 1 94 1 36
 iat testbf ibflo ibfhi sf value 1 13 1 94 1 36
 iat testbf ibflo ibfhi sf value 1 14 1 94 1 36
 iat testbf ibflo ibfhi sf value 1 15 1 94 1 36
 iat testbf ibflo ibfhi sf value 1 16 1 94 1 36
 iat testbf ibflo ibfhi sf value 1 17 1 94 1 36
 iat testbf ibflo ibfhi sf value 1 18 1 94 1 36
 iat testbf ibflo ibfhi sf value 1 19 1 94 1 36
 iat testbf ibflo ibfhi sf value 1 20 1 94 1 36
 iat testbf ibflo ibfhi sf value 1 21 1 94 1 36
 iat testbf ibflo ibfhi sf value 1 22 1 94 1 36
 iat testbf ibflo ibfhi sf value 1 27 1 94 1 36
 iat testbf ibflo ibfhi sf value 1 28 1 94 1 36
 iat testbf ibflo ibfhi sf value 1 29 1 94 1 36
 iat testbf ibflo ibfhi sf value 1 30 1 94 1 36
 iat testbf ibflo ibfhi sf value 1 31 1 94 1 36
 iat testbf ibflo ibfhi sf value 1 32 1 94 1 36
 iat testbf ibflo ibfhi sf value 1 33 1 94 1 36
 iat testbf ibflo ibfhi sf value 1 34 1 94 1 36
 iat testbf ibflo ibfhi sf value 1 35 1 94 1 36
 iat testbf ibflo ibfhi sf value 1 34 1 94 1 36
 iat testbf ibflo ibfhi sf value 1 35 1 94 1 36
 iat testbf ibflo ibfhi sf value 1 36 1 94 1 36
 iat testbf ibflo ibfhi sf value 1 37 1 94 1 36
 iat testbf ibflo ibfhi sf value 1 38 1 94 1 36
 iat testbf ibflo ibfhi sf value 1 39 1 94 1 36
 iat testbf ibflo ibfhi sf value 1 40 1 94 1 36
 iat testbf ibflo ibfhi sf value 1 41 1 94 1 36
 iat testbf ibflo ibfhi sf value 1 7 1 94 1 36
 iat testbf ibflo ibfhi sf value 1 8 1 94 1 36
 iat testbf ibflo ibfhi sf value 1 9 1 94 1 36
 iat testbf ibflo ibfhi sf value 1 10 1 94 1 36
 iat testbf ibflo ibfhi sf value 1 11 1 94 1 36
 iat testbf ibflo ibfhi sf value 1 12 1 94 1 36
 iat testbf ibflo ibfhi sf value 1 13 1 94 1 36
 iat testbf ibflo ibfhi sf value 1 14 1 94 1 36
 iat testbf ibflo ibfhi sf value 1 15 1 94 1 36
 iat testbf ibflo ibfhi sf value 1 16 1 94 1 36
 iat testbf ibflo ibfhi sf value 1 13 1 94 1 36
 iat testbf ibflo ibfhi sf value 1 14 1 94 1 36
 iat testbf ibflo ibfhi sf value 1 15 1 94 1 36
 iat testbf ibflo ibfhi sf value 1 16 1 94 1 36
 iat testbf ibflo ibfhi sf value 1 17 1 94 1 36
 iat testbf ibflo ibfhi sf value 1 18 1 94 1 36
 iat testbf ibflo ibfhi sf value 1 19 1 94 1 36
 iat testbf ibflo ibfhi sf value 1 20 1 94 1 36
 iat testbf ibflo ibfhi sf value 1 21 1 94 1 36
 iat testbf ibflo ibfhi sf value 1 22 1 94 1 36
 iat testbf ibflo ibfhi sf value 1 23 1 94 1 36
 iat testbf ibflo ibfhi sf value 1 24 1 94 1 36
 iat testbf ibflo ibfhi sf value 1 30 1 94 1 36
 iat testbf ibflo ibfhi sf value 1 31 1 94 1 36
 iat testbf ibflo ibfhi sf value 1 32 1 94 1 36
 iat testbf ibflo ibfhi sf value 1 33 1 94 1 36
 iat testbf ibflo ibfhi sf value 1 34 1 94 1 36
 iat testbf ibflo ibfhi sf value 1 35 1 94 1 36
 iat testbf ibflo ibfhi sf value 1 36 1 94 1 36
 iat testbf ibflo ibfhi sf value 1 37 1 94 1 36
 iat testbf ibflo ibfhi sf value 1 38 1 94 1 36
 iat testbf ibflo ibfhi sf value 1 35 1 94 1 36
 iat testbf ibflo ibfhi sf value 1 36 1 94 1 36
 iat testbf ibflo ibfhi sf value 1 37 1 94 1 36
 iat testbf ibflo ibfhi sf value 1 38 1 94 1 36
 iat testbf ibflo ibfhi sf value 1 39 1 94 1 36
 iat testbf ibflo ibfhi sf value 1 40 1 94 1 36
 iat testbf ibflo ibfhi sf value 1 41 1 94 1 36
 iat testbf ibflo ibfhi sf value 1 42 1 94 1 36
 iat testbf ibflo ibfhi sf value 1 43 1 94 1 36
 iat testbf ibflo ibfhi sf value 1 8 1 94 1 36
 iat testbf ibflo ibfhi sf value 1 9 1 94 1 36
 iat testbf ibflo ibfhi sf value 1 10 1 94 1 36
 iat testbf ibflo ibfhi sf value 1 11 1 94 1 36
 iat testbf ibflo ibfhi sf value 1 12 1 94 1 36
 iat testbf ibflo ibfhi sf value 1 13 1 94 1 36
 iat testbf ibflo ibfhi sf value 1 14 1 94 1 36
 iat testbf ibflo ibfhi sf value 1 15 1 94 1 36
 iat testbf ibflo ibfhi sf value 1 16 1 94 1 36
 iat testbf ibflo ibfhi sf value 1 17 1 94 1 36
 iat testbf ibflo ibfhi sf value 1 13 1 94 1 36
 iat testbf ibflo ibfhi sf value 1 14 1 94 1 36
 iat testbf ibflo ibfhi sf value 1 15 1 94 1 36
 iat testbf ibflo ibfhi sf value 1 16 1 94 1 36
 iat testbf ibflo ibfhi sf value 1 17 1 94 1 36
 iat testbf ibflo ibfhi sf value 1 18 1 94 1 36
 iat testbf ibflo ibfhi sf value 1 19 1 94 1 36
 iat testbf ibflo ibfhi sf value 1 20 1 94 1 36
 iat testbf ibflo ibfhi sf value 1 21 1 94 1 36
 iat testbf ibflo ibfhi sf value 1 22 1 94 1 36
 iat testbf ibflo ibfhi sf value 1 23 1 94 1 36
 iat testbf ibflo ibfhi sf value 1 24 1 94 1 36
 iat testbf ibflo ibfhi sf value 1 35 1 94 1 36
 iat testbf ibflo ibfhi sf value 1 36 1 94 1 36
 iat testbf ibflo ibfhi sf value 1 37 1 94 1 36
 iat testbf ibflo ibfhi sf value 1 38 1 94 1 36
 iat testbf ibflo ibfhi sf value 1 39 1 94 1 36
 iat testbf ibflo ibfhi sf value 1 40 1 94 1 36
 iat testbf ibflo ibfhi sf value 1 41 1 94 1 36
 iat testbf ibflo ibfhi sf value 1 42 1 94 1 36
 iat testbf ibflo ibfhi sf value 1 43 1 94 1 36
 iat testbf ibflo ibfhi sf value 1 44 1 94 1 36
 iat testbf ibflo ibfhi sf value 1 31 1 94 1 36
 iat testbf ibflo ibfhi sf value 1 32 1 94 1 36
 iat testbf ibflo ibfhi sf value 1 33 1 94 1 36
 iat testbf ibflo ibfhi sf value 1 34 1 94 1 36
 iat testbf ibflo ibfhi sf value 1 35 1 94 1 36
 iat testbf ibflo ibfhi sf value 1 36 1 94 1 36
 iat testbf ibflo ibfhi sf value 1 37 1 94 1 36
 iat testbf ibflo ibfhi sf value 1 38 1 94 1 36
 iat testbf ibflo ibfhi sf value 1 15 1 94 1 36
 iat testbf ibflo ibfhi sf value 1 16 1 94 1 36
 iat testbf ibflo ibfhi sf value 1 17 1 94 1 36
 iat testbf ibflo ibfhi sf value 1 18 1 94 1 36
 iat testbf ibflo ibfhi sf value 1 19 1 94 1 36
 iat testbf ibflo ibfhi sf value 1 20 1 94 1 36
 iat testbf ibflo ibfhi sf value 1 21 1 94 1 36
 iat testbf ibflo ibfhi sf value 1 22 1 94 1 36
 iat testbf ibflo ibfhi sf value 1 23 1 94 1 36
 iat testbf ibflo ibfhi sf value 1 24 1 94 1 36
 iat testbf ibflo ibfhi sf value 1 25 1 94 1 36
 iat testbf ibflo ibfhi sf value 1 26 1 94 1 36
 iat testbf ibflo ibfhi sf value 1 27 1 94 1 36
 iat testbf ibflo ibfhi sf value 1 28 1 94 1 36
 iat testbf ibflo ibfhi sf value 1 29 1 94 1 36
 iat testbf ibflo ibfhi sf value 1 30 1 94 1 36
 iat testbf ibflo ibfhi sf value 1 31 1 94 1 36
 iat testbf ibflo ibfhi sf value 1 36 1 94 1 36
 iat testbf ibflo ibfhi sf value 1 37 1 94 1 36
 iat testbf ibflo ibfhi sf value 1 38 1 94 1 36
 iat testbf ibflo ibfhi sf value 1 39 1 94 1 36
 iat testbf ibflo ibfhi sf value 1 40 1 94 1 36
 iat testbf ibflo ibfhi sf value 1 41 1 94 1 36
 iat testbf ibflo ibfhi sf value 1 42 1 94 1 36
 iat testbf ibflo ibfhi sf value 1 43 1 94 1 36
 iat testbf ibflo ibfhi sf value 1 44 1 94 1 36
 iat testbf ibflo ibfhi sf value 1 45 1 94 1 36
 iat testbf ibflo ibfhi sf value 1 42 1 94 1 36
 iat testbf ibflo ibfhi sf value 1 43 1 94 1 36
 iat testbf ibflo ibfhi sf value 1 44 1 94 1 36
 iat testbf ibflo ibfhi sf value 1 45 1 94 1 36
 iat testbf ibflo ibfhi sf value 1 46 1 94 1 36
 iat testbf ibflo ibfhi sf value 1 47 1 94 1 36
 iat testbf ibflo ibfhi sf value 1 48 1 94 1 36
 iat testbf ibflo ibfhi sf value 1 49 1 94 1 36
 iat testbf ibflo ibfhi sf value 1 50 1 94 1 36
 iat testbf ibflo ibfhi sf value 1 17 1 94 1 36
 iat testbf ibflo ibfhi sf value 1 18 1 94 1 36
 iat testbf ibflo ibfhi sf value 1 19 1 94 1 36
 iat testbf ibflo ibfhi sf value 1 20 1 94 1 36
 iat testbf ibflo ibfhi sf value 1 21 1 94 1 36
 iat testbf ibflo ibfhi sf value 1 22 1 94 1 36
 iat testbf ibflo ibfhi sf value 1 23 1 94 1 36
 iat testbf ibflo ibfhi sf value 1 24 1 94 1 36
 iat testbf ibflo ibfhi sf value 1 25 1 94 1 36
 iat testbf ibflo ibfhi sf value 1 25 1 94 1 36
 iat testbf ibflo ibfhi sf value 1 26 1 94 1 36
 iat testbf ibflo ibfhi sf value 1 27 1 94 1 36
 iat testbf ibflo ibfhi sf value 1 28 1 94 1 36
 iat testbf ibflo ibfhi sf value 1 29 1 94 1 36
 iat testbf ibflo ibfhi sf value 1 30 1 94 1 36
 iat testbf ibflo ibfhi sf value 1 31 1 94 1 36
 iat testbf ibflo ibfhi sf value 1 32 1 94 1 36
 iat testbf ibflo ibfhi sf value 1 33 1 94 1 36
 iat testbf ibflo ibfhi sf value 1 39 1 94 1 36
 iat testbf ibflo ibfhi sf value 1 40 1 94 1 36
 iat testbf ibflo ibfhi sf value 1 41 1 94 1 36
 iat testbf ibflo ibfhi sf value 1 42 1 94 1 36
 iat testbf ibflo ibfhi sf value 1 43 1 94 1 36
 iat testbf ibflo ibfhi sf value 1 44 1 94 1 36
 iat testbf ibflo ibfhi sf value 1 45 1 94 1 36
 iat testbf ibflo ibfhi sf value 1 46 1 94 1 36
 iat testbf ibflo ibfhi sf value 1 47 1 94 1 36
 iat testbf ibflo ibfhi sf value 1 44 1 94 1 36
 iat testbf ibflo ibfhi sf value 1 45 1 94 1 36
 iat testbf ibflo ibfhi sf value 1 46 1 94 1 36
 iat testbf ibflo ibfhi sf value 1 47 1 94 1 36
 iat testbf ibflo ibfhi sf value 1 48 1 94 1 36
 iat testbf ibflo ibfhi sf value 1 49 1 94 1 36
 iat testbf ibflo ibfhi sf value 1 50 1 94 1 36
 iat testbf ibflo ibfhi sf value 1 51 1 94 1 36
 iat testbf ibflo ibfhi sf value 1 52 1 94 1 36
 iat testbf ibflo ibfhi sf value 1 18 1 94 1 36
 iat testbf ibflo ibfhi sf value 1 19 1 94 1 36
 iat testbf ibflo ibfhi sf value 1 20 1 94 1 36
 iat testbf ibflo ibfhi sf value 1 21 1 94 1 36
 iat testbf ibflo ibfhi sf value 1 22 1 94 1 36
 iat testbf ibflo ibfhi sf value 1 23 1 94 1 36
 iat testbf ibflo ibfhi sf value 1 24 1 94 1 36
 iat testbf ibflo ibfhi sf value 1 25 1 94 1 36
 iat testbf ibflo ibfhi sf value 1 26 1 94 1 36
 iat testbf ibflo ibfhi sf value 1 25 1 94 1 36
 iat testbf ibflo ibfhi sf value 1 26 1 94 1 36
 iat testbf ibflo ibfhi sf value 1 27 1 94 1 36
 iat testbf ibflo ibfhi sf value 1 28 1 94 1 36
 iat testbf ibflo ibfhi sf value 1 29 1 94 1 36
 iat testbf ibflo ibfhi sf value 1 30 1 94 1 36
 iat testbf ibflo ibfhi sf value 1 31 1 94 1 36
 iat testbf ibflo ibfhi sf value 1 32 1 94 1 36
 iat testbf ibflo ibfhi sf value 1 33 1 94 1 36
 iat testbf ibflo ibfhi sf value 1 45 1 94 1 36
 iat testbf ibflo ibfhi sf value 1 46 1 94 1 36
 iat testbf ibflo ibfhi sf value 1 47 1 94 1 36
 iat testbf ibflo ibfhi sf value 1 48 1 94 1 36
 iat testbf ibflo ibfhi sf value 1 49 1 94 1 36
 iat testbf ibflo ibfhi sf value 1 50 1 94 1 36
 iat testbf ibflo ibfhi sf value 1 51 1 94 1 36
 iat testbf ibflo ibfhi sf value 1 52 1 94 1 36
 iat testbf ibflo ibfhi sf value 1 53 1 94 1 36
 iat testbf ibflo ibfhi sf value 1 39 1 94 1 36
 iat testbf ibflo ibfhi sf value 1 40 1 94 1 36
 iat testbf ibflo ibfhi sf value 1 41 1 94 1 36
 iat testbf ibflo ibfhi sf value 1 42 1 94 1 36
 iat testbf ibflo ibfhi sf value 1 43 1 94 1 36
 iat testbf ibflo ibfhi sf value 1 44 1 94 1 36
 iat testbf ibflo ibfhi sf value 1 45 1 94 1 36
 iat testbf ibflo ibfhi sf value 1 46 1 94 1 36
 iat testbf ibflo ibfhi sf value 1 47 1 94 1 36
 iat testbf ibflo ibfhi sf value 1 23 1 94 1 36
 iat testbf ibflo ibfhi sf value 1 24 1 94 1 36
 iat testbf ibflo ibfhi sf value 1 25 1 94 1 36
 iat testbf ibflo ibfhi sf value 1 26 1 94 1 36
 iat testbf ibflo ibfhi sf value 1 27 1 94 1 36
 iat testbf ibflo ibfhi sf value 1 28 1 94 1 36
 iat testbf ibflo ibfhi sf value 1 29 1 94 1 36
 iat testbf ibflo ibfhi sf value 1 30 1 94 1 36
 iat testbf ibflo ibfhi sf value 1 31 1 94 1 36
 iat testbf ibflo ibfhi sf value 1 32 1 94 1 36
 iat testbf ibflo ibfhi sf value 1 33 1 94 1 36
 iat testbf ibflo ibfhi sf value 1 34 1 94 1 36
 iat testbf ibflo ibfhi sf value 1 35 1 94 1 36
 iat testbf ibflo ibfhi sf value 1 36 1 94 1 36
 iat testbf ibflo ibfhi sf value 1 37 1 94 1 36
 iat testbf ibflo ibfhi sf value 1 38 1 94 1 36
 iat testbf ibflo ibfhi sf value 1 39 1 94 1 36
 iat testbf ibflo ibfhi sf value 1 40 1 94 1 36
 iat testbf ibflo ibfhi sf value 1 46 1 94 1 36
 iat testbf ibflo ibfhi sf value 1 47 1 94 1 36
 iat testbf ibflo ibfhi sf value 1 48 1 94 1 36
 iat testbf ibflo ibfhi sf value 1 49 1 94 1 36
 iat testbf ibflo ibfhi sf value 1 50 1 94 1 36
 iat testbf ibflo ibfhi sf value 1 51 1 94 1 36
 iat testbf ibflo ibfhi sf value 1 52 1 94 1 36
 iat testbf ibflo ibfhi sf value 1 53 1 94 1 36
 iat testbf ibflo ibfhi sf value 1 54 1 94 1 36
 iat testbf ibflo ibfhi sf value 1 51 1 94 1 36
 iat testbf ibflo ibfhi sf value 1 52 1 94 1 36
 iat testbf ibflo ibfhi sf value 1 53 1 94 1 36
 iat testbf ibflo ibfhi sf value 1 54 1 94 1 36
 iat testbf ibflo ibfhi sf value 1 55 1 94 1 36
 iat testbf ibflo ibfhi sf value 1 56 1 94 1 36
 iat testbf ibflo ibfhi sf value 1 57 1 94 1 36
 iat testbf ibflo ibfhi sf value 1 58 1 94 1 36
 iat testbf ibflo ibfhi sf value 1 59 1 94 1 36
 iat testbf ibflo ibfhi sf value 1 26 1 94 1 36
 iat testbf ibflo ibfhi sf value 1 27 1 94 1 36
 iat testbf ibflo ibfhi sf value 1 28 1 94 1 36
 iat testbf ibflo ibfhi sf value 1 29 1 94 1 36
 iat testbf ibflo ibfhi sf value 1 30 1 94 1 36
 iat testbf ibflo ibfhi sf value 1 31 1 94 1 36
 iat testbf ibflo ibfhi sf value 1 32 1 94 1 36
 iat testbf ibflo ibfhi sf value 1 33 1 94 1 36
 iat testbf ibflo ibfhi sf value 1 34 1 94 1 36
 iat testbf ibflo ibfhi sf value 1 34 1 94 1 36
 iat testbf ibflo ibfhi sf value 1 35 1 94 1 36
 iat testbf ibflo ibfhi sf value 1 36 1 94 1 36
 iat testbf ibflo ibfhi sf value 1 37 1 94 1 36
 iat testbf ibflo ibfhi sf value 1 38 1 94 1 36
 iat testbf ibflo ibfhi sf value 1 39 1 94 1 36
 iat testbf ibflo ibfhi sf value 1 40 1 94 1 36
 iat testbf ibflo ibfhi sf value 1 41 1 94 1 36
 iat testbf ibflo ibfhi sf value 1 42 1 94 1 36
 iat testbf ibflo ibfhi sf value 1 48 1 94 1 36
 iat testbf ibflo ibfhi sf value 1 49 1 94 1 36
 iat testbf ibflo ibfhi sf value 1 50 1 94 1 36
 iat testbf ibflo ibfhi sf value 1 51 1 94 1 36
 iat testbf ibflo ibfhi sf value 1 52 1 94 1 36
 iat testbf ibflo ibfhi sf value 1 53 1 94 1 36
 iat testbf ibflo ibfhi sf value 1 54 1 94 1 36
 iat testbf ibflo ibfhi sf value 1 55 1 94 1 36
 iat testbf ibflo ibfhi sf value 1 56 1 94 1 36
 iat testbf ibflo ibfhi sf value 1 53 1 94 1 36
 iat testbf ibflo ibfhi sf value 1 54 1 94 1 36
 iat testbf ibflo ibfhi sf value 1 55 1 94 1 36
 iat testbf ibflo ibfhi sf value 1 56 1 94 1 36
 iat testbf ibflo ibfhi sf value 1 57 1 94 1 36
 iat testbf ibflo ibfhi sf value 1 58 1 94 1 36
 iat testbf ibflo ibfhi sf value 1 59 1 94 1 36
 iat testbf ibflo ibfhi sf value 1 60 1 94 1 36
 iat testbf ibflo ibfhi sf value 1 61 1 94 1 36
 iat testbf ibflo ibfhi sf value 1 27 1 94 1 36
 iat testbf ibflo ibfhi sf value 1 28 1 94 1 36
 iat testbf ibflo ibfhi sf value 1 29 1 94 1 36
 iat testbf ibflo ibfhi sf value 1 30 1 94 1 36
 iat testbf ibflo ibfhi sf value 1 31 1 94 1 36
 iat testbf ibflo ibfhi sf value 1 32 1 94 1 36
 iat testbf ibflo ibfhi sf value 1 33 1 94 1 36
 iat testbf ibflo ibfhi sf value 1 34 1 94 1 36
 iat testbf ibflo ibfhi sf value 1 35 1 94 1 36
 iat testbf ibflo ibfhi sf value 1 34 1 94 1 36
 iat testbf ibflo ibfhi sf value 1 35 1 94 1 36
 iat testbf ibflo ibfhi sf value 1 36 1 94 1 36
 iat testbf ibflo ibfhi sf value 1 37 1 94 1 36
 iat testbf ibflo ibfhi sf value 1 38 1 94 1 36
 iat testbf ibflo ibfhi sf value 1 39 1 94 1 36
 iat testbf ibflo ibfhi sf value 1 40 1 94 1 36
 iat testbf ibflo ibfhi sf value 1 41 1 94 1 36
 iat testbf ibflo ibfhi sf value 1 42 1 94 1 36
 iat testbf ibflo ibfhi sf value 1 54 1 94 1 36
 iat testbf ibflo ibfhi sf value 1 55 1 94 1 36
 iat testbf ibflo ibfhi sf value 1 56 1 94 1 36
 iat testbf ibflo ibfhi sf value 1 57 1 94 1 36
 iat testbf ibflo ibfhi sf value 1 58 1 94 1 36
 iat testbf ibflo ibfhi sf value 1 59 1 94 1 36
 iat testbf ibflo ibfhi sf value 1 60 1 94 1 36
 iat testbf ibflo ibfhi sf value 1 61 1 94 1 36
 iat testbf ibflo ibfhi sf value 1 62 1 94 1 36
 iat testbf ibflo ibfhi sf value 1 63 1 94 1 36
 iat testbf ibflo ibfhi sf value 1 48 1 94 1 36
 iat testbf ibflo ibfhi sf value 1 49 1 94 1 36
 iat testbf ibflo ibfhi sf value 1 50 1 94 1 36
 iat testbf ibflo ibfhi sf value 1 51 1 94 1 36
 iat testbf ibflo ibfhi sf value 1 52 1 94 1 36
 iat testbf ibflo ibfhi sf value 1 53 1 94 1 36
 iat testbf ibflo ibfhi sf value 1 54 1 94 1 36
 iat testbf ibflo ibfhi sf value 1 55 1 94 1 36
 iat testbf ibflo ibfhi sf value 1 56 1 94 1 36
 iat testbf ibflo ibfhi sf value 1 32 1 94 1 36
 iat testbf ibflo ibfhi sf value 1 33 1 94 1 36
 iat testbf ibflo ibfhi sf value 1 34 1 94 1 36
 iat testbf ibflo ibfhi sf value 1 35 1 94 1 36
 iat testbf ibflo ibfhi sf value 1 36 1 94 1 36
 iat testbf ibflo ibfhi sf value 1 37 1 94 1 36
 iat testbf ibflo ibfhi sf value 1 38 1 94 1 36
 iat testbf ibflo ibfhi sf value 1 39 1 94 1 36
 iat testbf ibflo ibfhi sf value 1 41 1 94 1 36
 iat testbf ibflo ibfhi sf value 1 42 1 94 1 36
 iat testbf ibflo ibfhi sf value 1 43 1 94 1 36
 iat testbf ibflo ibfhi sf value 1 44 1 94 1 36
 iat testbf ibflo ibfhi sf value 1 45 1 94 1 36
 iat testbf ibflo ibfhi sf value 1 46 1 94 1 36
 iat testbf ibflo ibfhi sf value 1 47 1 94 1 36
 iat testbf ibflo ibfhi sf value 1 48 1 94 1 36
 iat testbf ibflo ibfhi sf value 1 49 1 94 1 36
 iat testbf ibflo ibfhi sf value 1 50 1 94 1 36
 iat testbf ibflo ibfhi sf value 1 51 1 94 1 36
 iat testbf ibflo ibfhi sf value 1 55 1 94 1 36
 iat testbf ibflo ibfhi sf value 1 56 1 94 1 36
 iat testbf ibflo ibfhi sf value 1 57 1 94 1 36
 iat testbf ibflo ibfhi sf value 1 58 1 94 1 36
 iat testbf ibflo ibfhi sf value 1 59 1 94 1 36
 iat testbf ibflo ibfhi sf value 1 60 1 94 1 36
 iat testbf ibflo ibfhi sf value 1 61 1 94 1 36
 iat testbf ibflo ibfhi sf value 1 62 1 94 1 36
 iat testbf ibflo ibfhi sf value 1 63 1 94 1 36
 iat testbf ibflo ibfhi sf value 1 60 1 94 1 36
 iat testbf ibflo ibfhi sf value 1 61 1 94 1 36
 iat testbf ibflo ibfhi sf value 1 62 1 94 1 36
 iat testbf ibflo ibfhi sf value 1 63 1 94 1 36
 iat testbf ibflo ibfhi sf value 1 64 1 94 1 36
 iat testbf ibflo ibfhi sf value 1 65 1 94 1 36
 iat testbf ibflo ibfhi sf value 1 66 1 94 1 36
 iat testbf ibflo ibfhi sf value 1 67 1 94 1 36
 iat testbf ibflo ibfhi sf value 1 68 1 94 1 36
 iat testbf ibflo ibfhi sf value 1 35 1 94 1 36
 iat testbf ibflo ibfhi sf value 1 36 1 94 1 36
 iat testbf ibflo ibfhi sf value 1 37 1 94 1 36
 iat testbf ibflo ibfhi sf value 1 38 1 94 1 36
 iat testbf ibflo ibfhi sf value 1 39 1 94 1 36
 iat testbf ibflo ibfhi sf value 1 40 1 94 1 36
 iat testbf ibflo ibfhi sf value 1 41 1 94 1 36
 iat testbf ibflo ibfhi sf value 1 42 1 94 1 36
 iat testbf ibflo ibfhi sf value 1 43 1 94 1 36
 iat testbf ibflo ibfhi sf value 1 44 1 94 1 36
 iat testbf ibflo ibfhi sf value 1 45 1 94 1 36
 iat testbf ibflo ibfhi sf value 1 46 1 94 1 36
 iat testbf ibflo ibfhi sf value 1 47 1 94 1 36
 iat testbf ibflo ibfhi sf value 1 48 1 94 1 36
 iat testbf ibflo ibfhi sf value 1 49 1 94 1 36
 iat testbf ibflo ibfhi sf value 1 50 1 94 1 36
 iat testbf ibflo ibfhi sf value 1 51 1 94 1 36
 iat testbf ibflo ibfhi sf value 1 52 1 94 1 36
 iat testbf ibflo ibfhi sf value 1 53 1 94 1 36
 iat testbf ibflo ibfhi sf value 1 57 1 94 1 36
 iat testbf ibflo ibfhi sf value 1 58 1 94 1 36
 iat testbf ibflo ibfhi sf value 1 59 1 94 1 36
 iat testbf ibflo ibfhi sf value 1 60 1 94 1 36
 iat testbf ibflo ibfhi sf value 1 61 1 94 1 36
 iat testbf ibflo ibfhi sf value 1 62 1 94 1 36
 iat testbf ibflo ibfhi sf value 1 63 1 94 1 36
 iat testbf ibflo ibfhi sf value 1 64 1 94 1 36
 iat testbf ibflo ibfhi sf value 1 65 1 94 1 36
 iat testbf ibflo ibfhi sf value 1 62 1 94 1 36
 iat testbf ibflo ibfhi sf value 1 63 1 94 1 36
 iat testbf ibflo ibfhi sf value 1 64 1 94 1 36
 iat testbf ibflo ibfhi sf value 1 65 1 94 1 36
 iat testbf ibflo ibfhi sf value 1 66 1 94 1 36
 iat testbf ibflo ibfhi sf value 1 67 1 94 1 36
 iat testbf ibflo ibfhi sf value 1 68 1 94 1 36
 iat testbf ibflo ibfhi sf value 1 69 1 94 1 36
 iat testbf ibflo ibfhi sf value 1 70 1 94 1 36
 iat testbf ibflo ibfhi sf value 1 36 1 94 1 36
 iat testbf ibflo ibfhi sf value 1 37 1 94 1 36
 iat testbf ibflo ibfhi sf value 1 38 1 94 1 36
 iat testbf ibflo ibfhi sf value 1 39 1 94 1 36
 iat testbf ibflo ibfhi sf value 1 40 1 94 1 36
 iat testbf ibflo ibfhi sf value 1 41 1 94 1 36
 iat testbf ibflo ibfhi sf value 1 42 1 94 1 36
 iat testbf ibflo ibfhi sf value 1 43 1 94 1 36
 iat testbf ibflo ibfhi sf value 1 44 1 94 1 36
 iat testbf ibflo ibfhi sf value 1 43 1 94 1 36
 iat testbf ibflo ibfhi sf value 1 44 1 94 1 36
 iat testbf ibflo ibfhi sf value 1 45 1 94 1 36
 iat testbf ibflo ibfhi sf value 1 46 1 94 1 36
 iat testbf ibflo ibfhi sf value 1 47 1 94 1 36
 iat testbf ibflo ibfhi sf value 1 48 1 94 1 36
 iat testbf ibflo ibfhi sf value 1 49 1 94 1 36
 iat testbf ibflo ibfhi sf value 1 50 1 94 1 36
 iat testbf ibflo ibfhi sf value 1 51 1 94 1 36
 iat testbf ibflo ibfhi sf value 1 52 1 94 1 36
 iat testbf ibflo ibfhi sf value 1 53 1 94 1 36
 iat testbf ibflo ibfhi sf value 1 64 1 94 1 36
 iat testbf ibflo ibfhi sf value 1 65 1 94 1 36
 iat testbf ibflo ibfhi sf value 1 66 1 94 1 36
 iat testbf ibflo ibfhi sf value 1 67 1 94 1 36
 iat testbf ibflo ibfhi sf value 1 68 1 94 1 36
 iat testbf ibflo ibfhi sf value 1 69 1 94 1 36
 iat testbf ibflo ibfhi sf value 1 70 1 94 1 36
 iat testbf ibflo ibfhi sf value 1 71 1 94 1 36
 iat testbf ibflo ibfhi sf value 1 72 1 94 1 36
 iat testbf ibflo ibfhi sf value 1 57 1 94 1 36
 iat testbf ibflo ibfhi sf value 1 58 1 94 1 36
 iat testbf ibflo ibfhi sf value 1 59 1 94 1 36
 iat testbf ibflo ibfhi sf value 1 60 1 94 1 36
 iat testbf ibflo ibfhi sf value 1 61 1 94 1 36
 iat testbf ibflo ibfhi sf value 1 62 1 94 1 36
 iat testbf ibflo ibfhi sf value 1 63 1 94 1 36
 iat testbf ibflo ibfhi sf value 1 64 1 94 1 36
 iat testbf ibflo ibfhi sf value 1 65 1 94 1 36
 iat testbf ibflo ibfhi sf value 1 40 1 94 1 36
 iat testbf ibflo ibfhi sf value 1 41 1 94 1 36
 iat testbf ibflo ibfhi sf value 1 42 1 94 1 36
 iat testbf ibflo ibfhi sf value 1 43 1 94 1 36
 iat testbf ibflo ibfhi sf value 1 44 1 94 1 36
 iat testbf ibflo ibfhi sf value 1 45 1 94 1 36
 iat testbf ibflo ibfhi sf value 1 46 1 94 1 36
 iat testbf ibflo ibfhi sf value 1 47 1 94 1 36
 iat testbf ibflo ibfhi sf value 1 48 1 94 1 36
 iat testbf ibflo ibfhi sf value 1 52 1 94 1 36
 iat testbf ibflo ibfhi sf value 1 53 1 94 1 36
 iat testbf ibflo ibfhi sf value 1 54 1 94 1 36
 iat testbf ibflo ibfhi sf value 1 55 1 94 1 36
 iat testbf ibflo ibfhi sf value 1 56 1 94 1 36
 iat testbf ibflo ibfhi sf value 1 57 1 94 1 36
 iat testbf ibflo ibfhi sf value 1 58 1 94 1 36
 iat testbf ibflo ibfhi sf value 1 59 1 94 1 36
 iat testbf ibflo ibfhi sf value 1 60 1 94 1 36
 iat testbf ibflo ibfhi sf value 1 64 1 94 1 36
 iat testbf ibflo ibfhi sf value 1 65 1 94 1 36
 iat testbf ibflo ibfhi sf value 1 66 1 94 1 36
 iat testbf ibflo ibfhi sf value 1 67 1 94 1 36
 iat testbf ibflo ibfhi sf value 1 68 1 94 1 36
 iat testbf ibflo ibfhi sf value 1 69 1 94 1 36
 iat testbf ibflo ibfhi sf value 1 70 1 94 1 36
 iat testbf ibflo ibfhi sf value 1 71 1 94 1 36
 iat testbf ibflo ibfhi sf value 1 72 1 94 1 36
 iat testbf ibflo ibfhi sf value 1 69 1 94 1 36
 iat testbf ibflo ibfhi sf value 1 70 1 94 1 36
 iat testbf ibflo ibfhi sf value 1 71 1 94 1 36
 iat testbf ibflo ibfhi sf value 1 72 1 94 1 36
 iat testbf ibflo ibfhi sf value 1 73 1 94 1 36
 iat testbf ibflo ibfhi sf value 1 74 1 94 1 36
 iat testbf ibflo ibfhi sf value 1 75 1 94 1 36
 iat testbf ibflo ibfhi sf value 1 76 1 94 1 36
 iat testbf ibflo ibfhi sf value 1 77 1 94 1 36
 iat testbf ibflo ibfhi sf value 1 43 1 94 1 36
 iat testbf ibflo ibfhi sf value 1 44 1 94 1 36
 iat testbf ibflo ibfhi sf value 1 45 1 94 1 36
 iat testbf ibflo ibfhi sf value 1 46 1 94 1 36
 iat testbf ibflo ibfhi sf value 1 47 1 94 1 36
 iat testbf ibflo ibfhi sf value 1 48 1 94 1 36
 iat testbf ibflo ibfhi sf value 1 49 1 94 1 36
 iat testbf ibflo ibfhi sf value 1 50 1 94 1 36
 iat testbf ibflo ibfhi sf value 1 51 1 94 1 36
 iat testbf ibflo ibfhi sf value 1 54 1 94 1 36
 iat testbf ibflo ibfhi sf value 1 55 1 94 1 36
 iat testbf ibflo ibfhi sf value 1 56 1 94 1 36
 iat testbf ibflo ibfhi sf value 1 57 1 94 1 36
 iat testbf ibflo ibfhi sf value 1 58 1 94 1 36
 iat testbf ibflo ibfhi sf value 1 59 1 94 1 36
 iat testbf ibflo ibfhi sf value 1 60 1 94 1 36
 iat testbf ibflo ibfhi sf value 1 61 1 94 1 36
 iat testbf ibflo ibfhi sf value 1 62 1 94 1 36
 iat testbf ibflo ibfhi sf value 1 66 1 94 1 36
 iat testbf ibflo ibfhi sf value 1 67 1 94 1 36
 iat testbf ibflo ibfhi sf value 1 68 1 94 1 36
 iat testbf ibflo ibfhi sf value 1 69 1 94 1 36
 iat testbf ibflo ibfhi sf value 1 70 1 94 1 36
 iat testbf ibflo ibfhi sf value 1 71 1 94 1 36
 iat testbf ibflo ibfhi sf value 1 72 1 94 1 36
 iat testbf ibflo ibfhi sf value 1 73 1 94 1 36
 iat testbf ibflo ibfhi sf value 1 74 1 94 1 36
 iat testbf ibflo ibfhi sf value 1 71 1 94 1 36
 iat testbf ibflo ibfhi sf value 1 72 1 94 1 36
 iat testbf ibflo ibfhi sf value 1 73 1 94 1 36
 iat testbf ibflo ibfhi sf value 1 74 1 94 1 36
 iat testbf ibflo ibfhi sf value 1 75 1 94 1 36
 iat testbf ibflo ibfhi sf value 1 76 1 94 1 36
 iat testbf ibflo ibfhi sf value 1 77 1 94 1 36
 iat testbf ibflo ibfhi sf value 1 78 1 94 1 36
 iat testbf ibflo ibfhi sf value 1 79 1 94 1 36
 iat testbf ibflo ibfhi sf value 1 45 1 94 1 36
 iat testbf ibflo ibfhi sf value 1 46 1 94 1 36
 iat testbf ibflo ibfhi sf value 1 47 1 94 1 36
 iat testbf ibflo ibfhi sf value 1 48 1 94 1 36
 iat testbf ibflo ibfhi sf value 1 49 1 94 1 36
 iat testbf ibflo ibfhi sf value 1 50 1 94 1 36
 iat testbf ibflo ibfhi sf value 1 51 1 94 1 36
 iat testbf ibflo ibfhi sf value 1 52 1 94 1 36
 iat testbf ibflo ibfhi sf value 1 53 1 94 1 36
 iat testbf ibflo ibfhi sf value 1 54 1 94 1 36
 iat testbf ibflo ibfhi sf value 1 55 1 94 1 36
 iat testbf ibflo ibfhi sf value 1 56 1 94 1 36
 iat testbf ibflo ibfhi sf value 1 57 1 94 1 36
 iat testbf ibflo ibfhi sf value 1 58 1 94 1 36
 iat testbf ibflo ibfhi sf value 1 59 1 94 1 36
 iat testbf ibflo ibfhi sf value 1 60 1 94 1 36
 iat testbf ibflo ibfhi sf value 1 61 1 94 1 36
 iat testbf ibflo ibfhi sf value 1 62 1 94 1 36
 iat testbf ibflo ibfhi sf value 1 73 1 94 1 36
 iat testbf ibflo ibfhi sf value 1 74 1 94 1 36
 iat testbf ibflo ibfhi sf value 1 75 1 94 1 36
 iat testbf ibflo ibfhi sf value 1 76 1 94 1 36
 iat testbf ibflo ibfhi sf value 1 77 1 94 1 36
 iat testbf ibflo ibfhi sf value 1 78 1 94 1 36
 iat testbf ibflo ibfhi sf value 1 79 1 94 1 36
 iat testbf ibflo ibfhi sf value 1 80 1 94 1 36
 iat testbf ibflo ibfhi sf value 1 81 1 94 1 36
 iat testbf ibflo ibfhi sf value 1 66 1 94 1 36
 iat testbf ibflo ibfhi sf value 1 67 1 94 1 36
 iat testbf ibflo ibfhi sf value 1 68 1 94 1 36
 iat testbf ibflo ibfhi sf value 1 69 1 94 1 36
 iat testbf ibflo ibfhi sf value 1 70 1 94 1 36
 iat testbf ibflo ibfhi sf value 1 71 1 94 1 36
 iat testbf ibflo ibfhi sf value 1 72 1 94 1 36
 iat testbf ibflo ibfhi sf value 1 73 1 94 1 36
 iat testbf ibflo ibfhi sf value 1 74 1 94 1 36
 iat testbf ibflo ibfhi sf value 1 49 1 94 1 36
 iat testbf ibflo ibfhi sf value 1 50 1 94 1 36
 iat testbf ibflo ibfhi sf value 1 51 1 94 1 36
 iat testbf ibflo ibfhi sf value 1 52 1 94 1 36
 iat testbf ibflo ibfhi sf value 1 53 1 94 1 36
 iat testbf ibflo ibfhi sf value 1 54 1 94 1 36
 iat testbf ibflo ibfhi sf value 1 55 1 94 1 36
 iat testbf ibflo ibfhi sf value 1 56 1 94 1 36
 iat testbf ibflo ibfhi sf value 1 61 1 94 1 36
 iat testbf ibflo ibfhi sf value 1 62 1 94 1 36
 iat testbf ibflo ibfhi sf value 1 63 1 94 1 36
 iat testbf ibflo ibfhi sf value 1 64 1 94 1 36
 iat testbf ibflo ibfhi sf value 1 65 1 94 1 36
 iat testbf ibflo ibfhi sf value 1 66 1 94 1 36
 iat testbf ibflo ibfhi sf value 1 67 1 94 1 36
 iat testbf ibflo ibfhi sf value 1 68 1 94 1 36
 iat testbf ibflo ibfhi sf value 1 69 1 94 1 36
 iat testbf ibflo ibfhi sf value 1 73 1 94 1 36
 iat testbf ibflo ibfhi sf value 1 74 1 94 1 36
 iat testbf ibflo ibfhi sf value 1 75 1 94 1 36
 iat testbf ibflo ibfhi sf value 1 76 1 94 1 36
 iat testbf ibflo ibfhi sf value 1 77 1 94 1 36
 iat testbf ibflo ibfhi sf value 1 78 1 94 1 36
 iat testbf ibflo ibfhi sf value 1 79 1 94 1 36
 iat testbf ibflo ibfhi sf value 1 80 1 94 1 36
 iat testbf ibflo ibfhi sf value 1 81 1 94 1 36
 iat testbf ibflo ibfhi sf value 1 78 1 94 1 36
 iat testbf ibflo ibfhi sf value 1 79 1 94 1 36
 iat testbf ibflo ibfhi sf value 1 80 1 94 1 36
 iat testbf ibflo ibfhi sf value 1 81 1 94 1 36
 iat testbf ibflo ibfhi sf value 1 82 1 94 1 36
 iat testbf ibflo ibfhi sf value 1 83 1 94 1 36
 iat testbf ibflo ibfhi sf value 1 84 1 94 1 36
 iat testbf ibflo ibfhi sf value 1 85 1 94 1 36
 iat testbf ibflo ibfhi sf value 1 86 1 94 1 36
 iat testbf ibflo ibfhi sf value 1 52 1 94 1 36
 iat testbf ibflo ibfhi sf value 1 53 1 94 1 36
 iat testbf ibflo ibfhi sf value 1 54 1 94 1 36
 iat testbf ibflo ibfhi sf value 1 55 1 94 1 36
 iat testbf ibflo ibfhi sf value 1 56 1 94 1 36
 iat testbf ibflo ibfhi sf value 1 57 1 94 1 36
 iat testbf ibflo ibfhi sf value 1 58 1 94 1 36
 iat testbf ibflo ibfhi sf value 1 59 1 94 1 36
 iat testbf ibflo ibfhi sf value 1 60 1 94 1 36
 iat testbf ibflo ibfhi sf value 1 63 1 94 1 36
 iat testbf ibflo ibfhi sf value 1 64 1 94 1 36
 iat testbf ibflo ibfhi sf value 1 65 1 94 1 36
 iat testbf ibflo ibfhi sf value 1 66 1 94 1 36
 iat testbf ibflo ibfhi sf value 1 67 1 94 1 36
 iat testbf ibflo ibfhi sf value 1 68 1 94 1 36
 iat testbf ibflo ibfhi sf value 1 69 1 94 1 36
 iat testbf ibflo ibfhi sf value 1 70 1 94 1 36
 iat testbf ibflo ibfhi sf value 1 71 1 94 1 36
 iat testbf ibflo ibfhi sf value 1 75 1 94 1 36
 iat testbf ibflo ibfhi sf value 1 76 1 94 1 36
 iat testbf ibflo ibfhi sf value 1 77 1 94 1 36
 iat testbf ibflo ibfhi sf value 1 78 1 94 1 36
 iat testbf ibflo ibfhi sf value 1 79 1 94 1 36
 iat testbf ibflo ibfhi sf value 1 80 1 94 1 36
 iat testbf ibflo ibfhi sf value 1 81 1 94 1 36
 iat testbf ibflo ibfhi sf value 1 82 1 94 1 36
 iat testbf ibflo ibfhi sf value 1 83 1 94 1 36
 iat testbf ibflo ibfhi sf value 1 80 1 94 1 36
 iat testbf ibflo ibfhi sf value 1 81 1 94 1 36
 iat testbf ibflo ibfhi sf value 1 82 1 94 1 36
 iat testbf ibflo ibfhi sf value 1 83 1 94 1 36
 iat testbf ibflo ibfhi sf value 1 84 1 94 1 36
 iat testbf ibflo ibfhi sf value 1 85 1 94 1 36
 iat testbf ibflo ibfhi sf value 1 86 1 94 1 36
 iat testbf ibflo ibfhi sf value 1 87 1 94 1 36
 iat testbf ibflo ibfhi sf value 1 54 1 94 1 36
 iat testbf ibflo ibfhi sf value 1 55 1 94 1 36
 iat testbf ibflo ibfhi sf value 1 56 1 94 1 36
 iat testbf ibflo ibfhi sf value 1 57 1 94 1 36
 iat testbf ibflo ibfhi sf value 1 58 1 94 1 36
 iat testbf ibflo ibfhi sf value 1 59 1 94 1 36
 iat testbf ibflo ibfhi sf value 1 60 1 94 1 36
 iat testbf ibflo ibfhi sf value 1 61 1 94 1 36
 iat testbf ibflo ibfhi sf value 1 62 1 94 1 36
 iat testbf ibflo ibfhi sf value 1 63 1 94 1 36
 iat testbf ibflo ibfhi sf value 1 64 1 94 1 36
 iat testbf ibflo ibfhi sf value 1 65 1 94 1 36
 iat testbf ibflo ibfhi sf value 1 66 1 94 1 36
 iat testbf ibflo ibfhi sf value 1 67 1 94 1 36
 iat testbf ibflo ibfhi sf value 1 68 1 94 1 36
 iat testbf ibflo ibfhi sf value 1 69 1 94 1 36
 iat testbf ibflo ibfhi sf value 1 70 1 94 1 36
 iat testbf ibflo ibfhi sf value 1 71 1 94 1 36
 iat testbf ibflo ibfhi sf value 1 82 1 94 1 36
 iat testbf ibflo ibfhi sf value 1 83 1 94 1 36
 iat testbf ibflo ibfhi sf value 1 84 1 94 1 36
 iat testbf ibflo ibfhi sf value 1 85 1 94 1 36
 iat testbf ibflo ibfhi sf value 1 86 1 94 1 36
 iat testbf ibflo ibfhi sf value 1 87 1 94 1 36
 iat testbf ibflo ibfhi sf value 1 88 1 94 1 36
 iat testbf ibflo ibfhi sf value 1 89 1 94 1 36
 iat testbf ibflo ibfhi sf value 1 90 1 94 1 36
 iat testbf ibflo ibfhi sf value 1 75 1 94 1 36
 iat testbf ibflo ibfhi sf value 1 76 1 94 1 36
 iat testbf ibflo ibfhi sf value 1 77 1 94 1 36
 iat testbf ibflo ibfhi sf value 1 78 1 94 1 36
 iat testbf ibflo ibfhi sf value 1 79 1 94 1 36
 iat testbf ibflo ibfhi sf value 1 80 1 94 1 36
 iat testbf ibflo ibfhi sf value 1 81 1 94 1 36
 iat testbf ibflo ibfhi sf value 1 82 1 94 1 36
 iat testbf ibflo ibfhi sf value 1 83 1 94 1 36
 iat testbf ibflo ibfhi sf value 1 57 1 94 1 36
 iat testbf ibflo ibfhi sf value 1 58 1 94 1 36
 iat testbf ibflo ibfhi sf value 1 59 1 94 1 36
 iat testbf ibflo ibfhi sf value 1 60 1 94 1 36
 iat testbf ibflo ibfhi sf value 1 61 1 94 1 36
 iat testbf ibflo ibfhi sf value 1 62 1 94 1 36
 iat testbf ibflo ibfhi sf value 1 63 1 94 1 36
 iat testbf ibflo ibfhi sf value 1 64 1 94 1 36
 iat testbf ibflo ibfhi sf value 1 70 1 94 1 36
 iat testbf ibflo ibfhi sf value 1 71 1 94 1 36
 iat testbf ibflo ibfhi sf value 1 72 1 94 1 36
 iat testbf ibflo ibfhi sf value 1 73 1 94 1 36
 iat testbf ibflo ibfhi sf value 1 74 1 94 1 36
 iat testbf ibflo ibfhi sf value 1 75 1 94 1 36
 iat testbf ibflo ibfhi sf value 1 76 1 94 1 36
 iat testbf ibflo ibfhi sf value 1 77 1 94 1 36
 iat testbf ibflo ibfhi sf value 1 78 1 94 1 36
 iat testbf ibflo ibfhi sf value 1 82 1 94 1 36
 iat testbf ibflo ibfhi sf value 1 83 1 94 1 36
 iat testbf ibflo ibfhi sf value 1 84 1 94 1 36
 iat testbf ibflo ibfhi sf value 1 85 1 94 1 36
 iat testbf ibflo ibfhi sf value 1 86 1 94 1 36
 iat testbf ibflo ibfhi sf value 1 87 1 94 1 36
 iat testbf ibflo ibfhi sf value 1 88 1 94 1 36
 iat testbf ibflo ibfhi sf value 1 89 1 94 1 36
[...]
    14       .337557  1 Br s                108      -.337557  2 Br s          
    11      -.188301  1 Br s                105       .188301  2 Br s          
 
 Vector   31  Occ=2.000000D+00  E=-4.691245D-01  Symmetry=eu
              MO Center=  3.3D-16, -5.7D-16,  1.6D-14, r^2= 3.6D+00
   Bfn.  Coefficient  Atom+Function         Bfn.  Coefficient  Atom+Function  
  ----- ------------  ---------------      ----- ------------  ---------------
    45       .401882  1 Br py               139       .401882  2 Br py         
    48       .345460  1 Br py               142       .345460  2 Br py         
    39      -.151321  1 Br py               133      -.151321  2 Br py         
 
 Vector   32  Occ=2.000000D+00  E=-4.691245D-01  Symmetry=eu
              MO Center=  9.5D-18,  2.2D-17,  2.3D-15, r^2= 3.6D+00
   Bfn.  Coefficient  Atom+Function         Bfn.  Coefficient  Atom+Function  
  ----- ------------  ---------------      ----- ------------  ---------------
   138       .401882  2 Br px                44       .401882  1 Br px         
    47       .345460  1 Br px               141       .345460  2 Br px         
    38      -.151321  1 Br px               132      -.151321  2 Br px         
 
 Vector   33  Occ=2.000000D+00  E=-4.430104D-01  Symmetry=a1g
              MO Center=  8.5D-15, -1.1D-15,  2.1D-13, r^2= 3.4D+00
   Bfn.  Coefficient  Atom+Function         Bfn.  Coefficient  Atom+Function  
  ----- ------------  ---------------      ----- ------------  ---------------
   140       .364110  2 Br pz                46      -.364110  1 Br pz         
   143       .350693  2 Br pz                49      -.350693  1 Br pz         
 
 Vector   34  Occ=2.000000D+00  E=-4.413608D-01  Symmetry=eg
              MO Center=  7.9D-16,  4.7D-16, -1.0D-14, r^2= 3.8D+00
   Bfn.  Coefficient  Atom+Function         Bfn.  Coefficient  Atom+Function  
  ----- ------------  ---------------      ----- ------------  ---------------
    44       .343129  1 Br px               138      -.343129  2 Br px         
    47       .297235  1 Br px               141      -.297235  2 Br px         
   139      -.259375  2 Br py                45       .259375  1 Br py         
   142      -.224683  2 Br py                48       .224683  1 Br py         
 
 Vector   35  Occ=2.000000D+00  E=-4.413608D-01  Symmetry=eg
              MO Center= -3.2D-16,  3.5D-16, -9.9D-15, r^2= 3.8D+00
   Bfn.  Coefficient  Atom+Function         Bfn.  Coefficient  Atom+Function  
  ----- ------------  ---------------      ----- ------------  ---------------
   139       .343129  2 Br py                45      -.343129  1 Br py         
   142       .297235  2 Br py                48      -.297235  1 Br py         
   138      -.259375  2 Br px                44       .259375  1 Br px         
   141      -.224683  2 Br px                47       .224683  1 Br px         
 
 Vector   36  Occ=0.000000D+00  E=-1.255438D-01  Symmetry=a2u
              MO Center=  1.5D-15,  8.0D-15, -1.5D-14, r^2= 4.6D+00
   Bfn.  Coefficient  Atom+Function         Bfn.  Coefficient  Atom+Function  
  ----- ------------  ---------------      ----- ------------  ---------------
   143       .429875  2 Br pz                49       .429875  1 Br pz         
   140       .405729  2 Br pz                46       .405729  1 Br pz         
   146       .164325  2 Br pz                52       .164325  1 Br pz         
   134      -.156275  2 Br pz                40      -.156275  1 Br pz         
 
 Vector   37  Occ=0.000000D+00  E= 3.135351D-02  Symmetry=a1g
              MO Center= -1.6D-17,  1.1D-16,  6.7D-16, r^2= 2.2D+01
   Bfn.  Coefficient  Atom+Function         Bfn.  Coefficient  Atom+Function  
  ----- ------------  ---------------      ----- ------------  ---------------
    16      1.207097  1 Br s                110      1.207097  2 Br s          
    15      -.868019  1 Br s                109      -.868019  2 Br s          
 
 Vector   38  Occ=0.000000D+00  E= 4.312505D-02  Symmetry=a2u
              MO Center=  1.5D-16,  6.2D-16,  8.0D-15, r^2= 2.9D+01
   Bfn.  Coefficient  Atom+Function         Bfn.  Coefficient  Atom+Function  
  ----- ------------  ---------------      ----- ------------  ---------------
    16      2.753994  1 Br s                110     -2.753994  2 Br s          
    15     -1.065907  1 Br s                109      1.065907  2 Br s          
   146      -.264070  2 Br pz                52      -.264070  1 Br pz         
 
 Vector   39  Occ=0.000000D+00  E= 1.174226D-01  Symmetry=eu
              MO Center=  2.1D-17, -1.2D-16,  6.7D-16, r^2= 1.3D+01
   Bfn.  Coefficient  Atom+Function         Bfn.  Coefficient  Atom+Function  
  ----- ------------  ---------------      ----- ------------  ---------------
    51       .718230  1 Br py               145       .718230  2 Br py         
    48      -.390080  1 Br py               142      -.390080  2 Br py         
 
 Vector   40  Occ=0.000000D+00  E= 1.174226D-01  Symmetry=eu
              MO Center=  4.8D-17,  5.7D-18,  4.4D-16, r^2= 1.3D+01
   Bfn.  Coefficient  Atom+Function         Bfn.  Coefficient  Atom+Function  
  ----- ------------  ---------------      ----- ------------  ---------------
    50       .718230  1 Br px               144       .718230  2 Br px         
   141      -.390080  2 Br px                47      -.390080  1 Br px         
 
 Vector   41  Occ=0.000000D+00  E= 1.339672D-01  Symmetry=a1g
              MO Center=  3.7D-18, -1.3D-16, -6.7D-15, r^2= 1.6D+01
   Bfn.  Coefficient  Atom+Function         Bfn.  Coefficient  Atom+Function  
  ----- ------------  ---------------      ----- ------------  ---------------
   109      1.169339  2 Br s                 15      1.169339  1 Br s          
    52       .972470  1 Br pz               146      -.972470  2 Br pz         
    16      -.710274  1 Br s                110      -.710274  2 Br s          
   143       .383301  2 Br pz                49      -.383301  1 Br pz         
    14      -.163775  1 Br s                108      -.163775  2 Br s          
 
 Vector   42  Occ=0.000000D+00  E= 1.387638D-01  Symmetry=eg
              MO Center= -1.3D-16, -1.4D-16,  1.8D-15, r^2= 1.6D+01
   Bfn.  Coefficient  Atom+Function         Bfn.  Coefficient  Atom+Function  
  ----- ------------  ---------------      ----- ------------  ---------------
    50      1.202096  1 Br px               144     -1.202096  2 Br px         
   141       .371313  2 Br px                47      -.371313  1 Br px         
    51       .345660  1 Br py               145      -.345660  2 Br py         
 
 Vector   43  Occ=0.000000D+00  E= 1.387638D-01  Symmetry=eg
              MO Center=  1.4D-16, -3.3D-16,  1.8D-15, r^2= 1.6D+01
   Bfn.  Coefficient  Atom+Function         Bfn.  Coefficient  Atom+Function  
  ----- ------------  ---------------      ----- ------------  ---------------
   145      1.202096  2 Br py                51     -1.202096  1 Br py         
   142      -.371313  2 Br py                48       .371313  1 Br py         
   144      -.345660  2 Br px                50       .345660  1 Br px         
 
 Vector   44  Occ=0.000000D+00  E= 1.607131D-01  Symmetry=a2u
              MO Center=  2.4D-17,  3.0D-16, -8.9D-16, r^2= 2.2D+01
   Bfn.  Coefficient  Atom+Function         Bfn.  Coefficient  Atom+Function  
  ----- ------------  ---------------      ----- ------------  ---------------
   146      3.448815  2 Br pz                52      3.448815  1 Br pz         
    16     -2.830324  1 Br s                110      2.830324  2 Br s          
   109      2.133183  2 Br s                 15     -2.133183  1 Br s          
   143      -.296224  2 Br pz                49      -.296224  1 Br pz         
   179       .216018  2 Br d  0              85      -.216018  1 Br d  0       
 
 Vector   45  Occ=0.000000D+00  E= 1.706689D-01  Symmetry=a1g
              MO Center= -2.6D-17, -1.5D-16, -1.5D-14, r^2= 1.4D+01
   Bfn.  Coefficient  Atom+Function         Bfn.  Coefficient  Atom+Function  
  ----- ------------  ---------------      ----- ------------  ---------------
    15      2.130118  1 Br s                109      2.130118  2 Br s          
   110     -1.291419  2 Br s                 16     -1.291419  1 Br s          
   108      -.920949  2 Br s                 14      -.920949  1 Br s          
    49       .179464  1 Br pz               143      -.179464  2 Br pz         
    52      -.164151  1 Br pz               146       .164151  2 Br pz         
 
 Vector   46  Occ=0.000000D+00  E= 1.951874D-01  Symmetry=a2u
              MO Center=  4.0D-16,  1.4D-15, -4.8D-15, r^2= 1.5D+01
   Bfn.  Coefficient  Atom+Function         Bfn.  Coefficient  Atom+Function  
  ----- ------------  ---------------      ----- ------------  ---------------
   109      4.310621  2 Br s                 15     -4.310621  1 Br s          
   110     -1.624757  2 Br s                 16      1.624757  1 Br s          
    52      1.239038  1 Br pz               146      1.239038  2 Br pz         
   108      -.968295  2 Br s                 14       .968295  1 Br s          
    49       .254266  1 Br pz               143       .254266  2 Br pz         
 
 Vector   47  Occ=0.000000D+00  E= 2.759770D-01  Symmetry=eu
              MO Center= -7.7D-14,  1.3D-14, -4.1D-13, r^2= 5.4D+00
   Bfn.  Coefficient  Atom+Function         Bfn.  Coefficient  Atom+Function  
  ----- ------------  ---------------      ----- ------------  ---------------
   180       .571854  2 Br d  1              86      -.571854  1 Br d  1       
 
 Vector   48  Occ=0.000000D+00  E= 2.759770D-01  Symmetry=eu
              MO Center= -4.8D-15,  2.6D-14, -5.3D-14, r^2= 5.4D+00
   Bfn.  Coefficient  Atom+Function         Bfn.  Coefficient  Atom+Function  
  ----- ------------  ---------------      ----- ------------  ---------------
    84       .571854  1 Br d -1             178      -.571854  2 Br d -1       
 
 Vector   49  Occ=0.000000D+00  E= 2.935932D-01  Symmetry=b1g
              MO Center=  8.4D-15, -1.1D-14,  6.7D-16, r^2= 5.7D+00
   Bfn.  Coefficient  Atom+Function         Bfn.  Coefficient  Atom+Function  
  ----- ------------  ---------------      ----- ------------  ---------------
    87       .662999  1 Br d  2             181       .662999  2 Br d  2       
 
 Vector   50  Occ=0.000000D+00  E= 2.935932D-01  Symmetry=b2g
              MO Center=  5.0D-15, -1.1D-14,  4.4D-16, r^2= 5.7D+00
   Bfn.  Coefficient  Atom+Function         Bfn.  Coefficient  Atom+Function  
  ----- ------------  ---------------      ----- ------------  ---------------
    83       .662999  1 Br d -2             177       .662999  2 Br d -2       
 
 Vector   51  Occ=0.000000D+00  E= 3.514105D-01  Symmetry=b2u
              MO Center= -6.8D-17,  1.1D-16, -4.4D-16, r^2= 6.2D+00
   Bfn.  Coefficient  Atom+Function         Bfn.  Coefficient  Atom+Function  
  ----- ------------  ---------------      ----- ------------  ---------------
   181       .736003  2 Br d  2              87      -.736003  1 Br d  2       
 
 Vector   52  Occ=0.000000D+00  E= 3.514105D-01  Symmetry=b1u
              MO Center=  5.2D-19, -2.1D-16, -2.2D-16, r^2= 6.2D+00
   Bfn.  Coefficient  Atom+Function         Bfn.  Coefficient  Atom+Function  
  ----- ------------  ---------------      ----- ------------  ---------------
   177       .736003  2 Br d -2              83      -.736003  1 Br d -2       
 
 Vector   53  Occ=0.000000D+00  E= 3.751944D-01  Symmetry=a1g
              MO Center=  8.3D-14,  2.5D-14, -3.4D-11, r^2= 7.1D+00
   Bfn.  Coefficient  Atom+Function         Bfn.  Coefficient  Atom+Function  
  ----- ------------  ---------------      ----- ------------  ---------------
   179       .675859  2 Br d  0              85       .675859  1 Br d  0       
   146       .514985  2 Br pz                52      -.514985  1 Br pz         
    49       .446969  1 Br pz               143      -.446969  2 Br pz         
    15      -.189640  1 Br s                109      -.189640  2 Br s          
   108      -.177454  2 Br s                 14      -.177454  1 Br s          
 
 Vector   54  Occ=0.000000D+00  E= 4.401937D-01  Symmetry=eg
              MO Center= -4.0D-14, -3.8D-14, -3.1D-13, r^2= 7.7D+00
   Bfn.  Coefficient  Atom+Function         Bfn.  Coefficient  Atom+Function  
  ----- ------------  ---------------      ----- ------------  ---------------
    86       .731082  1 Br d  1             180       .731082  2 Br d  1       
   178      -.663436  2 Br d -1              84      -.663436  1 Br d -1       
   144      -.373447  2 Br px                50       .373447  1 Br px         
   145      -.338893  2 Br py                51       .338893  1 Br py         
 
 Vector   55  Occ=0.000000D+00  E= 4.401937D-01  Symmetry=eg
              MO Center= -7.4D-14,  8.0D-14, -7.6D-13, r^2= 7.7D+00
   Bfn.  Coefficient  Atom+Function         Bfn.  Coefficient  Atom+Function  
  ----- ------------  ---------------      ----- ------------  ---------------
   178       .731082  2 Br d -1              84       .731082  1 Br d -1       
   180       .663436  2 Br d  1              86       .663436  1 Br d  1       
   145       .373447  2 Br py                51      -.373447  1 Br py         
   144      -.338893  2 Br px                50       .338893  1 Br px         
 
 Vector   56  Occ=0.000000D+00  E= 4.648495D-01  Symmetry=a2u
              MO Center=  1.1D-14,  1.5D-14,  3.4D-11, r^2= 1.0D+01
   Bfn.  Coefficient  Atom+Function         Bfn.  Coefficient  Atom+Function  
  ----- ------------  ---------------      ----- ------------  ---------------
   109      3.710614  2 Br s                 15     -3.710614  1 Br s          
    52      2.470510  1 Br pz               146      2.470510  2 Br pz         
    85     -1.386653  1 Br d  0             179      1.386653  2 Br d  0       
    16      -.529419  1 Br s                110       .529419  2 Br s          
   143       .490248  2 Br pz                49       .490248  1 Br pz         
 
 Vector   57  Occ=0.000000D+00  E= 7.686225D-01  Symmetry=eu
              MO Center= -2.7D-14, -3.8D-15,  6.0D-13, r^2= 6.1D+00
   Bfn.  Coefficient  Atom+Function         Bfn.  Coefficient  Atom+Function  
  ----- ------------  ---------------      ----- ------------  ---------------
    47      1.149604  1 Br px               141      1.149604  2 Br px         
    44     -1.023548  1 Br px               138     -1.023548  2 Br px         
    50      -.369395  1 Br px               144      -.369395  2 Br px         
    48       .161726  1 Br py               142       .161726  2 Br py         
 

 center of mass
 --------------
 x =    .00000000 y =    .00000000 z =    .00000000

 moments of inertia (a.u.)
 ------------------
        1268.200461091386            .000000000000            .000000000000
            .000000000000        1268.200461091386            .000000000000
            .000000000000            .000000000000            .000000000000
 
  Mulliken analysis of the total density
  --------------------------------------

    Atom       Charge   Shell Charges
 -----------   ------   -------------------------------------------------------
    1 Br  35    35.00    .00   .00   .01   .05   .20   .56   .80   .34   .94  1.04   .89  1.13  1.18   .84   .01   .00   .00   .02   .21  1.16  2.61  1.84  1.49  3.31  1.40
  2.48  2.38   .06   .04   .65  3.01  4.54  1.73   .05   .01   .00
    2 Br  35    35.00    .00   .00   .01   .05   .20   .56   .80   .34   .94  1.04   .89  1.13  1.18   .84   .01   .00   .00   .02   .21  1.16  2.61  1.84  1.49  3.31  1.40
  2.48  2.38   .06   .04   .65  3.01  4.54  1.73   .05   .01   .00
 
       Multipole analysis of the density wrt the origin
       ------------------------------------------------
 
     L   x y z        total         open         nuclear
     -   - - -        -----         ----         -------
     0   0 0 0       .000000       .000000     70.000000
 
     1   1 0 0       .000000       .000000       .000000
     1   0 1 0       .000000       .000000       .000000
     1   0 0 1       .000000       .000000       .000000
 
     2   2 0 0    -28.149674       .000000       .000000
     2   1 1 0       .000000       .000000       .000000
     2   1 0 1       .000000       .000000       .000000
     2   0 2 0    -28.149674       .000000       .000000
     2   0 1 1       .000000       .000000       .000000
     2   0 0 2    -22.422063       .000000    562.442629
 

 Parallel integral file used     204 records with       0 large values


 Task  times  cpu:       63.6s     wall:       68.8s
 
 
                                NWChem Input Module
                                -------------------
 
 
 Summary of allocated global arrays
-----------------------------------
  No active global arrays



                         GA Statistics for process    0
                         ------------------------------

       create   destroy   get      put      acc     scatter   gather  read&inc
calls: 3828     3828     5.73e+06 5.78e+06 2.55e+04    1        0        0     
bytes total:             9.05e+08 1.44e+08 4.89e+08 2.80e+02 0.00e+00 0.00e+00
bytes remote:            6.87e+08 4.32e+07 4.07e+08 2.56e+02 0.00e+00 0.00e+00
Max memory consumed for GA by this process: 813224 bytes
 
MA_summarize_allocated_blocks: starting scan ...
MA_summarize_allocated_blocks: scan completed: 0 heap blocks, 0 stack blocks
MA usage statistics:

	allocation statistics:
					      heap	     stack
					      ----	     -----
	current number of blocks	         0	         0
	maximum number of blocks	        31	        29
	current total bytes		         0	         0
	maximum total bytes		  13676752	  52679884
	maximum total K-bytes		     13677	     52680
	maximum total M-bytes		        14	        53



                                  ACKNOWLEDGEMENT
                                  ---------------

            Please use the following acknowledgement where appropriate 
            for results obtained with NWChem:

            High Performance Computational Chemistry Group, "NWChem, A
            Computational Chemistry Package for Parallel Computers, 
            Version 4.0.1" (2001), Pacific Northwest National Laboratory,
            Richland, Washington 99352-0999, USA.


                                     CITATION
                                     --------

            Please use the following citation when publishing results
            obtained with NWChem:

            R. J. Harrison, J. A. Nichols, T. P. Straatsma, M. Dupuis, E. J. Bylaska,
            G. I. Fann, T. L. Windus, E. Apra, J. Anchell, D. Bernholdt, P. Borowski,
            T. Clark, D. Clerc, H. Dachsel, B. de Jong, M. Deegan, K. Dyall, D. Elwood,
            H. Fruchtl, E. Glendenning, M. Gutowski, A. Hess, J. Jaffe, B. Johnson, J. Ju,
            R. Kendall, R. Kobayashi, R, Kutteh, Z. Lin, R. Littlefield, X. Long, B. Meng,
            J. Nieplocha, S. Niu, M. Rosing, G. Sandrone, M. Stave, H. Taylor, G. Thomas,
            J. van Lenthe, K. Wolinski, A. Wong, and Z. Zhang,
            "NWChem, A Computational Chemistry Package for Parallel Computers, 
            Version 4.0.1" (2001),
                      Pacific Northwest National Laboratory,
                      Richland, Washington 99352-0999, USA.


                                    REFERENCES
                                    ----------

            Where appropriate, please cite the following reference(s) 
            when publishing results obtained with NWChem:


     1. D. E. Bernholdt, E. Apra, H. A. Fruchtl, M.F. Guest, R. J. Harrison, 
        R. A. Kendall, R. A. Kutteh, X. Long, J. B. Nicholas, J. A. Nichols, 
        H. L. Taylor, A. T. Wong, G. I. Fann, R. J. Littlefield and J. Nieplocha,
        "Parallel Computational Chemistry Made Easier: The Development of NWChem,"
        Int. J. Quantum Chem. Symposium  29, 475-483 (1995).



 Total times  cpu:      323.9s     wall:      383.4s
