 argument  1 = /var/lib/gitlab-runner/builds/PH7zszVW/0/edoapra/nwchem/QA/tests/c60_ecp/c60_ecp.nw
 


============================== echo of input deck ==============================
# $Id$
echo

title "c60 with ECPs"

start c60

geometry
  symmetry Ih
  C -1.2287651 0.0 3.3143121   # bonds = 1.4445 and 1.3945 Angstrom
end

basis
  C library SBKJC_VDZ_ECP
end

ecp
  C library SBKJC_ECP
end

task scf
================================================================================


                                         
                                         
 
 
              Northwest Computational Chemistry Package (NWChem) 6.8
              ------------------------------------------------------
 
 
                    Environmental Molecular Sciences Laboratory
                       Pacific Northwest National Laboratory
                                Richland, WA 99352
 
                              Copyright (c) 1994-2018
                       Pacific Northwest National Laboratory
                            Battelle Memorial Institute
 
             NWChem is an open-source computational chemistry package
                        distributed under the terms of the
                      Educational Community License (ECL) 2.0
             A copy of the license is included with this distribution
                              in the LICENSE.TXT file
 
                                  ACKNOWLEDGMENT
                                  --------------

            This software and its documentation were developed at the
            EMSL at Pacific Northwest National Laboratory, a multiprogram
            national laboratory, operated for the U.S. Department of Energy
            by Battelle under Contract Number DE-AC05-76RL01830. Support
            for this work was provided by the Department of Energy Office
            of Biological and Environmental Research, Office of Basic
            Energy Sciences, and the Office of Advanced Scientific Computing.


           Job information
           ---------------

    hostname        = durian
    program         = /var/lib/gitlab-runner/builds/PH7zszVW/0/edoapra/nwchem/bin/LINUX64/nwchem
    date            = Mon Sep 30 21:28:39 2019

    compiled        = Mon_Sep_30_19:35:44_2019
    source          = /var/lib/gitlab-runner/builds/PH7zszVW/0/edoapra/nwchem
    nwchem branch   = Development
    nwchem revision = fecaae27
    ga revision     = 5.7.0
    use scalapack   = T
    input           = /var/lib/gitlab-runner/builds/PH7zszVW/0/edoapra/nwchem/QA/tests/c60_ecp/c60_ecp.nw
    prefix          = c60.
    data base       = ./c60.db
    status          = startup
    nproc           =        3
    time left       =     -1s



           Memory information
           ------------------

    heap     =  208704542 doubles =   1592.3 Mbytes
    stack    =  208704539 doubles =   1592.3 Mbytes
    global   =  417409088 doubles =   3184.6 Mbytes (distinct from heap & stack)
    total    =  834818169 doubles =   6369.2 Mbytes
    verify   = yes
    hardfail = no 


           Directory information
           ---------------------
 
  0 permanent = .
  0 scratch   = .
 
 
 
 
                                NWChem Input Module
                                -------------------
 
 
                                   c60 with ECPs
                                   -------------

 Scaling coordinates for geometry "geometry" by  1.889725989
 (inverse scale =  0.529177249)

 
 
                             Geometry "geometry" -> ""
                             -------------------------
 
 Output coordinates in angstroms (scale by  1.889725989 to convert to a.u.)
 
  No.       Tag          Charge          X              Y              Z
 ---- ---------------- ---------- -------------- -------------- --------------
    1 C                    6.0000    -1.22876510    -0.00000000     3.31431210
    2 C                    6.0000    -0.37970930    -1.16862506     3.31431210
    3 C                    6.0000     0.99409185    -0.72225000     3.31431210
    4 C                    6.0000     0.99409185     0.72225000     3.31431210
    5 C                    6.0000    -0.37970930     1.16862506     3.31431210
    6 C                    6.0000     1.57397808    -2.58806202     1.82182775
    7 C                    6.0000     2.33339667    -2.58806202     0.59306265
    8 C                    6.0000     3.18245248    -1.41943696     0.59306265
    9 C                    6.0000     2.94777922    -0.69718696     1.82182775
   10 C                    6.0000     1.95368738    -1.41943696     2.58124635
   11 C                    6.0000     2.79459970    -1.16862506    -1.82182775
   12 C                    6.0000     2.41489040    -0.00000000    -2.58124635
   13 C                    6.0000     2.79459970     1.16862506    -1.82182775
   14 C                    6.0000     3.40898225     0.72225000    -0.59306265
   15 C                    6.0000     3.40898225    -0.72225000    -0.59306265
   16 C                    6.0000     0.74624217     2.29669725    -2.58124635
   17 C                    6.0000    -2.33339667    -2.58806202    -0.59306265
   18 C                    6.0000    -3.18245248    -1.41943696    -0.59306265
   19 C                    6.0000    -2.94777922    -0.69718696    -1.82182775
   20 C                    6.0000    -1.95368738    -1.41943696    -2.58124635
   21 C                    6.0000    -1.57397808    -2.58806202    -1.82182775
   22 C                    6.0000    -3.18245248     1.41943696    -0.59306265
   23 C                    6.0000    -2.33339667     2.58806202    -0.59306265
   24 C                    6.0000    -1.57397808     2.58806202    -1.82182775
   25 C                    6.0000    -1.95368738     1.41943696    -2.58124635
   26 C                    6.0000    -2.94777922     0.69718696    -1.82182775
   27 C                    6.0000     0.36653288     3.46532231    -0.59306265
   28 C                    6.0000     1.74033402     3.01894726    -0.59306265
   29 C                    6.0000     1.97500727     2.29669725    -1.82182775
   30 C                    6.0000    -0.24784967     3.01894726    -1.82182775
   31 C                    6.0000    -0.74624217    -2.29669725     2.58124635
   32 C                    6.0000    -1.97500727    -2.29669725     1.82182775
   33 C                    6.0000    -1.74033402    -3.01894726     0.59306265
   34 C                    6.0000    -0.36653288    -3.46532231     0.59306265
   35 C                    6.0000     0.24784967    -3.01894726     1.82182775
   36 C                    6.0000    -0.99409185     0.72225000    -3.31431210
   37 C                    6.0000     0.37970930     1.16862506    -3.31431210
   38 C                    6.0000     1.22876510     0.00000000    -3.31431210
   39 C                    6.0000     0.37970930    -1.16862506    -3.31431210
   40 C                    6.0000    -0.99409185    -0.72225000    -3.31431210
   41 C                    6.0000    -1.97500727     2.29669725     1.82182775
   42 C                    6.0000    -0.74624217     2.29669725     2.58124635
   43 C                    6.0000     0.24784967     3.01894726     1.82182775
   44 C                    6.0000    -0.36653288     3.46532231     0.59306265
   45 C                    6.0000    -1.74033402     3.01894726     0.59306265
   46 C                    6.0000     1.95368738     1.41943696     2.58124635
   47 C                    6.0000     2.94777922     0.69718696     1.82182775
   48 C                    6.0000     3.18245248     1.41943696     0.59306265
   49 C                    6.0000     2.33339667     2.58806202     0.59306265
   50 C                    6.0000     1.57397808     2.58806202     1.82182775
   51 C                    6.0000    -2.79459970    -1.16862506     1.82182775
   52 C                    6.0000    -2.41489040     0.00000000     2.58124635
   53 C                    6.0000    -2.79459970     1.16862506     1.82182775
   54 C                    6.0000    -3.40898225     0.72225000     0.59306265
   55 C                    6.0000    -3.40898225    -0.72225000     0.59306265
   56 C                    6.0000     0.36653288    -3.46532231    -0.59306265
   57 C                    6.0000    -0.24784967    -3.01894726    -1.82182775
   58 C                    6.0000     0.74624217    -2.29669725    -2.58124635
   59 C                    6.0000     1.97500727    -2.29669725    -1.82182775
   60 C                    6.0000     1.74033402    -3.01894726    -0.59306265
 
      Atomic Mass 
      ----------- 
 
      C                 12.000000
 

 Effective nuclear repulsion energy (a.u.)    8362.6760611738

            Nuclear Dipole moment (a.u.) 
            ----------------------------
        X                 Y               Z
 ---------------- ---------------- ----------------
     0.0000000000     0.0000000000     0.0000000000
 
      Symmetry information
      --------------------
 
 Group name              Ih       
 Group number             46
 Group order             120
 No. of unique centers     1
 
      Symmetry unique atoms
 
     1
 
 
            XYZ format geometry
            -------------------
    60
 geometry
 C                    -1.22876510    -0.00000000     3.31431210
 C                    -0.37970930    -1.16862506     3.31431210
 C                     0.99409185    -0.72225000     3.31431210
 C                     0.99409185     0.72225000     3.31431210
 C                    -0.37970930     1.16862506     3.31431210
 C                     1.57397808    -2.58806202     1.82182775
 C                     2.33339667    -2.58806202     0.59306265
 C                     3.18245248    -1.41943696     0.59306265
 C                     2.94777922    -0.69718696     1.82182775
 C                     1.95368738    -1.41943696     2.58124635
 C                     2.79459970    -1.16862506    -1.82182775
 C                     2.41489040    -0.00000000    -2.58124635
 C                     2.79459970     1.16862506    -1.82182775
 C                     3.40898225     0.72225000    -0.59306265
 C                     3.40898225    -0.72225000    -0.59306265
 C                     0.74624217     2.29669725    -2.58124635
 C                    -2.33339667    -2.58806202    -0.59306265
 C                    -3.18245248    -1.41943696    -0.59306265
 C                    -2.94777922    -0.69718696    -1.82182775
 C                    -1.95368738    -1.41943696    -2.58124635
 C                    -1.57397808    -2.58806202    -1.82182775
 C                    -3.18245248     1.41943696    -0.59306265
 C                    -2.33339667     2.58806202    -0.59306265
 C                    -1.57397808     2.58806202    -1.82182775
 C                    -1.95368738     1.41943696    -2.58124635
 C                    -2.94777922     0.69718696    -1.82182775
 C                     0.36653288     3.46532231    -0.59306265
 C                     1.74033402     3.01894726    -0.59306265
 C                     1.97500727     2.29669725    -1.82182775
 C                    -0.24784967     3.01894726    -1.82182775
 C                    -0.74624217    -2.29669725     2.58124635
 C                    -1.97500727    -2.29669725     1.82182775
 C                    -1.74033402    -3.01894726     0.59306265
 C                    -0.36653288    -3.46532231     0.59306265
 C                     0.24784967    -3.01894726     1.82182775
 C                    -0.99409185     0.72225000    -3.31431210
 C                     0.37970930     1.16862506    -3.31431210
 C                     1.22876510     0.00000000    -3.31431210
 C                     0.37970930    -1.16862506    -3.31431210
 C                    -0.99409185    -0.72225000    -3.31431210
 C                    -1.97500727     2.29669725     1.82182775
 C                    -0.74624217     2.29669725     2.58124635
 C                     0.24784967     3.01894726     1.82182775
 C                    -0.36653288     3.46532231     0.59306265
 C                    -1.74033402     3.01894726     0.59306265
 C                     1.95368738     1.41943696     2.58124635
 C                     2.94777922     0.69718696     1.82182775
 C                     3.18245248     1.41943696     0.59306265
 C                     2.33339667     2.58806202     0.59306265
 C                     1.57397808     2.58806202     1.82182775
 C                    -2.79459970    -1.16862506     1.82182775
 C                    -2.41489040     0.00000000     2.58124635
 C                    -2.79459970     1.16862506     1.82182775
 C                    -3.40898225     0.72225000     0.59306265
 C                    -3.40898225    -0.72225000     0.59306265
 C                     0.36653288    -3.46532231    -0.59306265
 C                    -0.24784967    -3.01894726    -1.82182775
 C                     0.74624217    -2.29669725    -2.58124635
 C                     1.97500727    -2.29669725    -1.82182775
 C                     1.74033402    -3.01894726    -0.59306265
 
 ==============================================================================
                                internuclear distances
 ------------------------------------------------------------------------------
       center one      |      center two      | atomic units |  angstroms
 ------------------------------------------------------------------------------
    2 C                |   1 C                |     2.72971  |     1.44450
    3 C                |   2 C                |     2.72971  |     1.44450
    4 C                |   3 C                |     2.72971  |     1.44450
    5 C                |   1 C                |     2.72971  |     1.44450
    5 C                |   4 C                |     2.72971  |     1.44450
    7 C                |   6 C                |     2.72971  |     1.44450
    8 C                |   7 C                |     2.72971  |     1.44450
    9 C                |   8 C                |     2.72971  |     1.44450
   10 C                |   3 C                |     2.63498  |     1.39437
   10 C                |   6 C                |     2.72971  |     1.44450
   10 C                |   9 C                |     2.72971  |     1.44450
   12 C                |  11 C                |     2.72971  |     1.44450
   13 C                |  12 C                |     2.72971  |     1.44450
   14 C                |  13 C                |     2.72971  |     1.44450
   15 C                |   8 C                |     2.63498  |     1.39437
   15 C                |  11 C                |     2.72971  |     1.44450
   15 C                |  14 C                |     2.72971  |     1.44450
   18 C                |  17 C                |     2.72971  |     1.44450
   19 C                |  18 C                |     2.72971  |     1.44450
   20 C                |  19 C                |     2.72971  |     1.44450
   21 C                |  17 C                |     2.72971  |     1.44450
   21 C                |  20 C                |     2.72971  |     1.44450
   23 C                |  22 C                |     2.72971  |     1.44450
   24 C                |  23 C                |     2.72971  |     1.44450
   25 C                |  24 C                |     2.72971  |     1.44450
   26 C                |  19 C                |     2.63498  |     1.39437
   26 C                |  22 C                |     2.72971  |     1.44450
   26 C                |  25 C                |     2.72971  |     1.44450
   28 C                |  27 C                |     2.72971  |     1.44450
   29 C                |  13 C                |     2.63498  |     1.39437
   29 C                |  16 C                |     2.72971  |     1.44450
   29 C                |  28 C                |     2.72971  |     1.44450
   30 C                |  16 C                |     2.72971  |     1.44450
   30 C                |  24 C                |     2.63498  |     1.39437
   30 C                |  27 C                |     2.72971  |     1.44450
   31 C                |   2 C                |     2.63498  |     1.39437
   32 C                |  31 C                |     2.72971  |     1.44450
   33 C                |  17 C                |     2.63498  |     1.39437
   33 C                |  32 C                |     2.72971  |     1.44450
   34 C                |  33 C                |     2.72971  |     1.44450
   35 C                |   6 C                |     2.63498  |     1.39437
   35 C                |  31 C                |     2.72971  |     1.44450
   35 C                |  34 C                |     2.72971  |     1.44450
   36 C                |  25 C                |     2.63498  |     1.39437
   37 C                |  16 C                |     2.63498  |     1.39437
   37 C                |  36 C                |     2.72971  |     1.44450
   38 C                |  12 C                |     2.63498  |     1.39437
   38 C                |  37 C                |     2.72971  |     1.44450
   39 C                |  38 C                |     2.72971  |     1.44450
   40 C                |  20 C                |     2.63498  |     1.39437
   40 C                |  36 C                |     2.72971  |     1.44450
   40 C                |  39 C                |     2.72971  |     1.44450
   42 C                |   5 C                |     2.63498  |     1.39437
   42 C                |  41 C                |     2.72971  |     1.44450
   43 C                |  42 C                |     2.72971  |     1.44450
   44 C                |  27 C                |     2.63498  |     1.39437
   44 C                |  43 C                |     2.72971  |     1.44450
   45 C                |  23 C                |     2.63498  |     1.39437
   45 C                |  41 C                |     2.72971  |     1.44450
   45 C                |  44 C                |     2.72971  |     1.44450
   46 C                |   4 C                |     2.63498  |     1.39437
   47 C                |   9 C                |     2.63498  |     1.39437
   47 C                |  46 C                |     2.72971  |     1.44450
   48 C                |  14 C                |     2.63498  |     1.39437
   48 C                |  47 C                |     2.72971  |     1.44450
   49 C                |  28 C                |     2.63498  |     1.39437
   49 C                |  48 C                |     2.72971  |     1.44450
   50 C                |  43 C                |     2.63498  |     1.39437
   50 C                |  46 C                |     2.72971  |     1.44450
   50 C                |  49 C                |     2.72971  |     1.44450
   51 C                |  32 C                |     2.63498  |     1.39437
   52 C                |   1 C                |     2.63498  |     1.39437
   52 C                |  51 C                |     2.72971  |     1.44450
   53 C                |  41 C                |     2.63498  |     1.39437
   53 C                |  52 C                |     2.72971  |     1.44450
   54 C                |  22 C                |     2.63498  |     1.39437
   54 C                |  53 C                |     2.72971  |     1.44450
   55 C                |  18 C                |     2.63498  |     1.39437
   55 C                |  51 C                |     2.72971  |     1.44450
   55 C                |  54 C                |     2.72971  |     1.44450
   56 C                |  34 C                |     2.63498  |     1.39437
   57 C                |  21 C                |     2.63498  |     1.39437
   57 C                |  56 C                |     2.72971  |     1.44450
   58 C                |  39 C                |     2.63498  |     1.39437
   58 C                |  57 C                |     2.72971  |     1.44450
   59 C                |  11 C                |     2.63498  |     1.39437
   59 C                |  58 C                |     2.72971  |     1.44450
   60 C                |   7 C                |     2.63498  |     1.39437
   60 C                |  56 C                |     2.72971  |     1.44450
   60 C                |  59 C                |     2.72971  |     1.44450
 ------------------------------------------------------------------------------
                         number of included internuclear distances:         90
 ==============================================================================



 ==============================================================================
                                 internuclear angles
 ------------------------------------------------------------------------------
        center 1       |       center 2       |       center 3       |  degrees
 ------------------------------------------------------------------------------
    2 C                |   1 C                |   5 C                |   108.00
    2 C                |   1 C                |  52 C                |   120.00
    5 C                |   1 C                |  52 C                |   120.00
    1 C                |   2 C                |   3 C                |   108.00
    1 C                |   2 C                |  31 C                |   120.00
    3 C                |   2 C                |  31 C                |   120.00
    2 C                |   3 C                |   4 C                |   108.00
    2 C                |   3 C                |  10 C                |   120.00
    4 C                |   3 C                |  10 C                |   120.00
    3 C                |   4 C                |   5 C                |   108.00
    3 C                |   4 C                |  46 C                |   120.00
    5 C                |   4 C                |  46 C                |   120.00
    1 C                |   5 C                |   4 C                |   108.00
    1 C                |   5 C                |  42 C                |   120.00
    4 C                |   5 C                |  42 C                |   120.00
    7 C                |   6 C                |  10 C                |   108.00
    7 C                |   6 C                |  35 C                |   120.00
   10 C                |   6 C                |  35 C                |   120.00
    6 C                |   7 C                |   8 C                |   108.00
    6 C                |   7 C                |  60 C                |   120.00
    8 C                |   7 C                |  60 C                |   120.00
    7 C                |   8 C                |   9 C                |   108.00
    7 C                |   8 C                |  15 C                |   120.00
    9 C                |   8 C                |  15 C                |   120.00
    8 C                |   9 C                |  10 C                |   108.00
    8 C                |   9 C                |  47 C                |   120.00
   10 C                |   9 C                |  47 C                |   120.00
    3 C                |  10 C                |   6 C                |   120.00
    3 C                |  10 C                |   9 C                |   120.00
    6 C                |  10 C                |   9 C                |   108.00
   12 C                |  11 C                |  15 C                |   108.00
   12 C                |  11 C                |  59 C                |   120.00
   15 C                |  11 C                |  59 C                |   120.00
   11 C                |  12 C                |  13 C                |   108.00
   11 C                |  12 C                |  38 C                |   120.00
   13 C                |  12 C                |  38 C                |   120.00
   12 C                |  13 C                |  14 C                |   108.00
   12 C                |  13 C                |  29 C                |   120.00
   14 C                |  13 C                |  29 C                |   120.00
   13 C                |  14 C                |  15 C                |   108.00
   13 C                |  14 C                |  48 C                |   120.00
   15 C                |  14 C                |  48 C                |   120.00
    8 C                |  15 C                |  11 C                |   120.00
    8 C                |  15 C                |  14 C                |   120.00
   11 C                |  15 C                |  14 C                |   108.00
   29 C                |  16 C                |  30 C                |   108.00
   29 C                |  16 C                |  37 C                |   120.00
   30 C                |  16 C                |  37 C                |   120.00
   18 C                |  17 C                |  21 C                |   108.00
   18 C                |  17 C                |  33 C                |   120.00
   21 C                |  17 C                |  33 C                |   120.00
   17 C                |  18 C                |  19 C                |   108.00
   17 C                |  18 C                |  55 C                |   120.00
   19 C                |  18 C                |  55 C                |   120.00
   18 C                |  19 C                |  20 C                |   108.00
   18 C                |  19 C                |  26 C                |   120.00
   20 C                |  19 C                |  26 C                |   120.00
   19 C                |  20 C                |  21 C                |   108.00
   19 C                |  20 C                |  40 C                |   120.00
   21 C                |  20 C                |  40 C                |   120.00
   17 C                |  21 C                |  20 C                |   108.00
   17 C                |  21 C                |  57 C                |   120.00
   20 C                |  21 C                |  57 C                |   120.00
   23 C                |  22 C                |  26 C                |   108.00
   23 C                |  22 C                |  54 C                |   120.00
   26 C                |  22 C                |  54 C                |   120.00
   22 C                |  23 C                |  24 C                |   108.00
   22 C                |  23 C                |  45 C                |   120.00
   24 C                |  23 C                |  45 C                |   120.00
   23 C                |  24 C                |  25 C                |   108.00
   23 C                |  24 C                |  30 C                |   120.00
   25 C                |  24 C                |  30 C                |   120.00
   24 C                |  25 C                |  26 C                |   108.00
   24 C                |  25 C                |  36 C                |   120.00
   26 C                |  25 C                |  36 C                |   120.00
   19 C                |  26 C                |  22 C                |   120.00
   19 C                |  26 C                |  25 C                |   120.00
   22 C                |  26 C                |  25 C                |   108.00
   28 C                |  27 C                |  30 C                |   108.00
   28 C                |  27 C                |  44 C                |   120.00
   30 C                |  27 C                |  44 C                |   120.00
   27 C                |  28 C                |  29 C                |   108.00
   27 C                |  28 C                |  49 C                |   120.00
   29 C                |  28 C                |  49 C                |   120.00
   13 C                |  29 C                |  16 C                |   120.00
   13 C                |  29 C                |  28 C                |   120.00
   16 C                |  29 C                |  28 C                |   108.00
   16 C                |  30 C                |  24 C                |   120.00
   16 C                |  30 C                |  27 C                |   108.00
   24 C                |  30 C                |  27 C                |   120.00
    2 C                |  31 C                |  32 C                |   120.00
    2 C                |  31 C                |  35 C                |   120.00
   32 C                |  31 C                |  35 C                |   108.00
   31 C                |  32 C                |  33 C                |   108.00
   31 C                |  32 C                |  51 C                |   120.00
   33 C                |  32 C                |  51 C                |   120.00
   17 C                |  33 C                |  32 C                |   120.00
   17 C                |  33 C                |  34 C                |   120.00
   32 C                |  33 C                |  34 C                |   108.00
   33 C                |  34 C                |  35 C                |   108.00
   33 C                |  34 C                |  56 C                |   120.00
   35 C                |  34 C                |  56 C                |   120.00
    6 C                |  35 C                |  31 C                |   120.00
    6 C                |  35 C                |  34 C                |   120.00
   31 C                |  35 C                |  34 C                |   108.00
   25 C                |  36 C                |  37 C                |   120.00
   25 C                |  36 C                |  40 C                |   120.00
   37 C                |  36 C                |  40 C                |   108.00
   16 C                |  37 C                |  36 C                |   120.00
   16 C                |  37 C                |  38 C                |   120.00
   36 C                |  37 C                |  38 C                |   108.00
   12 C                |  38 C                |  37 C                |   120.00
   12 C                |  38 C                |  39 C                |   120.00
   37 C                |  38 C                |  39 C                |   108.00
   38 C                |  39 C                |  40 C                |   108.00
   38 C                |  39 C                |  58 C                |   120.00
   40 C                |  39 C                |  58 C                |   120.00
   20 C                |  40 C                |  36 C                |   120.00
   20 C                |  40 C                |  39 C                |   120.00
   36 C                |  40 C                |  39 C                |   108.00
   42 C                |  41 C                |  45 C                |   108.00
   42 C                |  41 C                |  53 C                |   120.00
   45 C                |  41 C                |  53 C                |   120.00
    5 C                |  42 C                |  41 C                |   120.00
    5 C                |  42 C                |  43 C                |   120.00
   41 C                |  42 C                |  43 C                |   108.00
   42 C                |  43 C                |  44 C                |   108.00
   42 C                |  43 C                |  50 C                |   120.00
   44 C                |  43 C                |  50 C                |   120.00
   27 C                |  44 C                |  43 C                |   120.00
   27 C                |  44 C                |  45 C                |   120.00
   43 C                |  44 C                |  45 C                |   108.00
   23 C                |  45 C                |  41 C                |   120.00
   23 C                |  45 C                |  44 C                |   120.00
   41 C                |  45 C                |  44 C                |   108.00
    4 C                |  46 C                |  47 C                |   120.00
    4 C                |  46 C                |  50 C                |   120.00
   47 C                |  46 C                |  50 C                |   108.00
    9 C                |  47 C                |  46 C                |   120.00
    9 C                |  47 C                |  48 C                |   120.00
   46 C                |  47 C                |  48 C                |   108.00
   14 C                |  48 C                |  47 C                |   120.00
   14 C                |  48 C                |  49 C                |   120.00
   47 C                |  48 C                |  49 C                |   108.00
   28 C                |  49 C                |  48 C                |   120.00
   28 C                |  49 C                |  50 C                |   120.00
   48 C                |  49 C                |  50 C                |   108.00
   43 C                |  50 C                |  46 C                |   120.00
   43 C                |  50 C                |  49 C                |   120.00
   46 C                |  50 C                |  49 C                |   108.00
   32 C                |  51 C                |  52 C                |   120.00
   32 C                |  51 C                |  55 C                |   120.00
   52 C                |  51 C                |  55 C                |   108.00
    1 C                |  52 C                |  51 C                |   120.00
    1 C                |  52 C                |  53 C                |   120.00
   51 C                |  52 C                |  53 C                |   108.00
   41 C                |  53 C                |  52 C                |   120.00
   41 C                |  53 C                |  54 C                |   120.00
   52 C                |  53 C                |  54 C                |   108.00
   22 C                |  54 C                |  53 C                |   120.00
   22 C                |  54 C                |  55 C                |   120.00
   53 C                |  54 C                |  55 C                |   108.00
   18 C                |  55 C                |  51 C                |   120.00
   18 C                |  55 C                |  54 C                |   120.00
   51 C                |  55 C                |  54 C                |   108.00
   34 C                |  56 C                |  57 C                |   120.00
   34 C                |  56 C                |  60 C                |   120.00
   57 C                |  56 C                |  60 C                |   108.00
   21 C                |  57 C                |  56 C                |   120.00
   21 C                |  57 C                |  58 C                |   120.00
   56 C                |  57 C                |  58 C                |   108.00
   39 C                |  58 C                |  57 C                |   120.00
   39 C                |  58 C                |  59 C                |   120.00
   57 C                |  58 C                |  59 C                |   108.00
   11 C                |  59 C                |  58 C                |   120.00
   11 C                |  59 C                |  60 C                |   120.00
   58 C                |  59 C                |  60 C                |   108.00
    7 C                |  60 C                |  56 C                |   120.00
    7 C                |  60 C                |  59 C                |   120.00
   56 C                |  60 C                |  59 C                |   108.00
 ------------------------------------------------------------------------------
                            number of included internuclear angles:        180
 ==============================================================================



                      Basis "ao basis" -> "" (cartesian)
                      -----
  C (Carbon)
  ----------
            Exponent  Coefficients 
       -------------- ---------------------------------------------------------
  1 S  4.28600000E+00 -0.147220
  1 S  1.04600000E+00  0.081250
  1 S  3.44700000E-01  0.713600
 
  2 P  4.28600000E+00  0.102570
  2 P  1.04600000E+00  0.329870
  2 P  3.44700000E-01  0.482120
 
  3 S  1.12800000E-01  0.315210
 
  4 P  1.12800000E-01  0.315930
 


 Summary of "ao basis" -> "" (cartesian)
 ------------------------------------------------------------------------------
       Tag                 Description            Shells   Functions and Types
 ---------------- ------------------------------  ------  ---------------------
 C                       SBKJC VDZ ECP               4        8   2s2p


                 ECP       "ecp basis" -> "" (cartesian)
                -----
  C (Carbon) Replaces     2 electrons
  -----------------------------------
             Channel    R-exponent     Exponent     Coefficients
         ------------ ---------------------------------------------------------
  1 U L       Both         1.00        8.564680      -0.893710
 
  2 U-s       Both         0.00        2.814970       1.929260
  2 U-s       Both         2.00        8.112960      14.881990
 
                                 NWChem SCF Module
                                 -----------------
 
 
                                   c60 with ECPs
 
 

  ao basis        = "ao basis"
  functions       =   480
  atoms           =    60
  closed shells   =   120
  open shells     =     0
  charge          =   0.00
  wavefunction    = RHF 
  input vectors   = atomic
  output vectors  = ./c60.movecs
  use symmetry    = T
  symmetry adapt  = T


 Summary of "ao basis" -> "ao basis" (cartesian)
 ------------------------------------------------------------------------------
       Tag                 Description            Shells   Functions and Types
 ---------------- ------------------------------  ------  ---------------------
 C                       SBKJC VDZ ECP               4        8   2s2p


      Symmetry analysis of basis
      --------------------------
 
        ag          6
        t1g        30
        t2g        30
        gg         64
        hg        110
        au          2
        t1u        42
        t2u        42
        gu         64
        hu         90
 

 Forming initial guess at       3.7s

 
      Superposition of Atomic Density Guess
      -------------------------------------
 
 Sum of atomic energies:        -351.29503998
 
      Non-variational initial energy
      ------------------------------

 Total energy =    -348.418130
 1-e energy   =   -7891.509271
 2-e energy   =    3826.346225
 HOMO         =      -0.205530
 LUMO         =      -0.107496
 
 
      Symmetry analysis of molecular orbitals - initial
      -------------------------------------------------
 
  Numbering of irreducible representations: 
 
     1 ag          2 t1g         3 t2g         4 gg          5 hg      
     6 au          7 t1u         8 t2u         9 gu         10 hu      
 
  Orbital symmetries:
 
     1 ag          2 t1u         3 t1u         4 t1u         5 hg      
     6 hg          7 hg          8 hg          9 hg         10 t2u     
    11 t2u        12 t2u        13 gu         14 gu         15 gu      
    16 gu         17 hg         18 hg         19 hg         20 hg      
    21 hg         22 gg         23 gg         24 gg         25 gg      
    26 hu         27 hu         28 hu         29 hu         30 hu      
    31 t1u        32 t1u        33 t1u        34 t2u        35 t2u     
    36 t2u        37 t1g        38 t1g        39 t1g        40 hg      
    41 hg         42 hg         43 hg         44 hg         45 ag      
    46 gg         47 gg         48 gg         49 gg         50 hu      
    51 hu         52 hu         53 hu         54 hu         55 ag      
    56 t1u        57 t1u        58 t1u        59 t1u        60 t1u     
    61 t1u        62 t2u        63 t2u        64 t2u        65 gu      
    66 gu         67 gu         68 gu         69 hg         70 hg      
    71 hg         72 hg         73 hg         74 hg         75 hg      
    76 hg         77 hg         78 hg         79 gg         80 gg      
    81 gg         82 gg         83 t2g        84 t2g        85 t2g     
    86 t2u        87 t2u        88 t2u        89 gu         90 gu      
    91 gu         92 gu         93 gu         94 gu         95 gu      
    96 gu         97 hg         98 hg         99 hg        100 hg      
   101 hg        102 hu        103 hu        104 hu        105 hu      
   106 hu        107 hg        108 hg        109 hg        110 hg      
   111 hg        112 gg        113 gg        114 gg        115 gg      
   116 hu        117 hu        118 hu        119 hu        120 hu      
   121 t1u       122 t1u       123 t1u       124 t1g       125 t1g     
   126 t1g       127 t2u       128 t2u       129 t2u       130 hg      
 

 Starting SCF solution at      11.7s



 ----------------------------------------------
         Quadratically convergent ROHF

 Convergence threshold     :          1.000E-04
 Maximum no. of iterations :           30
 Final Fock-matrix accuracy:          1.000E-07
 ----------------------------------------------


              iter       energy          gnorm     gmax       time
             ----- ------------------- --------- --------- --------
                 1     -327.2681047259  2.30D+00  2.79D-01     19.5
                 2     -327.8206873670  6.54D-01  6.31D-02     28.4
                 3     -327.8684729739  2.45D-02  3.72D-03     52.8
                 4     -327.8686264260  3.89D-04  4.96D-05     84.7
                 5     -327.8686264935  8.82D-06  1.30D-06    116.4


       Final RHF  results 
       ------------------ 

         Total SCF energy =   -327.868626493523
      One-electron energy =  -7905.184312462298
      Two-electron energy =   3860.570769891574
 Nuclear repulsion energy =   3716.744916077201

        Time for solution =    106.3s


 
       Symmetry analysis of molecular orbitals - final
       -----------------------------------------------
 
  Numbering of irreducible representations: 
 
     1 ag          2 t1g         3 t2g         4 gg          5 hg      
     6 au          7 t1u         8 t2u         9 gu         10 hu      
 
  Orbital symmetries:
 
     1 ag          2 t1u         3 t1u         4 t1u         5 hg      
     6 hg          7 hg          8 hg          9 hg         10 t2u     
    11 t2u        12 t2u        13 gu         14 gu         15 gu      
    16 gu         17 hg         18 hg         19 hg         20 hg      
    21 hg         22 gg         23 gg         24 gg         25 gg      
    26 hu         27 hu         28 hu         29 hu         30 hu      
    31 t1u        32 t1u        33 t1u        34 t2u        35 t2u     
    36 t2u        37 t1g        38 t1g        39 t1g        40 hg      
    41 hg         42 hg         43 hg         44 hg         45 ag      
    46 gg         47 gg         48 gg         49 gg         50 hu      
    51 hu         52 hu         53 hu         54 hu         55 t1u     
    56 t1u        57 t1u        58 t2u        59 t2u        60 t2u     
    61 ag         62 gu         63 gu         64 gu         65 gu      
    66 t1u        67 t1u        68 t1u        69 hg         70 hg      
    71 hg         72 hg         73 hg         74 gg         75 gg      
    76 gg         77 gg         78 t2g        79 t2g        80 t2g     
    81 gu         82 gu         83 gu         84 gu         85 hg      
    86 hg         87 hg         88 hg         89 hg         90 hg      
    91 hg         92 hg         93 hg         94 hg         95 hu      
    96 hu         97 hu         98 hu         99 hu        100 t2u     
   101 t2u       102 t2u       103 gu        104 gu        105 gu      
   106 gu        107 gg        108 gg        109 gg        110 gg      
   111 hg        112 hg        113 hg        114 hg        115 hg      
   116 hu        117 hu        118 hu        119 hu        120 hu      
   121 t1u       122 t1u       123 t1u       124 t1g       125 t1g     
   126 t1g       127 t2u       128 t2u       129 t2u       130 hg      
 
             Final eigenvalues
             -----------------

              1      
    1   -1.3460
    2   -1.3209
    3   -1.3209
    4   -1.3209
    5   -1.2723
    6   -1.2723
    7   -1.2723
    8   -1.2723
    9   -1.2723
   10   -1.2211
   11   -1.2211
   12   -1.2211
   13   -1.1788
   14   -1.1788
   15   -1.1788
   16   -1.1788
   17   -1.1129
   18   -1.1129
   19   -1.1129
   20   -1.1129
   21   -1.1129
   22   -1.0924
   23   -1.0924
   24   -1.0924
   25   -1.0924
   26   -1.0225
   27   -1.0225
   28   -1.0225
   29   -1.0225
   30   -1.0225
   31   -0.9936
   32   -0.9936
   33   -0.9936
   34   -0.9295
   35   -0.9295
   36   -0.9295
   37   -0.8939
   38   -0.8939
   39   -0.8939
   40   -0.8874
   41   -0.8874
   42   -0.8874
   43   -0.8874
   44   -0.8874
   45   -0.8367
   46   -0.7911
   47   -0.7911
   48   -0.7911
   49   -0.7911
   50   -0.7679
   51   -0.7679
   52   -0.7679
   53   -0.7679
   54   -0.7679
   55   -0.7383
   56   -0.7383
   57   -0.7383
   58   -0.6991
   59   -0.6991
   60   -0.6991
   61   -0.6799
   62   -0.6715
   63   -0.6715
   64   -0.6715
   65   -0.6715
   66   -0.6479
   67   -0.6479
   68   -0.6479
   69   -0.6475
   70   -0.6475
   71   -0.6475
   72   -0.6475
   73   -0.6475
   74   -0.6291
   75   -0.6291
   76   -0.6291
   77   -0.6291
   78   -0.6168
   79   -0.6168
   80   -0.6168
   81   -0.5922
   82   -0.5922
   83   -0.5922
   84   -0.5922
   85   -0.5856
   86   -0.5856
   87   -0.5856
   88   -0.5856
   89   -0.5856
   90   -0.5330
   91   -0.5330
   92   -0.5330
   93   -0.5330
   94   -0.5330
   95   -0.5192
   96   -0.5192
   97   -0.5192
   98   -0.5192
   99   -0.5192
  100   -0.5039
  101   -0.5039
  102   -0.5039
  103   -0.4843
  104   -0.4843
  105   -0.4843
  106   -0.4843
  107   -0.3850
  108   -0.3850
  109   -0.3850
  110   -0.3850
  111   -0.3755
  112   -0.3755
  113   -0.3755
  114   -0.3755
  115   -0.3755
  116   -0.3094
  117   -0.3094
  118   -0.3094
  119   -0.3094
  120   -0.3094
  121   -0.0474
  122   -0.0474
  123   -0.0474
  124    0.0146
  125    0.0146
  126    0.0146
  127    0.0780
  128    0.0780
  129    0.0780
  130    0.0796
 
                       ROHF Final Molecular Orbital Analysis
                       -------------------------------------
 
 Vector    1  Occ=2.000000D+00  E=-1.345961D+00  Symmetry=ag
              MO Center=  3.3D-16,  2.2D-16,  2.8D-16, r^2= 1.2D+01
   Bfn.  Coefficient  Atom+Function         Bfn.  Coefficient  Atom+Function  
  ----- ------------  ---------------      ----- ------------  ---------------
     1      0.083922   1 C  s                 9      0.083922   2 C  s         
    17      0.083922   3 C  s                25      0.083922   4 C  s         
    33      0.083922   5 C  s                41      0.083922   6 C  s         
    49      0.083922   7 C  s                57      0.083922   8 C  s         
    65      0.083922   9 C  s                73      0.083922  10 C  s         
 
 Vector    2  Occ=2.000000D+00  E=-1.320875D+00  Symmetry=t1u
              MO Center= -1.7D-16,  1.4D-17,  2.8D-17, r^2= 1.2D+01
   Bfn.  Coefficient  Atom+Function         Bfn.  Coefficient  Atom+Function  
  ----- ------------  ---------------      ----- ------------  ---------------
     1      0.141352   1 C  s               297     -0.141352  38 C  s         
    33      0.136927   5 C  s               305     -0.136927  39 C  s         
    89     -0.135913  12 C  s               409      0.135913  52 C  s         
 
 Vector    3  Occ=2.000000D+00  E=-1.320875D+00  Symmetry=t1u
              MO Center= -5.4D-16, -3.6D-16, -4.2D-16, r^2= 1.2D+01
   Bfn.  Coefficient  Atom+Function         Bfn.  Coefficient  Atom+Function  
  ----- ------------  ---------------      ----- ------------  ---------------
    65      0.145396   9 C  s               201     -0.145396  26 C  s         
   145     -0.137462  19 C  s               369      0.137462  47 C  s         
    57      0.134374   8 C  s               169     -0.134374  22 C  s         
 
 Vector    4  Occ=2.000000D+00  E=-1.320875D+00  Symmetry=t1u
              MO Center= -1.2D-16, -2.8D-16, -2.1D-16, r^2= 1.2D+01
   Bfn.  Coefficient  Atom+Function         Bfn.  Coefficient  Atom+Function  
  ----- ------------  ---------------      ----- ------------  ---------------
   209      0.145856  27 C  s               265     -0.145856  34 C  s         
   217      0.140273  28 C  s               257     -0.140273  33 C  s         
   233      0.131386  30 C  s               273     -0.131386  35 C  s         
 
 Vector    5  Occ=2.000000D+00  E=-1.272275D+00  Symmetry=hg
              MO Center= -1.8D-16, -6.9D-17,  5.0D-16, r^2= 1.2D+01
   Bfn.  Coefficient  Atom+Function         Bfn.  Coefficient  Atom+Function  
  ----- ------------  ---------------      ----- ------------  ---------------
   121      0.141345  16 C  s               241      0.141345  31 C  s         
   145     -0.139999  19 C  s               369     -0.139999  47 C  s         
   225      0.137930  29 C  s               249      0.137930  32 C  s         
    89      0.133241  12 C  s               409      0.133241  52 C  s         
     1      0.129735   1 C  s               297      0.129735  38 C  s         
 
 Vector    6  Occ=2.000000D+00  E=-1.272275D+00  Symmetry=hg
              MO Center=  7.5D-15, -1.9D-15, -8.1D-15, r^2= 1.2D+01
   Bfn.  Coefficient  Atom+Function         Bfn.  Coefficient  Atom+Function  
  ----- ------------  ---------------      ----- ------------  ---------------
    17      0.171324   3 C  s               281      0.171324  36 C  s         
 
 Vector    7  Occ=2.000000D+00  E=-1.272275D+00  Symmetry=hg
              MO Center= -8.9D-15,  7.1D-15,  1.5D-15, r^2= 1.2D+01
   Bfn.  Coefficient  Atom+Function         Bfn.  Coefficient  Atom+Function  
  ----- ------------  ---------------      ----- ------------  ---------------
   329      0.169502  42 C  s               457      0.169502  58 C  s         
    33      0.164677   5 C  s               305      0.164677  39 C  s         
 
 Vector    8  Occ=2.000000D+00  E=-1.272275D+00  Symmetry=hg
              MO Center=  8.3D-17,  1.9D-16, -1.4D-16, r^2= 1.2D+01
   Bfn.  Coefficient  Atom+Function         Bfn.  Coefficient  Atom+Function  
  ----- ------------  ---------------      ----- ------------  ---------------
   353      0.165435  45 C  s               473      0.165435  60 C  s         
   345      0.157025  44 C  s               441      0.157025  56 C  s         
 
 Vector    9  Occ=2.000000D+00  E=-1.272275D+00  Symmetry=hg
              MO Center=  5.6D-15, -3.4D-15,  2.3D-15, r^2= 1.2D+01
   Bfn.  Coefficient  Atom+Function         Bfn.  Coefficient  Atom+Function  
  ----- ------------  ---------------      ----- ------------  ---------------
   217      0.167908  28 C  s               257      0.167908  33 C  s         
   129      0.157498  17 C  s               385      0.157498  49 C  s         
 
 Vector   10  Occ=2.000000D+00  E=-1.221091D+00  Symmetry=t2u
              MO Center=  5.9D-15, -1.1D-16, -9.3D-15, r^2= 1.2D+01
   Bfn.  Coefficient  Atom+Function         Bfn.  Coefficient  Atom+Function  
  ----- ------------  ---------------      ----- ------------  ---------------
   161      0.147147  21 C  s               393     -0.147147  50 C  s         
   137      0.139965  18 C  s               377     -0.139965  48 C  s         
   145      0.136420  19 C  s               369     -0.136420  47 C  s         
 
 Vector   11  Occ=2.000000D+00  E=-1.221091D+00  Symmetry=t2u
              MO Center= -5.4D-15,  3.1D-15,  6.2D-15, r^2= 1.2D+01
   Bfn.  Coefficient  Atom+Function         Bfn.  Coefficient  Atom+Function  
  ----- ------------  ---------------      ----- ------------  ---------------
    81     -0.139745  11 C  s               417      0.139745  53 C  s         
    65      0.137381   9 C  s               105     -0.137791  14 C  s         
   201     -0.137381  26 C  s               433      0.137791  55 C  s         
    49      0.135427   7 C  s               177     -0.135427  23 C  s         
 
 Vector   12  Occ=2.000000D+00  E=-1.221091D+00  Symmetry=t2u
              MO Center=  2.3D-15, -3.7D-15,  5.9D-15, r^2= 1.2D+01
   Bfn.  Coefficient  Atom+Function         Bfn.  Coefficient  Atom+Function  
  ----- ------------  ---------------      ----- ------------  ---------------
   337      0.146424  43 C  s               449     -0.146424  57 C  s         
   321      0.143250  41 C  s               353      0.143853  45 C  s         
   465     -0.143250  59 C  s               473     -0.143853  60 C  s         
   329      0.139089  42 C  s               345      0.138716  44 C  s         
   441     -0.138716  56 C  s               457     -0.139089  58 C  s         
 
 Vector   13  Occ=2.000000D+00  E=-1.178805D+00  Symmetry=gu
              MO Center= -1.8D-15, -5.1D-16, -3.8D-15, r^2= 1.2D+01
   Bfn.  Coefficient  Atom+Function         Bfn.  Coefficient  Atom+Function  
  ----- ------------  ---------------      ----- ------------  ---------------
     9      0.156369   2 C  s               289     -0.156369  37 C  s         
 
 Vector   14  Occ=2.000000D+00  E=-1.178805D+00  Symmetry=gu
              MO Center= -8.9D-16,  2.1D-15, -1.3D-14, r^2= 1.2D+01
   Bfn.  Coefficient  Atom+Function         Bfn.  Coefficient  Atom+Function  
  ----- ------------  ---------------      ----- ------------  ---------------
     1      0.163216   1 C  s                89     -0.163954  12 C  s         
   297     -0.163216  38 C  s               409      0.163954  52 C  s         
    17     -0.156788   3 C  s               281      0.156788  36 C  s         
    73     -0.151313  10 C  s               193      0.151313  25 C  s         
 
 Vector   15  Occ=2.000000D+00  E=-1.178805D+00  Symmetry=gu
              MO Center= -1.8D-15,  9.2D-16,  1.4D-15, r^2= 1.2D+01
   Bfn.  Coefficient  Atom+Function         Bfn.  Coefficient  Atom+Function  
  ----- ------------  ---------------      ----- ------------  ---------------
    81      0.158949  11 C  s               321     -0.158830  41 C  s         
   417     -0.158949  53 C  s               465      0.158830  59 C  s         
    97     -0.156410  13 C  s               401      0.156410  51 C  s         
   209      0.155438  27 C  s               225     -0.155859  29 C  s         
   249      0.155859  32 C  s               265     -0.155438  34 C  s         
 
 Vector   16  Occ=2.000000D+00  E=-1.178805D+00  Symmetry=gu
              MO Center= -6.7D-16, -2.1D-15, -1.9D-16, r^2= 1.2D+01
   Bfn.  Coefficient  Atom+Function         Bfn.  Coefficient  Atom+Function  
  ----- ------------  ---------------      ----- ------------  ---------------
    65      0.172250   9 C  s               145     -0.171472  19 C  s         
   201     -0.172250  26 C  s               369      0.171472  47 C  s         
 
 Vector   17  Occ=2.000000D+00  E=-1.112913D+00  Symmetry=hg
              MO Center=  3.2D-15,  2.4D-15,  2.4D-15, r^2= 1.3D+01
   Bfn.  Coefficient  Atom+Function         Bfn.  Coefficient  Atom+Function  
  ----- ------------  ---------------      ----- ------------  ---------------
    57      0.158064   8 C  s               169      0.158064  22 C  s         
    89     -0.150066  12 C  s               409     -0.150066  52 C  s         
 
 Vector   18  Occ=2.000000D+00  E=-1.112913D+00  Symmetry=hg
              MO Center= -6.7D-15, -2.2D-15, -4.5D-15, r^2= 1.3D+01
   Bfn.  Coefficient  Atom+Function         Bfn.  Coefficient  Atom+Function  
  ----- ------------  ---------------      ----- ------------  ---------------
   121      0.156026  16 C  s               241      0.156026  31 C  s         
   329      0.152100  42 C  s               457      0.152100  58 C  s         
 
 Vector   19  Occ=2.000000D+00  E=-1.112913D+00  Symmetry=hg
              MO Center= -1.9D-15, -1.4D-15,  1.6D-15, r^2= 1.3D+01
   Bfn.  Coefficient  Atom+Function         Bfn.  Coefficient  Atom+Function  
  ----- ------------  ---------------      ----- ------------  ---------------
   105      0.169700  14 C  s               433      0.169700  55 C  s         
    17      0.168231   3 C  s               281      0.168231  36 C  s         
   345      0.160109  44 C  s               441      0.160109  56 C  s         
 
 Vector   20  Occ=2.000000D+00  E=-1.112913D+00  Symmetry=hg
              MO Center= -7.2D-16, -9.0D-17, -1.7D-16, r^2= 1.3D+01
   Bfn.  Coefficient  Atom+Function         Bfn.  Coefficient  Atom+Function  
  ----- ------------  ---------------      ----- ------------  ---------------
   337      0.137448  43 C  s               449      0.137448  57 C  s         
   353     -0.132108  45 C  s               473     -0.132108  60 C  s         
    97      0.125994  13 C  s               401      0.125994  51 C  s         
    73      0.125179  10 C  s               193      0.125179  25 C  s         
 
 Vector   21  Occ=2.000000D+00  E=-1.112913D+00  Symmetry=hg
              MO Center= -4.2D-15, -6.9D-15, -1.7D-16, r^2= 1.3D+01
   Bfn.  Coefficient  Atom+Function         Bfn.  Coefficient  Atom+Function  
  ----- ------------  ---------------      ----- ------------  ---------------
   209      0.169440  27 C  s               265      0.169440  34 C  s         
    25      0.167034   4 C  s               313      0.167034  40 C  s         
   113      0.164582  15 C  s               425      0.164582  54 C  s         
 
 Vector   22  Occ=2.000000D+00  E=-1.092448D+00  Symmetry=gg
              MO Center=  1.3D-15, -2.1D-15,  6.7D-16, r^2= 1.3D+01
   Bfn.  Coefficient  Atom+Function         Bfn.  Coefficient  Atom+Function  
  ----- ------------  ---------------      ----- ------------  ---------------
    73      0.143717  10 C  s               193      0.143717  25 C  s         
   153     -0.141173  20 C  s               361     -0.141173  46 C  s         
    57     -0.129454   8 C  s               169     -0.129454  22 C  s         
 
 Vector   23  Occ=2.000000D+00  E=-1.092448D+00  Symmetry=gg
              MO Center= -2.5D-15, -1.3D-15,  7.8D-16, r^2= 1.3D+01
   Bfn.  Coefficient  Atom+Function         Bfn.  Coefficient  Atom+Function  
  ----- ------------  ---------------      ----- ------------  ---------------
   105     -0.160480  14 C  s               433     -0.160480  55 C  s         
    89      0.150720  12 C  s               409      0.150720  52 C  s         
 
 Vector   24  Occ=2.000000D+00  E=-1.092448D+00  Symmetry=gg
              MO Center= -4.3D-15,  2.6D-15, -1.7D-16, r^2= 1.3D+01
   Bfn.  Coefficient  Atom+Function         Bfn.  Coefficient  Atom+Function  
  ----- ------------  ---------------      ----- ------------  ---------------
    17     -0.155842   3 C  s               281     -0.155842  36 C  s         
     1      0.152741   1 C  s               297      0.152741  38 C  s         
 
 Vector   25  Occ=2.000000D+00  E=-1.092448D+00  Symmetry=gg
              MO Center=  1.6D-14,  1.3D-15,  5.5D-15, r^2= 1.3D+01
   Bfn.  Coefficient  Atom+Function         Bfn.  Coefficient  Atom+Function  
  ----- ------------  ---------------      ----- ------------  ---------------
     9      0.162147   2 C  s               289      0.162147  37 C  s         
    97     -0.151093  13 C  s               401     -0.151093  51 C  s         
 
 Vector   26  Occ=2.000000D+00  E=-1.022545D+00  Symmetry=hu
              MO Center= -1.7D-15,  1.0D-15, -6.2D-16, r^2= 1.3D+01
   Bfn.  Coefficient  Atom+Function         Bfn.  Coefficient  Atom+Function  
  ----- ------------  ---------------      ----- ------------  ---------------
   137      0.193566  18 C  s               377     -0.193566  48 C  s         
    57      0.173186   8 C  s               169     -0.173186  22 C  s         
 
 Vector   27  Occ=2.000000D+00  E=-1.022545D+00  Symmetry=hu
              MO Center=  1.7D-16,  9.0D-17,  1.3D-15, r^2= 1.3D+01
   Bfn.  Coefficient  Atom+Function         Bfn.  Coefficient  Atom+Function  
  ----- ------------  ---------------      ----- ------------  ---------------
    89      0.170991  12 C  s               409     -0.170991  52 C  s         
   329      0.165308  42 C  s               457     -0.165308  58 C  s         
    65      0.164272   9 C  s               201     -0.164272  26 C  s         
   145     -0.150576  19 C  s               369      0.150576  47 C  s         
 
 Vector   28  Occ=2.000000D+00  E=-1.022545D+00  Symmetry=hu
              MO Center= -4.2D-17,  9.2D-17,  5.0D-16, r^2= 1.3D+01
   Bfn.  Coefficient  Atom+Function         Bfn.  Coefficient  Atom+Function  
  ----- ------------  ---------------      ----- ------------  ---------------
     1      0.188238   1 C  s               297     -0.188238  38 C  s         
   337      0.163998  43 C  s               449     -0.163998  57 C  s         
   225      0.156088  29 C  s               249     -0.156088  32 C  s         
    25     -0.152272   4 C  s               313      0.152272  40 C  s         
 
 Vector   29  Occ=2.000000D+00  E=-1.022545D+00  Symmetry=hu
              MO Center=  2.2D-16, -3.2D-15, -1.2D-15, r^2= 1.3D+01
   Bfn.  Coefficient  Atom+Function         Bfn.  Coefficient  Atom+Function  
  ----- ------------  ---------------      ----- ------------  ---------------
    81     -0.173264  11 C  s               417      0.173264  53 C  s         
     9      0.166310   2 C  s               289     -0.166310  37 C  s         
   233      0.157516  30 C  s               273     -0.157516  35 C  s         
 
 Vector   30  Occ=2.000000D+00  E=-1.022545D+00  Symmetry=hu
              MO Center=  5.3D-16,  0.0D+00,  2.8D-17, r^2= 1.3D+01
   Bfn.  Coefficient  Atom+Function         Bfn.  Coefficient  Atom+Function  
  ----- ------------  ---------------      ----- ------------  ---------------
   345      0.179956  44 C  s               441     -0.179956  56 C  s         
   209      0.172974  27 C  s               265     -0.172974  34 C  s         
   129      0.161750  17 C  s               385     -0.161750  49 C  s         
 
 Vector   31  Occ=2.000000D+00  E=-9.936328D-01  Symmetry=t1u
              MO Center=  6.1D-15,  5.4D-15, -2.7D-15, r^2= 1.3D+01
   Bfn.  Coefficient  Atom+Function         Bfn.  Coefficient  Atom+Function  
  ----- ------------  ---------------      ----- ------------  ---------------
    89      0.124923  12 C  s               409     -0.124923  52 C  s         
     1      0.121923   1 C  s               297     -0.121923  38 C  s         
   217     -0.121038  28 C  s               257      0.121038  33 C  s         
   337     -0.116181  43 C  s               449      0.116181  57 C  s         
   353      0.115529  45 C  s               473     -0.115529  60 C  s         
 
 Vector   32  Occ=2.000000D+00  E=-9.936328D-01  Symmetry=t1u
              MO Center=  6.9D-16, -9.0D-17,  5.6D-17, r^2= 1.3D+01
   Bfn.  Coefficient  Atom+Function         Bfn.  Coefficient  Atom+Function  
  ----- ------------  ---------------      ----- ------------  ---------------
    25      0.122959   4 C  s               313     -0.122959  40 C  s         
   153      0.120097  20 C  s               321     -0.119885  41 C  s         
   361     -0.120097  46 C  s               465      0.119885  59 C  s         
    57      0.115250   8 C  s               169     -0.115250  22 C  s         
    41     -0.112902   6 C  s               185      0.112902  24 C  s         
 
 Vector   33  Occ=2.000000D+00  E=-9.936328D-01  Symmetry=t1u
              MO Center= -2.2D-15,  5.9D-15,  1.8D-15, r^2= 1.3D+01
   Bfn.  Coefficient  Atom+Function         Bfn.  Coefficient  Atom+Function  
  ----- ------------  ---------------      ----- ------------  ---------------
   137      0.124771  18 C  s               377     -0.124771  48 C  s         
    73      0.121911  10 C  s               193     -0.121911  25 C  s         
   105      0.119854  14 C  s               433     -0.119854  55 C  s         
   209      0.115675  27 C  s               265     -0.115675  34 C  s         
   121     -0.113949  16 C  s               241      0.113949  31 C  s         
 
 Vector   34  Occ=2.000000D+00  E=-9.294570D-01  Symmetry=t2u
              MO Center= -1.7D-13,  9.3D-14, -6.8D-14, r^2= 1.3D+01
   Bfn.  Coefficient  Atom+Function         Bfn.  Coefficient  Atom+Function  
  ----- ------------  ---------------      ----- ------------  ---------------
   345      0.104683  44 C  s               441     -0.104683  56 C  s         
    97      0.098396  13 C  s               401     -0.098396  51 C  s         
   105     -0.096983  14 C  s               433      0.096983  55 C  s         
 
 Vector   35  Occ=2.000000D+00  E=-9.294570D-01  Symmetry=t2u
              MO Center= -7.1D-14,  6.9D-15, -8.6D-14, r^2= 1.3D+01
   Bfn.  Coefficient  Atom+Function         Bfn.  Coefficient  Atom+Function  
  ----- ------------  ---------------      ----- ------------  ---------------
    57     -0.103899   8 C  s               169      0.103899  22 C  s         
    33     -0.098728   5 C  s               305      0.098728  39 C  s         
     1      0.097803   1 C  s               297     -0.097803  38 C  s         
 
 Vector   36  Occ=2.000000D+00  E=-9.294570D-01  Symmetry=t2u
              MO Center= -1.2D-13, -1.5D-13,  1.1D-14, r^2= 1.3D+01
   Bfn.  Coefficient  Atom+Function         Bfn.  Coefficient  Atom+Function  
  ----- ------------  ---------------      ----- ------------  ---------------
   153      0.104465  20 C  s               361     -0.104465  46 C  s         
   121      0.099921  16 C  s               241     -0.099921  31 C  s         
   233     -0.096465  30 C  s               273      0.096465  35 C  s         
 
 Vector   37  Occ=2.000000D+00  E=-8.939105D-01  Symmetry=t1g
              MO Center= -1.5D-15,  6.2D-15,  4.3D-15, r^2= 1.3D+01
   Bfn.  Coefficient  Atom+Function         Bfn.  Coefficient  Atom+Function  
  ----- ------------  ---------------      ----- ------------  ---------------
     1      0.146562   1 C  s                89     -0.146562  12 C  s         
   297      0.146562  38 C  s               409     -0.146562  52 C  s         
 
 Vector   38  Occ=2.000000D+00  E=-8.939105D-01  Symmetry=t1g
              MO Center= -5.7D-15, -5.7D-15,  9.4D-16, r^2= 1.3D+01
   Bfn.  Coefficient  Atom+Function         Bfn.  Coefficient  Atom+Function  
  ----- ------------  ---------------      ----- ------------  ---------------
    65      0.146924   9 C  s               145     -0.146924  19 C  s         
   201      0.146924  26 C  s               369     -0.146924  47 C  s         
 
 Vector   39  Occ=2.000000D+00  E=-8.939105D-01  Symmetry=t1g
              MO Center=  5.1D-15, -7.5D-15, -8.9D-16, r^2= 1.3D+01
   Bfn.  Coefficient  Atom+Function         Bfn.  Coefficient  Atom+Function  
  ----- ------------  ---------------      ----- ------------  ---------------
   209      0.148045  27 C  s               265      0.148045  34 C  s         
   345     -0.148045  44 C  s               441     -0.148045  56 C  s         
 
 Vector   40  Occ=2.000000D+00  E=-8.874393D-01  Symmetry=hg
              MO Center= -2.4D-15,  2.6D-16,  3.9D-16, r^2= 1.3D+01
   Bfn.  Coefficient  Atom+Function         Bfn.  Coefficient  Atom+Function  
  ----- ------------  ---------------      ----- ------------  ---------------
   145      0.157268  19 C  s               369      0.157268  47 C  s         
 
 Vector   41  Occ=2.000000D+00  E=-8.874393D-01  Symmetry=hg
              MO Center= -1.1D-15, -4.3D-15, -1.2D-15, r^2= 1.3D+01
   Bfn.  Coefficient  Atom+Function         Bfn.  Coefficient  Atom+Function  
  ----- ------------  ---------------      ----- ------------  ---------------
    57      0.136021   8 C  s               169      0.136021  22 C  s         
   113      0.132683  15 C  s               425      0.132683  54 C  s         
   105     -0.130851  14 C  s               433     -0.130851  55 C  s         
 
 Vector   42  Occ=2.000000D+00  E=-8.874393D-01  Symmetry=hg
              MO Center= -1.3D-14, -3.6D-15,  4.4D-15, r^2= 1.3D+01
   Bfn.  Coefficient  Atom+Function         Bfn.  Coefficient  Atom+Function  
  ----- ------------  ---------------      ----- ------------  ---------------
    25     -0.131531   4 C  s               313     -0.131531  40 C  s         
    17      0.129374   3 C  s               161      0.129231  21 C  s         
   281      0.129374  36 C  s               393      0.129231  50 C  s         
   217     -0.125074  28 C  s               257     -0.125074  33 C  s         
   132     -0.124291  17 C  pz              388      0.124291  49 C  pz        
 
 Vector   43  Occ=2.000000D+00  E=-8.874393D-01  Symmetry=hg
              MO Center= -1.9D-15, -6.9D-16,  2.6D-16, r^2= 1.3D+01
   Bfn.  Coefficient  Atom+Function         Bfn.  Coefficient  Atom+Function  
  ----- ------------  ---------------      ----- ------------  ---------------
    89     -0.141319  12 C  s               409     -0.141319  52 C  s         
   353     -0.138298  45 C  s               473     -0.138298  60 C  s         
    81      0.132936  11 C  s               417      0.132936  53 C  s         
 
 Vector   44  Occ=2.000000D+00  E=-8.874393D-01  Symmetry=hg
              MO Center=  3.7D-15,  1.3D-14,  1.9D-14, r^2= 1.3D+01
   Bfn.  Coefficient  Atom+Function         Bfn.  Coefficient  Atom+Function  
  ----- ------------  ---------------      ----- ------------  ---------------
     1      0.138114   1 C  s               297      0.138114  38 C  s         
   121     -0.130895  16 C  s               233      0.131510  30 C  s         
   241     -0.130895  31 C  s               273      0.131510  35 C  s         
 
 Vector   45  Occ=2.000000D+00  E=-8.367057D-01  Symmetry=ag
              MO Center=  5.1D-16,  2.1D-16, -2.0D-15, r^2= 1.3D+01
   Bfn.  Coefficient  Atom+Function         Bfn.  Coefficient  Atom+Function  
  ----- ------------  ---------------      ----- ------------  ---------------
    67     -0.089831   9 C  py              147     -0.089831  19 C  py        
   203      0.089831  26 C  py              234      0.089602  30 C  px        
   274     -0.089602  35 C  px              338     -0.089602  43 C  px        
   371      0.089831  47 C  py              450      0.089602  57 C  px        
     2      0.084750   1 C  px              298     -0.084750  38 C  px        
 
 Vector   46  Occ=2.000000D+00  E=-7.910836D-01  Symmetry=gg
              MO Center=  2.0D-15, -2.7D-15, -2.0D-15, r^2= 1.3D+01
   Bfn.  Coefficient  Atom+Function         Bfn.  Coefficient  Atom+Function  
  ----- ------------  ---------------      ----- ------------  ---------------
    93     -0.137927  12 C  s               413     -0.137927  52 C  s         
    19      0.128592   3 C  py              283     -0.128592  36 C  py        
   349     -0.127042  44 C  s               445     -0.127042  56 C  s         
   149     -0.125300  19 C  s               373     -0.125300  47 C  s         
 
 Vector   47  Occ=2.000000D+00  E=-7.910836D-01  Symmetry=gg
              MO Center= -2.1D-15,  9.0D-15, -9.2D-15, r^2= 1.3D+01
   Bfn.  Coefficient  Atom+Function         Bfn.  Coefficient  Atom+Function  
  ----- ------------  ---------------      ----- ------------  ---------------
     3      0.153515   1 C  py              299     -0.153515  38 C  py        
 
 Vector   48  Occ=2.000000D+00  E=-7.910836D-01  Symmetry=gg
              MO Center=  5.2D-14, -2.9D-14, -1.6D-15, r^2= 1.3D+01
   Bfn.  Coefficient  Atom+Function         Bfn.  Coefficient  Atom+Function  
  ----- ------------  ---------------      ----- ------------  ---------------
   139      0.118638  18 C  py              379     -0.118638  48 C  py        
   341     -0.115766  43 C  s               453     -0.115766  57 C  s         
    29      0.111293   4 C  s               148      0.111290  19 C  pz        
   317      0.111293  40 C  s               372     -0.111290  47 C  pz        
 
 Vector   49  Occ=2.000000D+00  E=-7.910836D-01  Symmetry=gg
              MO Center=  1.6D-14,  5.7D-14, -1.3D-14, r^2= 1.3D+01
   Bfn.  Coefficient  Atom+Function         Bfn.  Coefficient  Atom+Function  
  ----- ------------  ---------------      ----- ------------  ---------------
    37      0.135999   5 C  s               309      0.135999  39 C  s         
    91      0.126526  12 C  py              411     -0.126526  52 C  py        
   141      0.123572  18 C  s               381      0.123572  48 C  s         
   346      0.122579  44 C  px              442     -0.122579  56 C  px        
 
 Vector   50  Occ=2.000000D+00  E=-7.678552D-01  Symmetry=hu
              MO Center= -4.5D-15,  1.2D-15,  2.2D-15, r^2= 1.3D+01
   Bfn.  Coefficient  Atom+Function         Bfn.  Coefficient  Atom+Function  
  ----- ------------  ---------------      ----- ------------  ---------------
    89      0.141518  12 C  s               409     -0.141518  52 C  s         
    73      0.135703  10 C  s               193     -0.135703  25 C  s         
     1      0.127949   1 C  s               297     -0.127949  38 C  s         
 
 Vector   51  Occ=2.000000D+00  E=-7.678552D-01  Symmetry=hu
              MO Center= -1.9D-15,  1.4D-14,  1.6D-14, r^2= 1.3D+01
   Bfn.  Coefficient  Atom+Function         Bfn.  Coefficient  Atom+Function  
  ----- ------------  ---------------      ----- ------------  ---------------
   121      0.142471  16 C  s               241     -0.142471  31 C  s         
    49     -0.129208   7 C  s               177      0.129208  23 C  s         
   338     -0.129057  43 C  px              450     -0.129057  57 C  px        
 
 Vector   52  Occ=2.000000D+00  E=-7.678552D-01  Symmetry=hu
              MO Center= -2.5D-14,  7.3D-15,  2.0D-14, r^2= 1.3D+01
   Bfn.  Coefficient  Atom+Function         Bfn.  Coefficient  Atom+Function  
  ----- ------------  ---------------      ----- ------------  ---------------
   217      0.134456  28 C  s               257     -0.134456  33 C  s         
   225     -0.121423  29 C  s               249      0.121423  32 C  s         
   353      0.121609  45 C  s               473     -0.121609  60 C  s         
 
 Vector   53  Occ=2.000000D+00  E=-7.678552D-01  Symmetry=hu
              MO Center= -3.9D-15, -2.8D-14,  5.5D-15, r^2= 1.3D+01
   Bfn.  Coefficient  Atom+Function         Bfn.  Coefficient  Atom+Function  
  ----- ------------  ---------------      ----- ------------  ---------------
   209      0.146296  27 C  s               265     -0.146296  34 C  s         
   345     -0.140218  44 C  s               441      0.140218  56 C  s         
 
 Vector   54  Occ=2.000000D+00  E=-7.678552D-01  Symmetry=hu
              MO Center= -1.0D-14,  5.5D-14,  1.2D-14, r^2= 1.3D+01
   Bfn.  Coefficient  Atom+Function         Bfn.  Coefficient  Atom+Function  
  ----- ------------  ---------------      ----- ------------  ---------------
   233     -0.135704  30 C  s               273      0.135704  35 C  s         
   337     -0.133231  43 C  s               449      0.133231  57 C  s         
   105      0.123663  14 C  s               113     -0.123062  15 C  s         
   425      0.123062  54 C  s               433     -0.123663  55 C  s         
 
 Vector   55  Occ=2.000000D+00  E=-7.382852D-01  Symmetry=t1u
              MO Center=  8.8D-16,  2.9D-16, -2.8D-16, r^2= 1.3D+01
   Bfn.  Coefficient  Atom+Function         Bfn.  Coefficient  Atom+Function  
  ----- ------------  ---------------      ----- ------------  ---------------
     2      0.106215   1 C  px              298      0.106215  38 C  px        
    35     -0.104331   5 C  py              307     -0.104331  39 C  py        
    11      0.101533   2 C  py              291      0.101533  37 C  py        
    53     -0.100144   7 C  s               181      0.100144  23 C  s         
   357     -0.100420  45 C  s               477      0.100420  60 C  s         
 
 Vector   56  Occ=2.000000D+00  E=-7.382852D-01  Symmetry=t1u
              MO Center=  8.1D-16,  1.2D-15, -4.7D-15, r^2= 1.3D+01
   Bfn.  Coefficient  Atom+Function         Bfn.  Coefficient  Atom+Function  
  ----- ------------  ---------------      ----- ------------  ---------------
   140      0.130605  18 C  pz              380      0.130605  48 C  pz        
    60      0.129000   8 C  pz              172      0.129000  22 C  pz        
    67     -0.124062   9 C  py              203     -0.124062  26 C  py        
   147      0.119806  19 C  py              371      0.119806  47 C  py        
   108     -0.117707  14 C  pz              436     -0.117707  55 C  pz        
 
 Vector   57  Occ=2.000000D+00  E=-7.382852D-01  Symmetry=t1u
              MO Center= -1.6D-16,  2.3D-15,  3.0D-15, r^2= 1.3D+01
   Bfn.  Coefficient  Atom+Function         Bfn.  Coefficient  Atom+Function  
  ----- ------------  ---------------      ----- ------------  ---------------
   212      0.129890  27 C  pz              268      0.129890  34 C  pz        
    52      0.127272   7 C  pz              180      0.127272  23 C  pz        
   348     -0.121685  44 C  pz              444     -0.121685  56 C  pz        
    42      0.120896   6 C  px              186      0.120896  24 C  px        
 
 Vector   58  Occ=2.000000D+00  E=-6.990950D-01  Symmetry=t2u
              MO Center= -9.0D-17,  3.7D-16,  1.1D-15, r^2= 1.3D+01
   Bfn.  Coefficient  Atom+Function         Bfn.  Coefficient  Atom+Function  
  ----- ------------  ---------------      ----- ------------  ---------------
   122      0.117280  16 C  px              242      0.117280  31 C  px        
 
 Vector   59  Occ=2.000000D+00  E=-6.990950D-01  Symmetry=t2u
              MO Center= -4.4D-16, -1.5D-15, -1.6D-15, r^2= 1.3D+01
   Bfn.  Coefficient  Atom+Function         Bfn.  Coefficient  Atom+Function  
  ----- ------------  ---------------      ----- ------------  ---------------
   140      0.113350  18 C  pz              380      0.113350  48 C  pz        
   356      0.112064  45 C  pz              476      0.112064  60 C  pz        
   107     -0.104058  14 C  py              338     -0.103647  43 C  px        
   435     -0.104058  55 C  py              450     -0.103647  57 C  px        
 
 Vector   60  Occ=2.000000D+00  E=-6.990950D-01  Symmetry=t2u
              MO Center= -3.7D-15,  1.3D-15, -1.6D-14, r^2= 1.3D+01
   Bfn.  Coefficient  Atom+Function         Bfn.  Coefficient  Atom+Function  
  ----- ------------  ---------------      ----- ------------  ---------------
    52      0.108813   7 C  pz              132      0.108535  17 C  pz        
   180      0.108813  23 C  pz              210      0.108403  27 C  px        
   266      0.108403  34 C  px              388      0.108535  49 C  pz        
    67     -0.106439   9 C  py              203     -0.106439  26 C  py        
   147      0.105749  19 C  py              346      0.106161  44 C  px        
 
 Vector   61  Occ=2.000000D+00  E=-6.798972D-01  Symmetry=ag
              MO Center=  8.0D-17,  8.3D-17,  5.6D-17, r^2= 1.4D+01
   Bfn.  Coefficient  Atom+Function         Bfn.  Coefficient  Atom+Function  
  ----- ------------  ---------------      ----- ------------  ---------------
   211      0.074656  27 C  py              267     -0.074656  34 C  py        
   347      0.074656  44 C  py              443     -0.074656  56 C  py        
   106      0.073120  14 C  px              114      0.073120  15 C  px        
   426     -0.073120  54 C  px              434     -0.073120  55 C  px        
     4      0.070358   1 C  pz               12      0.070358   2 C  pz        
 
 Vector   62  Occ=2.000000D+00  E=-6.715111D-01  Symmetry=gu
              MO Center=  6.4D-16,  1.6D-15,  1.4D-15, r^2= 1.3D+01
   Bfn.  Coefficient  Atom+Function         Bfn.  Coefficient  Atom+Function  
  ----- ------------  ---------------      ----- ------------  ---------------
   122      0.144335  16 C  px              242      0.144335  31 C  px        
   236      0.143217  30 C  pz              276      0.143217  35 C  pz        
   115      0.134500  15 C  py              427      0.134500  54 C  py        
 
[...]
  ----- ------------  ---------------      ----- ------------  ---------------
   141      1.196055  18 C  s               381     -1.196055  48 C  s         
   157      1.181746  20 C  s               365     -1.181746  46 C  s         
    77      1.128297  10 C  s               197     -1.128297  25 C  s         
    61      1.113988   8 C  s               173     -1.113988  22 C  s         
   213      1.034009  27 C  s               269     -1.034009  34 C  s         
 
 Vector  183  Occ=0.000000D+00  E= 4.180990D-01  Symmetry=t2u
              MO Center= -1.3D-13,  1.0D-14,  6.1D-15, r^2= 2.0D+01
   Bfn.  Coefficient  Atom+Function         Bfn.  Coefficient  Atom+Function  
  ----- ------------  ---------------      ----- ------------  ---------------
    85      1.154934  11 C  s               109      1.157580  14 C  s         
   421     -1.154934  53 C  s               437     -1.157580  55 C  s         
    93      1.084847  12 C  s               101      1.080565  13 C  s         
   405     -1.080565  51 C  s               413     -1.084847  52 C  s         
   117      1.037249  15 C  s               429     -1.037249  54 C  s         
 
 Vector  184  Occ=0.000000D+00  E= 4.180990D-01  Symmetry=t2u
              MO Center= -6.1D-14,  6.9D-14,  4.0D-14, r^2= 2.0D+01
   Bfn.  Coefficient  Atom+Function         Bfn.  Coefficient  Atom+Function  
  ----- ------------  ---------------      ----- ------------  ---------------
     5      1.220853   1 C  s               301     -1.220853  38 C  s         
   341     -1.187346  43 C  s               453      1.187346  57 C  s         
   237      1.145054  30 C  s               277     -1.145054  35 C  s         
    29      1.091865   4 C  s               317     -1.091865  40 C  s         
   325     -1.058358  41 C  s               469      1.058358  59 C  s         
 
 Vector  185  Occ=0.000000D+00  E= 4.245992D-01  Symmetry=t1u
              MO Center= -1.2D-13, -1.1D-13,  4.2D-14, r^2= 1.9D+01
   Bfn.  Coefficient  Atom+Function         Bfn.  Coefficient  Atom+Function  
  ----- ------------  ---------------      ----- ------------  ---------------
   117     -1.278539  15 C  s               429      1.278539  54 C  s         
    61      1.262952   8 C  s               173     -1.262952  22 C  s         
   213     -1.266803  27 C  s               269      1.266803  34 C  s         
   349      1.243861  44 C  s               445     -1.243861  56 C  s         
   221     -1.186095  28 C  s               261      1.186095  33 C  s         
 
 Vector  186  Occ=0.000000D+00  E= 4.245992D-01  Symmetry=t1u
              MO Center=  4.8D-14,  4.9D-15,  3.0D-14, r^2= 1.9D+01
   Bfn.  Coefficient  Atom+Function         Bfn.  Coefficient  Atom+Function  
  ----- ------------  ---------------      ----- ------------  ---------------
   165     -1.384801  21 C  s               397      1.384801  50 C  s         
    45      1.356763   6 C  s               189     -1.356763  24 C  s         
    93      1.314172  12 C  s               341     -1.314462  43 C  s         
   413     -1.314172  52 C  s               453      1.314462  57 C  s         
   237      1.268855  30 C  s               277     -1.268855  35 C  s         
 
 Vector  187  Occ=0.000000D+00  E= 4.245992D-01  Symmetry=t1u
              MO Center= -6.1D-14,  2.5D-14, -2.7D-13, r^2= 1.9D+01
   Bfn.  Coefficient  Atom+Function         Bfn.  Coefficient  Atom+Function  
  ----- ------------  ---------------      ----- ------------  ---------------
   149      1.409703  19 C  s               373     -1.409703  47 C  s         
    69      1.389757   9 C  s               205     -1.389757  26 C  s         
   125     -1.268087  16 C  s               245      1.268087  31 C  s         
   325     -1.227556  41 C  s               469      1.227556  59 C  s         
    13     -1.159395   2 C  s               229     -1.164811  29 C  s         
 
 Vector  188  Occ=0.000000D+00  E= 4.818198D-01  Symmetry=ag
              MO Center= -9.2D-15,  3.0D-15,  1.6D-15, r^2= 2.0D+01
   Bfn.  Coefficient  Atom+Function         Bfn.  Coefficient  Atom+Function  
  ----- ------------  ---------------      ----- ------------  ---------------
    71     -0.156789   9 C  py              151     -0.156789  19 C  py        
   207      0.156789  26 C  py              238      0.156086  30 C  px        
   278     -0.156086  35 C  px              342     -0.156086  43 C  px        
   375      0.156789  47 C  py              454      0.156086  57 C  px        
 
 Vector  189  Occ=0.000000D+00  E= 4.830330D-01  Symmetry=hg
              MO Center= -2.1D-14,  1.2D-14,  7.8D-16, r^2= 1.8D+01
   Bfn.  Coefficient  Atom+Function         Bfn.  Coefficient  Atom+Function  
  ----- ------------  ---------------      ----- ------------  ---------------
    93      0.427996  12 C  s               413      0.427996  52 C  s         
   157     -0.378909  20 C  s               365     -0.378909  46 C  s         
    77     -0.279802  10 C  s                85      0.279842  11 C  s         
   197     -0.279802  25 C  s               421      0.279842  53 C  s         
   165     -0.273495  21 C  s               397     -0.273495  50 C  s         
 
 Vector  190  Occ=0.000000D+00  E= 4.830330D-01  Symmetry=hg
              MO Center=  5.4D-15, -2.0D-15,  3.1D-15, r^2= 1.8D+01
   Bfn.  Coefficient  Atom+Function         Bfn.  Coefficient  Atom+Function  
  ----- ------------  ---------------      ----- ------------  ---------------
     5      0.393882   1 C  s               301      0.393882  38 C  s         
   141     -0.368070  18 C  s               381     -0.368070  48 C  s         
   133     -0.325408  17 C  s               389     -0.325408  49 C  s         
    13      0.296014   2 C  s                29      0.297302   4 C  s         
   293      0.296014  37 C  s               317      0.297302  40 C  s         
 
 Vector  191  Occ=0.000000D+00  E= 4.830330D-01  Symmetry=hg
              MO Center=  9.4D-16,  4.4D-16,  3.5D-15, r^2= 1.8D+01
   Bfn.  Coefficient  Atom+Function         Bfn.  Coefficient  Atom+Function  
  ----- ------------  ---------------      ----- ------------  ---------------
    53      0.412763   7 C  s               181      0.412763  23 C  s         
    45      0.352431   6 C  s               189      0.352431  24 C  s         
    77      0.313201  10 C  s               197      0.313201  25 C  s         
   165     -0.310531  21 C  s               397     -0.310531  50 C  s         
    69      0.295515   9 C  s               205      0.295515  26 C  s         
 
 Vector  192  Occ=0.000000D+00  E= 4.830330D-01  Symmetry=hg
              MO Center= -6.2D-15,  2.2D-14, -1.3D-14, r^2= 1.8D+01
   Bfn.  Coefficient  Atom+Function         Bfn.  Coefficient  Atom+Function  
  ----- ------------  ---------------      ----- ------------  ---------------
   229      0.400942  29 C  s               253      0.400942  32 C  s         
   213      0.348973  27 C  s               269      0.348973  34 C  s         
   125      0.328562  16 C  s               245      0.328562  31 C  s         
   325     -0.329474  41 C  s               469     -0.329474  59 C  s         
   221      0.303279  28 C  s               261      0.303279  33 C  s         
 
 Vector  193  Occ=0.000000D+00  E= 4.830330D-01  Symmetry=hg
              MO Center=  1.7D-14,  6.3D-14, -9.2D-15, r^2= 1.8D+01
   Bfn.  Coefficient  Atom+Function         Bfn.  Coefficient  Atom+Function  
  ----- ------------  ---------------      ----- ------------  ---------------
   349      0.416225  44 C  s               445      0.416225  56 C  s         
   357      0.357602  45 C  s               477      0.357602  60 C  s         
   341      0.321358  43 C  s               453      0.321358  57 C  s         
   101     -0.315982  13 C  s               405     -0.315982  51 C  s         
    13     -0.310932   2 C  s               293     -0.310932  37 C  s         
 
 Vector  194  Occ=0.000000D+00  E= 4.873166D-01  Symmetry=hu
              MO Center= -7.8D-14,  3.6D-14,  3.7D-14, r^2= 1.7D+01
   Bfn.  Coefficient  Atom+Function         Bfn.  Coefficient  Atom+Function  
  ----- ------------  ---------------      ----- ------------  ---------------
     7      1.698963   1 C  py              303      1.698963  38 C  py        
    69      1.609813   9 C  s               205     -1.609813  26 C  s         
   341     -1.575084  43 C  s               453      1.575084  57 C  s         
   149      1.516666  19 C  s               373     -1.516666  47 C  s         
    14     -1.473583   2 C  px              294     -1.473583  37 C  px        
 
 Vector  195  Occ=0.000000D+00  E= 4.873166D-01  Symmetry=hu
              MO Center= -2.1D-13, -5.5D-15, -1.5D-13, r^2= 1.7D+01
   Bfn.  Coefficient  Atom+Function         Bfn.  Coefficient  Atom+Function  
  ----- ------------  ---------------      ----- ------------  ---------------
    21      1.739516   3 C  s               285     -1.739516  36 C  s         
   357      1.535696  45 C  s               477     -1.535696  60 C  s         
   109      1.442350  14 C  s               437     -1.442350  55 C  s         
    48      1.422935   6 C  pz              192      1.422935  24 C  pz        
   232     -1.380118  29 C  pz              256     -1.380118  32 C  pz        
 
 Vector  196  Occ=0.000000D+00  E= 4.873166D-01  Symmetry=hu
              MO Center= -9.8D-15, -2.9D-14, -1.9D-15, r^2= 1.7D+01
   Bfn.  Coefficient  Atom+Function         Bfn.  Coefficient  Atom+Function  
  ----- ------------  ---------------      ----- ------------  ---------------
   157      1.744423  20 C  s               365     -1.744423  46 C  s         
   350      1.652586  44 C  px              446      1.652586  56 C  px        
    93     -1.567064  12 C  s               413      1.567064  52 C  s         
    61     -1.434702   8 C  s               173      1.434702  22 C  s         
     5     -1.420801   1 C  s               301      1.420801  38 C  s         
 
 Vector  197  Occ=0.000000D+00  E= 4.873166D-01  Symmetry=hu
              MO Center= -3.8D-14, -4.4D-15, -5.7D-14, r^2= 1.7D+01
   Bfn.  Coefficient  Atom+Function         Bfn.  Coefficient  Atom+Function  
  ----- ------------  ---------------      ----- ------------  ---------------
    37      1.621242   5 C  s               309     -1.621242  39 C  s         
   333     -1.618417  42 C  s               461      1.618417  58 C  s         
   133      1.485684  17 C  s               389     -1.485684  49 C  s         
   221      1.359123  28 C  s               261     -1.359123  33 C  s         
   143      1.349050  18 C  py              383      1.349050  48 C  py        
 
 Vector  198  Occ=0.000000D+00  E= 4.873166D-01  Symmetry=hu
              MO Center=  3.1D-14,  2.8D-13, -8.3D-14, r^2= 1.7D+01
   Bfn.  Coefficient  Atom+Function         Bfn.  Coefficient  Atom+Function  
  ----- ------------  ---------------      ----- ------------  ---------------
   349      1.726673  44 C  s               445     -1.726673  56 C  s         
    13      1.644286   2 C  s               293     -1.644286  37 C  s         
    72     -1.594706   9 C  pz              208     -1.594706  26 C  pz        
   213     -1.541890  27 C  s               269      1.541890  34 C  s         
   141      1.271327  18 C  s               381     -1.271327  48 C  s         
 
 Vector  199  Occ=0.000000D+00  E= 5.108879D-01  Symmetry=hg
              MO Center=  5.7D-16,  1.2D-15,  5.2D-15, r^2= 2.2D+01
   Bfn.  Coefficient  Atom+Function         Bfn.  Coefficient  Atom+Function  
  ----- ------------  ---------------      ----- ------------  ---------------
   333      1.003046  42 C  s               461      1.003046  58 C  s         
   157      0.952816  20 C  s               365      0.952816  46 C  s         
    93      0.878509  12 C  s               413      0.878509  52 C  s         
    77      0.847982  10 C  s               197      0.847982  25 C  s         
   125      0.741185  16 C  s               245      0.741185  31 C  s         
 

 center of mass
 --------------
 x =   0.00000000 y =   0.00000000 z =   0.00000000

 moments of inertia (a.u.)
 ------------------
       21417.006886203664           0.000000000000           0.000000000006
           0.000000000000       21417.006886203668           0.000000000001
           0.000000000006           0.000000000001       21417.006886203675
 
  Mulliken analysis of the total density
  --------------------------------------

    Atom       Charge   Shell Charges
 -----------   ------   -------------------------------------------------------
    1 C    4     4.00   1.13  2.57 -0.31  0.61
    2 C    4     4.00   1.13  2.57 -0.31  0.61
    3 C    4     4.00   1.13  2.57 -0.31  0.61
    4 C    4     4.00   1.13  2.57 -0.31  0.61
    5 C    4     4.00   1.13  2.57 -0.31  0.61
    6 C    4     4.00   1.13  2.57 -0.31  0.61
    7 C    4     4.00   1.13  2.57 -0.31  0.61
    8 C    4     4.00   1.13  2.57 -0.31  0.61
    9 C    4     4.00   1.13  2.57 -0.31  0.61
   10 C    4     4.00   1.13  2.57 -0.31  0.61
   11 C    4     4.00   1.13  2.57 -0.31  0.61
   12 C    4     4.00   1.13  2.57 -0.31  0.61
   13 C    4     4.00   1.13  2.57 -0.31  0.61
   14 C    4     4.00   1.13  2.57 -0.31  0.61
   15 C    4     4.00   1.13  2.57 -0.31  0.61
   16 C    4     4.00   1.13  2.57 -0.31  0.61
   17 C    4     4.00   1.13  2.57 -0.31  0.61
   18 C    4     4.00   1.13  2.57 -0.31  0.61
   19 C    4     4.00   1.13  2.57 -0.31  0.61
   20 C    4     4.00   1.13  2.57 -0.31  0.61
   21 C    4     4.00   1.13  2.57 -0.31  0.61
   22 C    4     4.00   1.13  2.57 -0.31  0.61
   23 C    4     4.00   1.13  2.57 -0.31  0.61
   24 C    4     4.00   1.13  2.57 -0.31  0.61
   25 C    4     4.00   1.13  2.57 -0.31  0.61
   26 C    4     4.00   1.13  2.57 -0.31  0.61
   27 C    4     4.00   1.13  2.57 -0.31  0.61
   28 C    4     4.00   1.13  2.57 -0.31  0.61
   29 C    4     4.00   1.13  2.57 -0.31  0.61
   30 C    4     4.00   1.13  2.57 -0.31  0.61
   31 C    4     4.00   1.13  2.57 -0.31  0.61
   32 C    4     4.00   1.13  2.57 -0.31  0.61
   33 C    4     4.00   1.13  2.57 -0.31  0.61
   34 C    4     4.00   1.13  2.57 -0.31  0.61
   35 C    4     4.00   1.13  2.57 -0.31  0.61
   36 C    4     4.00   1.13  2.57 -0.31  0.61
   37 C    4     4.00   1.13  2.57 -0.31  0.61
   38 C    4     4.00   1.13  2.57 -0.31  0.61
   39 C    4     4.00   1.13  2.57 -0.31  0.61
   40 C    4     4.00   1.13  2.57 -0.31  0.61
   41 C    4     4.00   1.13  2.57 -0.31  0.61
   42 C    4     4.00   1.13  2.57 -0.31  0.61
   43 C    4     4.00   1.13  2.57 -0.31  0.61
   44 C    4     4.00   1.13  2.57 -0.31  0.61
   45 C    4     4.00   1.13  2.57 -0.31  0.61
   46 C    4     4.00   1.13  2.57 -0.31  0.61
   47 C    4     4.00   1.13  2.57 -0.31  0.61
   48 C    4     4.00   1.13  2.57 -0.31  0.61
   49 C    4     4.00   1.13  2.57 -0.31  0.61
   50 C    4     4.00   1.13  2.57 -0.31  0.61
   51 C    4     4.00   1.13  2.57 -0.31  0.61
   52 C    4     4.00   1.13  2.57 -0.31  0.61
   53 C    4     4.00   1.13  2.57 -0.31  0.61
   54 C    4     4.00   1.13  2.57 -0.31  0.61
   55 C    4     4.00   1.13  2.57 -0.31  0.61
   56 C    4     4.00   1.13  2.57 -0.31  0.61
   57 C    4     4.00   1.13  2.57 -0.31  0.61
   58 C    4     4.00   1.13  2.57 -0.31  0.61
   59 C    4     4.00   1.13  2.57 -0.31  0.61
   60 C    4     4.00   1.13  2.57 -0.31  0.61
 
       Multipole analysis of the density wrt the origin
       ------------------------------------------------
 
     L   x y z        total         open         nuclear
     -   - - -        -----         ----         -------
     0   0 0 0      0.000000      0.000000    240.000000
 
     1   1 0 0      0.000000      0.000000      0.000000
     1   0 1 0     -0.000000      0.000000     -0.000000
     1   0 0 1      0.000000      0.000000      0.000000
 
     2   2 0 0   -268.728273      0.000000   3569.501148
     2   1 1 0     -0.000000      0.000000      0.000000
     2   1 0 1     -0.000000      0.000000     -0.000000
     2   0 2 0   -268.728273      0.000000   3569.501148
     2   0 1 1     -0.000000      0.000000     -0.000000
     2   0 0 2   -268.728273      0.000000   3569.501148
 

 Task  times  cpu:      117.6s     wall:      135.4s
 
 
                                NWChem Input Module
                                -------------------
 
 
 Summary of allocated global arrays
-----------------------------------
  No active global arrays



                         GA Statistics for process    0
                         ------------------------------

       create   destroy   get      put      acc     scatter   gather  read&inc
calls:  419      419     1.11e+05 3.68e+04 2.80e+06    0        0     2.71e+04 
number of processes/call 5.61e+13 -2.46e+14 1.25e+12 0.00e+00 0.00e+00
bytes total:             6.12e+08 2.47e+08 1.56e+09 0.00e+00 0.00e+00 2.17e+05
bytes remote:            2.42e+08 3.39e+07 5.40e+07 0.00e+00 0.00e+00 0.00e+00
Max memory consumed for GA by this process: 16896000 bytes
 
MA_summarize_allocated_blocks: starting scan ...
MA_summarize_allocated_blocks: scan completed: 0 heap blocks, 0 stack blocks
MA usage statistics:

	allocation statistics:
					      heap	     stack
					      ----	     -----
	current number of blocks	         0	         0
	maximum number of blocks	        40	        14
	current total bytes		         0	         0
	maximum total bytes		    382520	  22521912
	maximum total K-bytes		       383	     22522
	maximum total M-bytes		         1	        23
 
 
                                     CITATION
                                     --------
                Please cite the following reference when publishing
                           results obtained with NWChem:
 
                 M. Valiev, E.J. Bylaska, N. Govind, K. Kowalski,
              T.P. Straatsma, H.J.J. van Dam, D. Wang, J. Nieplocha,
                        E. Apra, T.L. Windus, W.A. de Jong
                 "NWChem: a comprehensive and scalable open-source
                  solution for large scale molecular simulations"
                      Comput. Phys. Commun. 181, 1477 (2010)
                           doi:10.1016/j.cpc.2010.04.018
 
                                      AUTHORS
                                      -------
     E. Apra, E. J. Bylaska, N. Govind, K. Kowalski, M. Valiev, W. A. de Jong,
      T. P. Straatsma, H. J. J. van Dam, D. Wang, T. L. Windus, N. P. Bauman,
       A. Panyala, J. Hammond, J. Autschbach, K. Bhaskaran-Nair, J. Brabec,
    K. Lopata, S. A. Fischer, S. Krishnamoorthy, M. Jacquelin, W. Ma, M. Klemm,
       O. Villa, Y. Chen, V. Anisimov, F. Aquino, S. Hirata, M. T. Hackler,
          Eric Hermes, L. Janssen, J. E. Moore, J. C. Becca, V. Konjkov,
            D. Mejia-Rodriguez, T. Risthaus, M. Malagoli, A. Marenich,
   A. Otero-de-la-Roza, J. Mullin, P. Nichols, R. Peverati, J. Pittner, Y. Zhao,
        P.-D. Fan, A. Fonari, M. J. Williamson, R. J. Harrison, J. R. Rehr,
      M. Dupuis, D. Silverstein, D. M. A. Smith, J. Nieplocha, V. Tipparaju,
    M. Krishnan, B. E. Van Kuiken, A. Vazquez-Mayagoitia, L. Jensen, M. Swart,
      Q. Wu, T. Van Voorhis, A. A. Auer, M. Nooijen, L. D. Crosby, E. Brown,
      G. Cisneros, G. I. Fann, H. Fruchtl, J. Garza, K. Hirao, R. A. Kendall,
      J. A. Nichols, K. Tsemekhman, K. Wolinski, J. Anchell, D. E. Bernholdt,
      P. Borowski, T. Clark, D. Clerc, H. Dachsel, M. J. O. Deegan, K. Dyall,
    D. Elwood, E. Glendening, M. Gutowski, A. C. Hess, J. Jaffe, B. G. Johnson,
     J. Ju, R. Kobayashi, R. Kutteh, Z. Lin, R. Littlefield, X. Long, B. Meng,
      T. Nakajima, S. Niu, L. Pollack, M. Rosing, K. Glaesemann, G. Sandrone,
      M. Stave, H. Taylor, G. Thomas, J. H. van Lenthe, A. T. Wong, Z. Zhang.

 Total times  cpu:      117.7s     wall:      135.5s
