 argument  1 = water.nw



============================== echo of input deck ==============================
#
# Delta-function kick simulation on a water molecule
# using a molecular orbital complex absorbing potential
# (MO CAP) to remove the high virtual states.
#
# The basis here is far too small to get a continuum falloff,
# this gives you the basic idea.
#
# For comparison, you might want to run with the MO CAP turned off.
#
# see: K. Lopata and N. Govind, J. Chem. Theory Comput. 9, 4939 (2013)
#
echo
title "Water MO CAP"
start water
permanent_dir ./perm
scratch_dir ./scratch

## aug-cc-pvtz/PBE0 optimized
geometry "system" units angstroms noautosym noautoz nocenter
  O     0.00000043     0.11188833     0.00000000
  H     0.76000350    -0.47275229     0.00000000
  H    -0.76000393    -0.47275063     0.00000000
end

set geometry "system"

basis spherical
  * library 6-31G*
end

dft
  xc pbe0
  convergence density 1d-9
end
task dft

rt_tddft
  dt 0.2
  tmax 250.0

  print dipole field energy charge

  mocap
    expconst 1.0     # exponential constant for CAP
    emin 0.5         # any MO with eigenvalue >= 0.5 Ha will have CAP applied to it
    prefac 1.0       # prefactor for exponential
    maxval 100.0     # clamp CAP at this value (in Ha)
    on               # needed to activate CAP
    nochecks         # disable checks for speed
    noprint          # don't print CAP value
  end

  field "kick"
    type delta
    max 0.0001
    polarization z
  end

  excite "system" with "kick"
end
task dft rt_tddft

================================================================================


                                         
                                         


              Northwest Computational Chemistry Package (NWChem) 6.6
              ------------------------------------------------------


                    Environmental Molecular Sciences Laboratory
                       Pacific Northwest National Laboratory
                                Richland, WA 99352

                              Copyright (c) 1994-2015
                       Pacific Northwest National Laboratory
                            Battelle Memorial Institute

             NWChem is an open-source computational chemistry package
                        distributed under the terms of the
                      Educational Community License (ECL) 2.0
             A copy of the license is included with this distribution
                              in the LICENSE.TXT file

                                  ACKNOWLEDGMENT
                                  --------------

            This software and its documentation were developed at the
            EMSL at Pacific Northwest National Laboratory, a multiprogram
            national laboratory, operated for the U.S. Department of Energy
            by Battelle under Contract Number DE-AC05-76RL01830. Support
            for this work was provided by the Department of Energy Office
            of Biological and Environmental Research, Office of Basic
            Energy Sciences, and the Office of Advanced Scientific Computing.


           Job information
           ---------------

    hostname        = edge
    program         = /work/klopata/nwchem/nwchem-dev-checkin/bin/LINUX64/nwchem
    date            = Sat May 21 00:24:26 2016

    compiled        = Fri_May_20_23:18:38_2016
    source          = /work/klopata/nwchem/nwchem-dev-checkin
    nwchem branch   = Development
    nwchem revision = 28232
    ga revision     = 10646
    input           = water.nw
    prefix          = water.
    data base       = ./perm/water.db
    status          = startup
    nproc           =       16
    time left       =     -1s



           Memory information
           ------------------

    heap     =   13107200 doubles =    100.0 Mbytes
    stack    =   13107197 doubles =    100.0 Mbytes
    global   =   26214400 doubles =    200.0 Mbytes (distinct from heap & stack)
    total    =   52428797 doubles =    400.0 Mbytes
    verify   = yes
    hardfail = no 


           Directory information
           ---------------------

  0 permanent = ./perm
  0 scratch   = ./scratch




                                NWChem Input Module
                                -------------------


                                   Water MO CAP
                                   ------------

 Scaling coordinates for geometry "system" by  1.889725989
 (inverse scale =  0.529177249)



                              Geometry "system" -> ""
                              -----------------------

 Output coordinates in angstroms (scale by  1.889725989 to convert to a.u.)

  No.       Tag          Charge          X              Y              Z
 ---- ---------------- ---------- -------------- -------------- --------------
    1 O                    8.0000     0.00000043     0.11188833     0.00000000
    2 H                    1.0000     0.76000350    -0.47275229     0.00000000
    3 H                    1.0000    -0.76000393    -0.47275063     0.00000000

      Atomic Mass 
      ----------- 

      O                 15.994910
      H                  1.007825


 Effective nuclear repulsion energy (a.u.)       9.1782630098

            Nuclear Dipole moment (a.u.) 
            ----------------------------
        X                 Y               Z
 ---------------- ---------------- ----------------
     0.0000056881    -0.0952351600     0.0000000000


            XYZ format geometry
            -------------------
     3
 system
 O                     0.00000043     0.11188833     0.00000000
 H                     0.76000350    -0.47275229     0.00000000
 H                    -0.76000393    -0.47275063     0.00000000

 ==============================================================================
                                internuclear distances
 ------------------------------------------------------------------------------
       center one      |      center two      | atomic units |  angstroms
 ------------------------------------------------------------------------------
    2 H                |   1 O                |     1.81198  |     0.95886
    3 H                |   1 O                |     1.81198  |     0.95886
 ------------------------------------------------------------------------------
                         number of included internuclear distances:          2
 ==============================================================================



 ==============================================================================
                                 internuclear angles
 ------------------------------------------------------------------------------
        center 1       |       center 2       |       center 3       |  degrees
 ------------------------------------------------------------------------------
    2 H                |   1 O                |   3 H                |   104.86
 ------------------------------------------------------------------------------
                            number of included internuclear angles:          1
 ==============================================================================



  library name resolved from: environment
  library file name is: </work/klopata/nwchem/nwchem-dev-checkin/src/basis/libraries/>
  


 Summary of "ao basis" -> "" (spherical)
 ------------------------------------------------------------------------------
       Tag                 Description            Shells   Functions and Types
 ---------------- ------------------------------  ------  ---------------------
 *                           6-31G*                   on all atoms 



                                 NWChem DFT Module
                                 -----------------


                                   Water MO CAP


                      Basis "ao basis" -> "ao basis" (spherical)
                      -----
  O (Oxygen)
  ----------
            Exponent  Coefficients 
       -------------- ---------------------------------------------------------
  1 S  5.48467170E+03  0.001831
  1 S  8.25234950E+02  0.013950
  1 S  1.88046960E+02  0.068445
  1 S  5.29645000E+01  0.232714
  1 S  1.68975700E+01  0.470193
  1 S  5.79963530E+00  0.358521

  2 S  1.55396160E+01 -0.110778
  2 S  3.59993360E+00 -0.148026
  2 S  1.01376180E+00  1.130767

  3 P  1.55396160E+01  0.070874
  3 P  3.59993360E+00  0.339753
  3 P  1.01376180E+00  0.727159

  4 S  2.70005800E-01  1.000000

  5 P  2.70005800E-01  1.000000

  6 D  8.00000000E-01  1.000000

  H (Hydrogen)
  ------------
            Exponent  Coefficients 
       -------------- ---------------------------------------------------------
  1 S  1.87311370E+01  0.033495
  1 S  2.82539370E+00  0.234727
  1 S  6.40121700E-01  0.813757

  2 S  1.61277800E-01  1.000000



 Summary of "ao basis" -> "ao basis" (spherical)
 ------------------------------------------------------------------------------
       Tag                 Description            Shells   Functions and Types
 ---------------- ------------------------------  ------  ---------------------
 O                           6-31G*                  6       14   3s2p1d
 H                           6-31G*                  2        2   2s




 Summary of "ao basis" -> "ao basis" (spherical)
 ------------------------------------------------------------------------------
       Tag                 Description            Shells   Functions and Types
 ---------------- ------------------------------  ------  ---------------------
 O                           6-31G*                  6       14   3s2p1d
 H                           6-31G*                  2        2   2s


  Caching 1-el integrals 

            General Information
            -------------------
          SCF calculation type: DFT
          Wavefunction type:  closed shell.
          No. of atoms     :     3
          No. of electrons :    10
           Alpha electrons :     5
            Beta electrons :     5
          Charge           :     0
          Spin multiplicity:     1
          Use of symmetry is: off; symmetry adaption is: off
          Maximum number of iterations:  30
          AO basis - number of functions:    18
                     number of shells:    10
          Convergence on energy requested:  1.00D-06
          Convergence on density requested:  1.00D-09
          Convergence on gradient requested:  5.00D-04

              XC Information
              --------------
                         PBE0 Method XC Functional
                     Hartree-Fock (Exact) Exchange  0.250          
          PerdewBurkeErnzerhof Exchange Functional  0.750          
            Perdew 1991 LDA Correlation Functional  1.000 local    
           PerdewBurkeErnz. Correlation Functional  1.000 non-local

             Grid Information
             ----------------
          Grid used for XC integration:  medium    
          Radial quadrature: Mura-Knowles        
          Angular quadrature: Lebedev. 
          Tag              B.-S. Rad. Rad. Pts. Rad. Cut. Ang. Pts.
          ---              ---------- --------- --------- ---------
          O                   0.60       49           5.0       434
          H                   0.35       45           6.0       434
          Grid pruning is: on 
          Number of quadrature shells:   139
          Spatial weights used:  Erf1

          Convergence Information
          -----------------------
          Convergence aids based upon iterative change in 
          total energy or number of iterations. 
          Levelshifting, if invoked, occurs when the 
          HOMO/LUMO gap drops below (HL_TOL):  1.00D-02
          DIIS, if invoked, will attempt to extrapolate 
          using up to (NFOCK): 10 stored Fock matrices.

                    Damping( 0%)  Levelshifting(0.5)       DIIS
                  --------------- ------------------- ---------------
          dE  on:    start            ASAP                start   
          dE off:    2 iters         30 iters            30 iters 


      Screening Tolerance Information
      -------------------------------
          Density screening/tol_rho:  1.00D-10
          AO Gaussian exp screening on grid/accAOfunc:  14
          CD Gaussian exp screening on grid/accCDfunc:  20
          XC Gaussian exp screening on grid/accXCfunc:  20
          Schwarz screening/accCoul:  1.00D-08


      Superposition of Atomic Density Guess
      -------------------------------------

 Sum of atomic energies:         -75.75081731

      Non-variational initial energy
      ------------------------------

 Total energy =     -75.915907
 1-e energy   =    -121.707270
 2-e energy   =      36.613100
 HOMO         =      -0.469873
 LUMO         =       0.115703

   Time after variat. SCF:      0.1
   Time prior to 1st pass:      0.1

 #quartets = 1.540D+03 #integrals = 6.841D+03 #direct =  0.0% #cached =100.0%


 Integral file          = ./scratch/water.aoints.00
 Record size in doubles =  65536        No. of integs per rec  =  43688
 Max. records in memory =      2        Max. records in file   = 243723
 No. of bits per label  =      8        No. of bits per value  =     64


File balance: exchanges=     0  moved=     0  time=   0.0


 Grid_pts file          = ./scratch/water.gridpts.00
 Record size in doubles =  12289        No. of grid_pts per rec  =   3070
 Max. records in memory =      3        Max. recs in file   =   1299758


           Memory utilization after 1st SCF pass: 
           Heap Space remaining (MW):       12.94            12937664
          Stack Space remaining (MW):       13.11            13106964

   convergence    iter        energy       DeltaE   RMS-Dens  Diis-err    time
 ---------------- ----- ----------------- --------- --------- ---------  ------
 d= 0,ls=0.0,diis     1    -76.2867887660 -8.55D+01  3.37D-02  3.69D-01     0.1
 d= 0,ls=0.0,diis     2    -76.2864715388  3.17D-04  1.77D-02  4.11D-01     0.1
 d= 0,ls=0.0,diis     3    -76.3232396055 -3.68D-02  2.00D-03  6.82D-03     0.1
 d= 0,ls=0.0,diis     4    -76.3238525326 -6.13D-04  1.41D-04  3.35D-05     0.1
 d= 0,ls=0.0,diis     5    -76.3238559312 -3.40D-06  1.06D-05  6.28D-08     0.1
  Resetting Diis
 d= 0,ls=0.0,diis     6    -76.3238559391 -7.86D-09  1.28D-06  6.06D-10     0.2
 d= 0,ls=0.0,diis     7    -76.3238559392 -8.37D-11  1.01D-07  3.69D-12     0.2
 d= 0,ls=0.0,diis     8    -76.3238559392 -1.28D-13  5.67D-08  3.87D-12     0.2
 d= 0,ls=0.0,diis     9    -76.3238559392 -3.13D-13  1.07D-08  8.18D-14     0.2
 d= 0,ls=0.0,diis    10    -76.3238559392  1.42D-14  4.96D-10  3.08D-16     0.2


         Total DFT energy =      -76.323855939165
      One electron energy =     -123.088690821378
           Coulomb energy =       46.861534207315
    Exchange-Corr. energy =       -9.274962334935
 Nuclear repulsion energy =        9.178263009833

 Numeric. integr. density =       10.000001344388

     Total iterative time =      0.1s



                       DFT Final Molecular Orbital Analysis
                       ------------------------------------

 Vector    1  Occ=2.000000D+00  E=-1.920061D+01
              MO Center=  4.3D-07,  1.1D-01,  2.2D-17, r^2= 1.5D-02
   Bfn.  Coefficient  Atom+Function         Bfn.  Coefficient  Atom+Function  
  ----- ------------  ---------------      ----- ------------  ---------------
     1      0.995141  1 O  s                  2      0.027204  1 O  s          

 Vector    2  Occ=2.000000D+00  E=-1.026273D+00
              MO Center=  2.1D-07, -9.1D-02,  9.7D-16, r^2= 5.0D-01
   Bfn.  Coefficient  Atom+Function         Bfn.  Coefficient  Atom+Function  
  ----- ------------  ---------------      ----- ------------  ---------------
     6      0.473770  1 O  s                  2      0.463212  1 O  s          
     1     -0.211982  1 O  s                 15      0.138997  2 H  s          
    17      0.138997  3 H  s                  4     -0.123352  1 O  py         
     8     -0.065271  1 O  py         

 Vector    3  Occ=2.000000D+00  E=-5.356143D-01
              MO Center=  1.8D-07, -1.1D-01,  2.2D-16, r^2= 7.8D-01
   Bfn.  Coefficient  Atom+Function         Bfn.  Coefficient  Atom+Function  
  ----- ------------  ---------------      ----- ------------  ---------------
     3      0.516148  1 O  px                 7      0.277444  1 O  px         
    15      0.238142  2 H  s                 17     -0.238142  3 H  s          
    16      0.128648  2 H  s                 18     -0.128648  3 H  s          
    10     -0.042362  1 O  d -2       

 Vector    4  Occ=2.000000D+00  E=-3.837043D-01
              MO Center=  5.2D-07,  1.9D-01, -1.6D-15, r^2= 6.8D-01
   Bfn.  Coefficient  Atom+Function         Bfn.  Coefficient  Atom+Function  
  ----- ------------  ---------------      ----- ------------  ---------------
     4      0.552913  1 O  py                 8      0.389019  1 O  py         
     6      0.333212  1 O  s                  2      0.186110  1 O  s          
    15     -0.141486  2 H  s                 17     -0.141486  3 H  s          
    16     -0.092559  2 H  s                 18     -0.092559  3 H  s          
     1     -0.081346  1 O  s                 14      0.031605  1 O  d  2       

 Vector    5  Occ=2.000000D+00  E=-3.040874D-01
              MO Center=  4.1D-07,  9.1D-02, -3.9D-16, r^2= 6.0D-01
   Bfn.  Coefficient  Atom+Function         Bfn.  Coefficient  Atom+Function  
  ----- ------------  ---------------      ----- ------------  ---------------
     5      0.640482  1 O  pz                 9      0.510440  1 O  pz         
    11     -0.036212  1 O  d -1       

 Vector    6  Occ=0.000000D+00  E= 8.629069D-02
              MO Center= -3.8D-07, -6.0D-01,  1.4D-15, r^2= 2.4D+00
   Bfn.  Coefficient  Atom+Function         Bfn.  Coefficient  Atom+Function  
  ----- ------------  ---------------      ----- ------------  ---------------
     6      1.117083  1 O  s                 16     -0.949525  2 H  s          
    18     -0.949525  3 H  s                  8     -0.456705  1 O  py         
     4     -0.269445  1 O  py                 2      0.152902  1 O  s          
    15     -0.096547  2 H  s                 17     -0.096547  3 H  s          
     1     -0.090264  1 O  s          

 Vector    7  Occ=0.000000D+00  E= 1.705267D-01
              MO Center= -2.9D-07, -5.7D-01,  9.5D-18, r^2= 2.5D+00
   Bfn.  Coefficient  Atom+Function         Bfn.  Coefficient  Atom+Function  
  ----- ------------  ---------------      ----- ------------  ---------------
    16      1.300406  2 H  s                 18     -1.300406  3 H  s          
     7     -0.772768  1 O  px                 3     -0.403942  1 O  px         
    15      0.104852  2 H  s                 17     -0.104852  3 H  s          

 Vector    8  Occ=0.000000D+00  E= 8.019247D-01
              MO Center=  1.1D-07, -1.3D-01,  3.8D-17, r^2= 1.6D+00
   Bfn.  Coefficient  Atom+Function         Bfn.  Coefficient  Atom+Function  
  ----- ------------  ---------------      ----- ------------  ---------------
    15      0.837860  2 H  s                 17     -0.837860  3 H  s          
    16     -0.615068  2 H  s                 18      0.615069  3 H  s          
     7     -0.480116  1 O  px                10     -0.203323  1 O  d -2       
     3     -0.161612  1 O  px         

 Vector    9  Occ=0.000000D+00  E= 8.930771D-01
              MO Center=  5.7D-08, -2.7D-01, -9.9D-15, r^2= 1.3D+00
   Bfn.  Coefficient  Atom+Function         Bfn.  Coefficient  Atom+Function  
  ----- ------------  ---------------      ----- ------------  ---------------
    15      0.748086  2 H  s                 17      0.748086  3 H  s          
     4      0.659058  1 O  py                16     -0.557859  2 H  s          
    18     -0.557859  3 H  s                  8     -0.298406  1 O  py         
     2     -0.179808  1 O  s                  6      0.179449  1 O  s          
    12     -0.147528  1 O  d  0              14      0.099171  1 O  d  2       

 Vector   10  Occ=0.000000D+00  E= 9.181698D-01
              MO Center=  4.3D-07,  1.1D-01,  1.1D-14, r^2= 1.1D+00
   Bfn.  Coefficient  Atom+Function         Bfn.  Coefficient  Atom+Function  
  ----- ------------  ---------------      ----- ------------  ---------------
     9     -1.036427  1 O  pz                 5      0.962177  1 O  pz         

 Vector   11  Occ=0.000000D+00  E= 9.542893D-01
              MO Center=  5.8D-07,  2.6D-01,  6.7D-16, r^2= 1.2D+00
   Bfn.  Coefficient  Atom+Function         Bfn.  Coefficient  Atom+Function  
  ----- ------------  ---------------      ----- ------------  ---------------
     8      1.141167  1 O  py                 4     -0.708214  1 O  py         
    15      0.480606  2 H  s                 17      0.480606  3 H  s          
     2     -0.426653  1 O  s                 14      0.095244  1 O  d  2       
    12     -0.092991  1 O  d  0               6      0.078172  1 O  s          
    16     -0.071738  2 H  s                 18     -0.071738  3 H  s          

 Vector   12  Occ=0.000000D+00  E= 1.097702D+00
              MO Center=  4.1D-07,  8.1D-02,  3.5D-16, r^2= 1.5D+00
   Bfn.  Coefficient  Atom+Function         Bfn.  Coefficient  Atom+Function  
  ----- ------------  ---------------      ----- ------------  ---------------
     7      1.632148  1 O  px                 3     -0.997609  1 O  px         
    16     -0.950021  2 H  s                 18      0.950021  3 H  s          
    15      0.032410  2 H  s                 17     -0.032410  3 H  s          

 Vector   13  Occ=0.000000D+00  E= 1.401167D+00
              MO Center=  1.1D-07, -1.9D-01, -2.0D-15, r^2= 1.2D+00
   Bfn.  Coefficient  Atom+Function         Bfn.  Coefficient  Atom+Function  
  ----- ------------  ---------------      ----- ------------  ---------------
     6      2.529110  1 O  s                  2     -1.598425  1 O  s          
     8     -0.696205  1 O  py                16     -0.655900  2 H  s          
    18     -0.655899  3 H  s                  4      0.207635  1 O  py         
    15     -0.208060  2 H  s                 17     -0.208060  3 H  s          
    12      0.193461  1 O  d  0              14     -0.182078  1 O  d  2       

 Vector   14  Occ=0.000000D+00  E= 1.739581D+00
              MO Center=  4.9D-07,  1.6D-01, -7.4D-16, r^2= 6.2D-01
   Bfn.  Coefficient  Atom+Function         Bfn.  Coefficient  Atom+Function  
  ----- ------------  ---------------      ----- ------------  ---------------
    14      0.909142  1 O  d  2              12      0.399583  1 O  d  0       
     6      0.269011  1 O  s                  8     -0.155455  1 O  py         
     2     -0.136382  1 O  s                 15     -0.089835  2 H  s          
    17     -0.089835  3 H  s                 16     -0.052325  2 H  s          
    18     -0.052325  3 H  s          

 Vector   15  Occ=0.000000D+00  E= 1.751781D+00
              MO Center=  4.3D-07,  1.1D-01, -4.6D-16, r^2= 6.1D-01
   Bfn.  Coefficient  Atom+Function         Bfn.  Coefficient  Atom+Function  
  ----- ------------  ---------------      ----- ------------  ---------------
    13      1.000000  1 O  d  1       

 Vector   16  Occ=0.000000D+00  E= 1.788975D+00
              MO Center=  4.6D-07,  1.4D-01, -1.1D-15, r^2= 6.1D-01
   Bfn.  Coefficient  Atom+Function         Bfn.  Coefficient  Atom+Function  
  ----- ------------  ---------------      ----- ------------  ---------------
    11      0.999197  1 O  d -1               9      0.036292  1 O  pz         

 Vector   17  Occ=0.000000D+00  E= 2.315761D+00
              MO Center=  2.9D-07, -4.7D-03,  1.3D-16, r^2= 8.3D-01
   Bfn.  Coefficient  Atom+Function         Bfn.  Coefficient  Atom+Function  
  ----- ------------  ---------------      ----- ------------  ---------------
     6      1.386022  1 O  s                 12     -1.008408  1 O  d  0       
    15     -0.844311  2 H  s                 17     -0.844311  3 H  s          
     8     -0.733123  1 O  py                 2     -0.579515  1 O  s          
    14      0.410726  1 O  d  2              16     -0.126848  2 H  s          
    18     -0.126848  3 H  s                  4      0.046358  1 O  py         

 Vector   18  Occ=0.000000D+00  E= 2.613619D+00
              MO Center=  3.7D-07,  5.7D-02,  2.9D-17, r^2= 8.7D-01
   Bfn.  Coefficient  Atom+Function         Bfn.  Coefficient  Atom+Function  
  ----- ------------  ---------------      ----- ------------  ---------------
    10      1.281936  1 O  d -2              15      0.950365  2 H  s          
    17     -0.950365  3 H  s                  7     -0.879910  1 O  px         
    16     -0.038489  2 H  s                 18      0.038489  3 H  s          
     3      0.026554  1 O  px         


 center of mass
 --------------
 x =   0.00000068 y =   0.08779370 z =   0.00000000

 moments of inertia (a.u.)
 ------------------
           2.184963155831           0.000002129984           0.000000000000
           0.000002129984           4.157614560565           0.000000000000
           0.000000000000           0.000000000000           6.342577716396

     Multipole analysis of the density
     ---------------------------------

     L   x y z        total         alpha         beta         nuclear
     -   - - -        -----         -----         ----         -------
     0   0 0 0     -0.000000     -5.000000     -5.000000     10.000000

     1   1 0 0     -0.000001     -0.000003     -0.000003      0.000006
     1   0 1 0     -0.826760     -0.365763     -0.365763     -0.095235
     1   0 0 1      0.000000      0.000000      0.000000      0.000000

     2   2 0 0     -3.104566     -3.614950     -3.614950      4.125334
     2   1 1 0     -0.000002      0.000000      0.000000     -0.000002
     2   1 0 1     -0.000000     -0.000000     -0.000000      0.000000
     2   0 2 0     -4.429235     -3.191553     -3.191553      1.953872
     2   0 1 1      0.000000      0.000000      0.000000      0.000000
     2   0 0 2     -5.354107     -2.677053     -2.677053      0.000000


 Parallel integral file used      16 records with       0 large values


 Task  times  cpu:        0.2s     wall:        0.2s


                                NWChem Input Module
                                -------------------



                           NWChem Real-Time TDDFT Module
                           -----------------------------


                                   Water MO CAP




 Summary of "ao basis" -> "ao basis" (spherical)
 ------------------------------------------------------------------------------
       Tag                 Description            Shells   Functions and Types
 ---------------- ------------------------------  ------  ---------------------
 O                           6-31G*                  6       14   3s2p1d
 H                           6-31G*                  2        2   2s



  The DFT is already converged 

         Total DFT energy =    -76.323855939165

  Caching 1-el integrals 

            General Information
            -------------------
          SCF calculation type: DFT
          Wavefunction type:  closed shell.
          No. of atoms     :     3
          No. of electrons :    10
           Alpha electrons :     5
            Beta electrons :     5
          Charge           :     0
          Spin multiplicity:     1
          Use of symmetry is: off; symmetry adaption is: off
          Maximum number of iterations:  30
          AO basis - number of functions:    18
                     number of shells:    10
          Convergence on energy requested:  1.00D-06
          Convergence on density requested:  1.00D-09
          Convergence on gradient requested:  5.00D-04

              XC Information
              --------------
                         PBE0 Method XC Functional
                     Hartree-Fock (Exact) Exchange  0.250          
          PerdewBurkeErnzerhof Exchange Functional  0.750          
            Perdew 1991 LDA Correlation Functional  1.000 local    
           PerdewBurkeErnz. Correlation Functional  1.000 non-local

             Grid Information
             ----------------
          Grid used for XC integration:  medium    
          Radial quadrature: Mura-Knowles        
          Angular quadrature: Lebedev. 
          Tag              B.-S. Rad. Rad. Pts. Rad. Cut. Ang. Pts.
          ---              ---------- --------- --------- ---------
          O                   0.60       49           5.0       434
          H                   0.35       45           6.0       434
          Grid pruning is: on 
          Number of quadrature shells:   139
          Spatial weights used:  Erf1

          Convergence Information
          -----------------------
          Convergence aids based upon iterative change in 
          total energy or number of iterations. 
          Levelshifting, if invoked, occurs when the 
          HOMO/LUMO gap drops below (HL_TOL):  1.00D-02
          DIIS, if invoked, will attempt to extrapolate 
          using up to (NFOCK): 10 stored Fock matrices.

                    Damping( 0%)  Levelshifting(0.5)       DIIS
                  --------------- ------------------- ---------------
          dE  on:    start            ASAP                start   
          dE off:    2 iters         30 iters            30 iters 


      Screening Tolerance Information
      -------------------------------
          Density screening/tol_rho:  1.00D-10
          AO Gaussian exp screening on grid/accAOfunc:  14
          CD Gaussian exp screening on grid/accCDfunc:  20
          XC Gaussian exp screening on grid/accXCfunc:  20
          Schwarz screening/accCoul:  1.00D-08

  
 *************************
 * Closed-shell RT-TDDFT *
 *************************
  
 
****************************** WARNING ****************************** 
  Schwartz screening tolerance is similar to the Magnus interpolation  
  tolerance--this may cause problems with convergence.  If  
  so, try loosening tol_interpol. 
********************************************************************* 
 
  
  
 Geometry               Atoms      Basis func.   Nuc. charge          Nuc. dip. mom.
 -----------------------------------------------------------------------------------------
 *system               3 (100% )    18 (100% )     10.00        0.00     -0.10      0.00

=============== Geometry Initialization ===============
  Active geometry: "system"
  No linear dependencies
  Number of atomic orbitals    = 18
  Number of molecular orbitals = 18
=======================================================

 
 
             System parameters
             -----------------
     No. atoms              : 3
     Wavefunction type      : restricted
     No. alpha electrons    : 5
     No. beta electrons     : 5
     Total no. electrons    : 10
     System charge          : 0
 
 
               2e integrals
               ------------
     tol2e for real part of Fock matrix: 1.0000E-08
     tol2e for imag part of Fock matrix: 1.0000E-10
 
 
                    Propagation parameters
                    ----------------------
     End time (tmax)       : 2.5000E+02 au = 6.0473E+00 fs
     Time step (dt)        : 2.0000E-01 au = 4.8378E-03 fs
     No. time steps (nt)   : 1250
     Progagation method    : 2nd order Magnus w/ self-consistent interpolation
     Exponentiation method : Adaptive contractive power series
 
 
                        Tolerances
                        ----------
     Zero / comparison / check tolerance  : 1.0000E-08
     Series convergence tolerance         : 1.0000E-10
     Interpolation convergence tolerance  : 1.0000E-07
     Reqd no. zero terms in series        : 3
     Reqd no. zero terms in interpolation : 1
 
 
                Output and checking parameters
                ------------------------------
     Quantites to print : messages, dipole, field, energy, charge
     No. print points   : 1250 (once every 1 time steps)
     No. checks         : 10 (once every 125 time steps)
     No. restart points : 100 (once every 12 time steps)
     Checking level     : 1 (checkpoints only)
     Profiling          : No
 
 
 Dipole and quadrupole matrices
 ------------------------------
     Center of mass = ( 6.7617E-07,  8.7794E-02,  0.0000E+00)
     norm[D_x]  = 1.4362E+00
     norm[D_y]  = 9.6224E-01
     norm[D_z]  = 9.6224E-01
     norm[Q_xx] = 3.6128E+00
     norm[Q_xy] = 1.2831E+00
     norm[Q_xz] = 9.2591E-01
     norm[Q_yy] = 2.8224E+00
     norm[Q_yz] = 9.2591E-01
     norm[Q_zz] = 2.7777E+00
 
 
         Applied fields
         --------------
 
               "kick"
     Type            : delta
     Polarization    : z
     Field maximum   : 1.0000E-04 au = 5.1421E-02 V/nm
 
 
        Excitation rules
        ----------------
     Excite geometry "system" with "kick"
 
 
                             Closed shell propagation
                             ------------------------
 
****************************** WARNING ****************************** 
  Starting movecs not specified--trying SCF output: 
   ./perm/water.movecs 
********************************************************************* 
 
     File name              : ./perm/water.movecs
     Job title              : Water MO CAP
     Basis set name         : ao basis
     SCF type               : dft
     Atomic orbitals        : 18
     Molecular orbitals     : 18
 
   Vector      Occupation     Eigenvalue [au]
 --------------------------------------------
         1        2.00       -1.92006054E+01
         2        2.00       -1.02627337E+00
         3        2.00       -5.35614323E-01
         4        2.00       -3.83704289E-01
         5        2.00       -3.04087441E-01
         6        0.00        8.62906858E-02
         7        0.00        1.70526707E-01
         8        0.00        8.01924745E-01
         9        0.00        8.93077072E-01
        10        0.00        9.18169848E-01
        11        0.00        9.54289328E-01
        12        0.00        1.09770162E+00
        13        0.00        1.40116702E+00
        14        0.00        1.73958089E+00
        15        0.00        1.75178132E+00
        16        0.00        1.78897528E+00
        17        0.00        2.31576098E+00
        18        0.00        2.61361913E+00
 

 #quartets = 1.540D+03 #integrals = 6.841D+03 #direct =  0.0% #cached =100.0%


 Integral file          = ./scratch/water.aoints.00
 Record size in doubles =  65536        No. of integs per rec  =  43688
 Max. records in memory =      2        Max. records in file   = 243723
 No. of bits per label  =      8        No. of bits per value  =     64


File balance: exchanges=     0  moved=     0  time=   0.0


 Grid_pts file          = ./scratch/water.gridpts.00
 Record size in doubles =  12289        No. of grid_pts per rec  =   3070
 Max. records in memory =      3        Max. recs in file   =   1299758

 zmat_diag_serial: Matrix "Fock MO tmp" is Hermitian; using zheev
 zmat_diag_serial: Matrix "Fock MO tmp" is Hermitian; using zheev
 rt_tddft_project: Eigenvector matrix is unitary.  Good.
 === Applied closed shell MO CAP ===
 === MO CAP active: Disabled initial MO Fock check ===
<rt_tddft>:      0.00000        ### Propagation started ###
 zmat_diag_serial: Matrix "Fock MO tmp" is Hermitian; using zheev
 zmat_diag_serial: Matrix "Fock MO tmp" is Hermitian; using zheev
 rt_tddft_project: Eigenvector matrix is unitary.  Good.
 === Applied closed shell MO CAP ===
 zmat_diag_serial: Matrix "Fock MO tmp" is Hermitian; using zheev
 zmat_diag_serial: Matrix "Fock MO tmp" is Hermitian; using zheev
 rt_tddft_project: Eigenvector matrix is unitary.  Good.
 === Applied closed shell MO CAP ===
 mat_is_same: || A - B || =    6.8341098844291128     
rt_tddft_checkpoint: F not Hermitian vs tolerance 1.00E-08
 mat_is_same: || A - B || =    9.0961610133843411     
rt_tddft_checkpoint: F' not Hermitian vs tolerance 1.00E-08
<rt_tddft>:      0.00000        ### WARNING: CHECKS FAILED ###
<rt_tddft>:      0.00000   0.000000000000E+000   0.000000000000E+000   1.000000000000E-004     # Applied E-field [system] (alpha spin)
<rt_tddft>:      0.00000   0.000000000000E+000   0.000000000000E+000   1.000000000000E-004     # Applied E-field [system] (beta spin)
<rt_tddft>:      0.00000   9.178263009833E+000     # Enuc
<rt_tddft>:      0.00000  -1.230886908224E+002     # Ecore
<rt_tddft>:      0.00000   4.686153420871E+001     # Ecoul
<rt_tddft>:      0.00000  -9.274962335345E+000     # Exc(1)
<rt_tddft>:      0.00000   0.000000000000E+000     # Exc(2)
<rt_tddft>:      0.00000  -7.632385593916E+001     # Etot
<rt_tddft>:      0.00000   1.421085471520E-014     # Eadded
<rt_tddft>:      0.00000  -1.000000000000E+001     # Charge [system]
<rt_tddft>:      0.00000  -9.067985783316E-007  -8.267601939141E-001   2.817182877613E-015     # Dipole moment [system]
<rt_tddft>:      0.00000        ### Saved restart point ###
 zmat_diag_serial: Matrix "Fock MO tmp" is Hermitian; using zheev
 zmat_diag_serial: Matrix "Fock MO tmp" is Hermitian; using zheev
 rt_tddft_project: Eigenvector matrix is unitary.  Good.
 === Applied closed shell MO CAP ===
 zmat_diag_serial: Matrix "Fock MO tmp" is Hermitian; using zheev
 zmat_diag_serial: Matrix "Fock MO tmp" is Hermitian; using zheev
 rt_tddft_project: Eigenvector matrix is unitary.  Good.
 === Applied closed shell MO CAP ===
<rt_tddft>:      0.20000   0.000000000000E+000   0.000000000000E+000   0.000000000000E+000     # Applied E-field [system] (alpha spin)
<rt_tddft>:      0.20000   0.000000000000E+000   0.000000000000E+000   0.000000000000E+000     # Applied E-field [system] (beta spin)
<rt_tddft>:      0.20000   9.178263009833E+000     # Enuc
<rt_tddft>:      0.20000  -1.230886908217E+002     # Ecore
<rt_tddft>:      0.20000   4.686153420828E+001     # Ecoul
<rt_tddft>:      0.20000  -9.274962335299E+000     # Exc(1)
<rt_tddft>:      0.20000   0.000000000000E+000     # Exc(2)
<rt_tddft>:      0.20000  -7.632385593884E+001     # Etot
<rt_tddft>:      0.20000   3.206537257938E-010     # Eadded
<rt_tddft>:      0.20000  -9.999999999958E+000     # Charge [system]
<rt_tddft>:      0.20000  -9.067985714067E-007  -8.267601940247E-001   6.515014286641E-006     # Dipole moment [system]
 zmat_diag_serial: Matrix "Fock MO tmp" is Hermitian; using zheev
 zmat_diag_serial: Matrix "Fock MO tmp" is Hermitian; using zheev
 rt_tddft_project: Eigenvector matrix is unitary.  Good.
 === Applied closed shell MO CAP ===
 zmat_diag_serial: Matrix "Fock MO tmp" is Hermitian; using zheev
 zmat_diag_serial: Matrix "Fock MO tmp" is Hermitian; using zheev
 rt_tddft_project: Eigenvector matrix is unitary.  Good.
 === Applied closed shell MO CAP ===
<rt_tddft>:      0.40000   0.000000000000E+000   0.000000000000E+000   0.000000000000E+000     # Applied E-field [system] (alpha spin)
<rt_tddft>:      0.40000   0.000000000000E+000   0.000000000000E+000   0.000000000000E+000     # Applied E-field [system] (beta spin)
<rt_tddft>:      0.40000   9.178263009833E+000     # Enuc
<rt_tddft>:      0.40000  -1.230886908210E+002     # Ecore
<rt_tddft>:      0.40000   4.686153420745E+001     # Ecoul
<rt_tddft>:      0.40000  -9.274962335212E+000     # Exc(1)
<rt_tddft>:      0.40000   0.000000000000E+000     # Exc(2)
<rt_tddft>:      0.40000  -7.632385593896E+001     # Etot
<rt_tddft>:      0.40000   2.084590278173E-010     # Eadded
<rt_tddft>:      0.40000  -9.999999999885E+000     # Charge [system]
<rt_tddft>:      0.40000  -9.067985665821E-007  -8.267601940702E-001   1.255757178036E-005     # Dipole moment [system]
 zmat_diag_serial: Matrix "Fock MO tmp" is Hermitian; using zheev
 zmat_diag_serial: Matrix "Fock MO tmp" is Hermitian; using zheev
 rt_tddft_project: Eigenvector matrix is unitary.  Good.
 === Applied closed shell MO CAP ===
 zmat_diag_serial: Matrix "Fock MO tmp" is Hermitian; using zheev
 zmat_diag_serial: Matrix "Fock MO tmp" is Hermitian; using zheev
 rt_tddft_project: Eigenvector matrix is unitary.  Good.
 === Applied closed shell MO CAP ===
<rt_tddft>:      0.60000   0.000000000000E+000   0.000000000000E+000   0.000000000000E+000     # Applied E-field [system] (alpha spin)
<rt_tddft>:      0.60000   0.000000000000E+000   0.000000000000E+000   0.000000000000E+000     # Applied E-field [system] (beta spin)
<rt_tddft>:      0.60000   9.178263009833E+000     # Enuc
<rt_tddft>:      0.60000  -1.230886908207E+002     # Ecore
<rt_tddft>:      0.60000   4.686153420707E+001     # Ecoul
<rt_tddft>:      0.60000  -9.274962335169E+000     # Exc(1)
<rt_tddft>:      0.60000   0.000000000000E+000     # Exc(2)
<rt_tddft>:      0.60000  -7.632385593901E+001     # Etot
<rt_tddft>:      0.60000   1.576125896463E-010     # Eadded
<rt_tddft>:      0.60000  -9.999999999850E+000     # Charge [system]
<rt_tddft>:      0.60000  -9.067985633715E-007  -8.267601940850E-001   1.311092556544E-005     # Dipole moment [system]
 zmat_diag_serial: Matrix "Fock MO tmp" is Hermitian; using zheev
 zmat_diag_serial: Matrix "Fock MO tmp" is Hermitian; using zheev
 rt_tddft_project: Eigenvector matrix is unitary.  Good.
 === Applied closed shell MO CAP ===
 zmat_diag_serial: Matrix "Fock MO tmp" is Hermitian; using zheev
 zmat_diag_serial: Matrix "Fock MO tmp" is Hermitian; using zheev
 rt_tddft_project: Eigenvector matrix is unitary.  Good.
 === Applied closed shell MO CAP ===
<rt_tddft>:      0.80000   0.000000000000E+000   0.000000000000E+000   0.000000000000E+000     # Applied E-field [system] (alpha spin)
<rt_tddft>:      0.80000   0.000000000000E+000   0.000000000000E+000   0.000000000000E+000     # Applied E-field [system] (beta spin)
<rt_tddft>:      0.80000   9.178263009833E+000     # Enuc
<rt_tddft>:      0.80000  -1.230886908205E+002     # Ecore
<rt_tddft>:      0.80000   4.686153420679E+001     # Ecoul
<rt_tddft>:      0.80000  -9.274962335137E+000     # Exc(1)
<rt_tddft>:      0.80000   0.000000000000E+000     # Exc(2)
<rt_tddft>:      0.80000  -7.632385593903E+001     # Etot
<rt_tddft>:      0.80000   1.388258397128E-010     # Eadded
<rt_tddft>:      0.80000  -9.999999999833E+000     # Charge [system]
<rt_tddft>:      0.80000  -9.067985607670E-007  -8.267601940815E-001   1.170771541873E-005     # Dipole moment [system]
 zmat_diag_serial: Matrix "Fock MO tmp" is Hermitian; using zheev
 zmat_diag_serial: Matrix "Fock MO tmp" is Hermitian; using zheev
 rt_tddft_project: Eigenvector matrix is unitary.  Good.
 === Applied closed shell MO CAP ===
 zmat_diag_serial: Matrix "Fock MO tmp" is Hermitian; using zheev
 zmat_diag_serial: Matrix "Fock MO tmp" is Hermitian; using zheev
 rt_tddft_project: Eigenvector matrix is unitary.  Good.
 === Applied closed shell MO CAP ===
<rt_tddft>:      1.00000   0.000000000000E+000   0.000000000000E+000   0.000000000000E+000     # Applied E-field [system] (alpha spin)
<rt_tddft>:      1.00000   0.000000000000E+000   0.000000000000E+000   0.000000000000E+000     # Applied E-field [system] (beta spin)
<rt_tddft>:      1.00000   9.178263009833E+000     # Enuc
<rt_tddft>:      1.00000  -1.230886908203E+002     # Ecore
<rt_tddft>:      1.00000   4.686153420660E+001     # Ecoul
<rt_tddft>:      1.00000  -9.274962335116E+000     # Exc(1)
<rt_tddft>:      1.00000   0.000000000000E+000     # Exc(2)
<rt_tddft>:      1.00000  -7.632385593903E+001     # Etot
<rt_tddft>:      1.00000   1.321183162872E-010     # Eadded
<rt_tddft>:      1.00000  -9.999999999824E+000     # Charge [system]
<rt_tddft>:      1.00000  -9.067985584491E-007  -8.267601940630E-001   9.593944191326E-006     # Dipole moment [system]
 zmat_diag_serial: Matrix "Fock MO tmp" is Hermitian; using zheev
 zmat_diag_serial: Matrix "Fock MO tmp" is Hermitian; using zheev
 rt_tddft_project: Eigenvector matrix is unitary.  Good.
 === Applied closed shell MO CAP ===
 zmat_diag_serial: Matrix "Fock MO tmp" is Hermitian; using zheev
 zmat_diag_serial: Matrix "Fock MO tmp" is Hermitian; using zheev
 rt_tddft_project: Eigenvector matrix is unitary.  Good.
 === Applied closed shell MO CAP ===
<rt_tddft>:      1.20000   0.000000000000E+000   0.000000000000E+000   0.000000000000E+000     # Applied E-field [system] (alpha spin)
<rt_tddft>:      1.20000   0.000000000000E+000   0.000000000000E+000   0.000000000000E+000     # Applied E-field [system] (beta spin)
<rt_tddft>:      1.20000   9.178263009833E+000     # Enuc
<rt_tddft>:      1.20000  -1.230886908202E+002     # Ecore
<rt_tddft>:      1.20000   4.686153420646E+001     # Ecoul
<rt_tddft>:      1.20000  -9.274962335099E+000     # Exc(1)
<rt_tddft>:      1.20000   0.000000000000E+000     # Exc(2)
<rt_tddft>:      1.20000  -7.632385593903E+001     # Etot
<rt_tddft>:      1.20000   1.306403873969E-010     # Eadded
<rt_tddft>:      1.20000  -9.999999999819E+000     # Charge [system]
<rt_tddft>:      1.20000  -9.067985565381E-007  -8.267601940432E-001   7.678213670267E-006     # Dipole moment [system]
 zmat_diag_serial: Matrix "Fock MO tmp" is Hermitian; using zheev
 zmat_diag_serial: Matrix "Fock MO tmp" is Hermitian; using zheev
 rt_tddft_project: Eigenvector matrix is unitary.  Good.
 === Applied closed shell MO CAP ===
 zmat_diag_serial: Matrix "Fock MO tmp" is Hermitian; using zheev
 zmat_diag_serial: Matrix "Fock MO tmp" is Hermitian; using zheev
 rt_tddft_project: Eigenvector matrix is unitary.  Good.
 === Applied closed shell MO CAP ===
<rt_tddft>:      1.40000   0.000000000000E+000   0.000000000000E+000   0.000000000000E+000     # Applied E-field [system] (alpha spin)
<rt_tddft>:      1.40000   0.000000000000E+000   0.000000000000E+000   0.000000000000E+000     # Applied E-field [system] (beta spin)
<rt_tddft>:      1.40000   9.178263009833E+000     # Enuc
<rt_tddft>:      1.40000  -1.230886908202E+002     # Ecore
<rt_tddft>:      1.40000   4.686153420638E+001     # Ecoul
<rt_tddft>:      1.40000  -9.274962335089E+000     # Exc(1)
<rt_tddft>:      1.40000   0.000000000000E+000     # Exc(2)
<rt_tddft>:      1.40000  -7.632385593903E+001     # Etot
<rt_tddft>:      1.40000   1.315498820986E-010     # Eadded
<rt_tddft>:      1.40000  -9.999999999815E+000     # Charge [system]
<rt_tddft>:      1.40000  -9.067985543892E-007  -8.267601940269E-001   6.007782289623E-006     # Dipole moment [system]
 zmat_diag_serial: Matrix "Fock MO tmp" is Hermitian; using zheev
 zmat_diag_serial: Matrix "Fock MO tmp" is Hermitian; using zheev
 rt_tddft_project: Eigenvector matrix is unitary.  Good.
 === Applied closed shell MO CAP ===
 zmat_diag_serial: Matrix "Fock MO tmp" is Hermitian; using zheev
 zmat_diag_serial: Matrix "Fock MO tmp" is Hermitian; using zheev
 rt_tddft_project: Eigenvector matrix is unitary.  Good.
 === Applied closed shell MO CAP ===
<rt_tddft>:      1.60000   0.000000000000E+000   0.000000000000E+000   0.000000000000E+000     # Applied E-field [system] (alpha spin)
<rt_tddft>:      1.60000   0.000000000000E+000   0.000000000000E+000   0.000000000000E+000     # Applied E-field [system] (beta spin)
<rt_tddft>:      1.60000   9.178263009833E+000     # Enuc
<rt_tddft>:      1.60000  -1.230886908201E+002     # Ecore
<rt_tddft>:      1.60000   4.686153420632E+001     # Ecoul
<rt_tddft>:      1.60000  -9.274962335081E+000     # Exc(1)
<rt_tddft>:      1.60000   0.000000000000E+000     # Exc(2)
<rt_tddft>:      1.60000  -7.632385593903E+001     # Etot
<rt_tddft>:      1.60000   1.336104560323E-010     # Eadded
<rt_tddft>:      1.60000  -9.999999999812E+000     # Charge [system]
<rt_tddft>:      1.60000  -9.067985531949E-007  -8.267601940134E-001   4.499739835395E-006     # Dipole moment [system]
 zmat_diag_serial: Matrix "Fock MO tmp" is Hermitian; using zheev
 zmat_diag_serial: Matrix "Fock MO tmp" is Hermitian; using zheev
 rt_tddft_project: Eigenvector matrix is unitary.  Good.
 === Applied closed shell MO CAP ===
 zmat_diag_serial: Matrix "Fock MO tmp" is Hermitian; using zheev
 zmat_diag_serial: Matrix "Fock MO tmp" is Hermitian; using zheev
 rt_tddft_project: Eigenvector matrix is unitary.  Good.
 === Applied closed shell MO CAP ===
<rt_tddft>:      1.80000   0.000000000000E+000   0.000000000000E+000   0.000000000000E+000     # Applied E-field [system] (alpha spin)
<rt_tddft>:      1.80000   0.000000000000E+000   0.000000000000E+000   0.000000000000E+000     # Applied E-field [system] (beta spin)
<rt_tddft>:      1.80000   9.178263009833E+000     # Enuc
<rt_tddft>:      1.80000  -1.230886908201E+002     # Ecore
<rt_tddft>:      1.80000   4.686153420629E+001     # Ecoul
<rt_tddft>:      1.80000  -9.274962335076E+000     # Exc(1)
<rt_tddft>:      1.80000   0.000000000000E+000     # Exc(2)
<rt_tddft>:      1.80000  -7.632385593903E+001     # Etot
<rt_tddft>:      1.80000   1.364810486848E-010     # Eadded
<rt_tddft>:      1.80000  -9.999999999810E+000     # Charge [system]
<rt_tddft>:      1.80000  -9.067985519198E-007  -8.267601940089E-001   3.350066956783E-006     # Dipole moment [system]
 zmat_diag_serial: Matrix "Fock MO tmp" is Hermitian; using zheev
 zmat_diag_serial: Matrix "Fock MO tmp" is Hermitian; using zheev
 rt_tddft_project: Eigenvector matrix is unitary.  Good.
 === Applied closed shell MO CAP ===
 zmat_diag_serial: Matrix "Fock MO tmp" is Hermitian; using zheev
 zmat_diag_serial: Matrix "Fock MO tmp" is Hermitian; using zheev
 rt_tddft_project: Eigenvector matrix is unitary.  Good.
 === Applied closed shell MO CAP ===
<rt_tddft>:      2.00000   0.000000000000E+000   0.000000000000E+000   0.000000000000E+000     # Applied E-field [system] (alpha spin)
<rt_tddft>:      2.00000   0.000000000000E+000   0.000000000000E+000   0.000000000000E+000     # Applied E-field [system] (beta spin)
<rt_tddft>:      2.00000   9.178263009833E+000     # Enuc
<rt_tddft>:      2.00000  -1.230886908201E+002     # Ecore
<rt_tddft>:      2.00000   4.686153420629E+001     # Ecoul
<rt_tddft>:      2.00000  -9.274962335074E+000     # Exc(1)
<rt_tddft>:      2.00000   0.000000000000E+000     # Exc(2)
<rt_tddft>:      2.00000  -7.632385593903E+001     # Etot
<rt_tddft>:      2.00000   1.397211235599E-010     # Eadded
<rt_tddft>:      2.00000  -9.999999999808E+000     # Charge [system]
<rt_tddft>:      2.00000  -9.067985509738E-007  -8.267601940108E-001   2.370080700205E-006     # Dipole moment [system]
 zmat_diag_serial: Matrix "Fock MO tmp" is Hermitian; using zheev
 zmat_diag_serial: Matrix "Fock MO tmp" is Hermitian; using zheev
 rt_tddft_project: Eigenvector matrix is unitary.  Good.
 === Applied closed shell MO CAP ===
 zmat_diag_serial: Matrix "Fock MO tmp" is Hermitian; using zheev
 zmat_diag_serial: Matrix "Fock MO tmp" is Hermitian; using zheev
 rt_tddft_project: Eigenvector matrix is unitary.  Good.
 === Applied closed shell MO CAP ===
<rt_tddft>:      2.20000   0.000000000000E+000   0.000000000000E+000   0.000000000000E+000     # Applied E-field [system] (alpha spin)
<rt_tddft>:      2.20000   0.000000000000E+000   0.000000000000E+000   0.000000000000E+000     # Applied E-field [system] (beta spin)
<rt_tddft>:      2.20000   9.178263009833E+000     # Enuc
<rt_tddft>:      2.20000  -1.230886908201E+002     # Ecore
<rt_tddft>:      2.20000   4.686153420628E+001     # Ecoul
<rt_tddft>:      2.20000  -9.274962335071E+000     # Exc(1)
<rt_tddft>:      2.20000   0.000000000000E+000     # Exc(2)
<rt_tddft>:      2.20000  -7.632385593902E+001     # Etot
<rt_tddft>:      2.20000   1.433448915122E-010     # Eadded
<rt_tddft>:      2.20000  -9.999999999807E+000     # Charge [system]
<rt_tddft>:      2.20000  -9.067985504523E-007  -8.267601940180E-001   1.560207821938E-006     # Dipole moment [system]
<rt_tddft>:      2.20000        ### Saved restart point ###
 zmat_diag_serial: Matrix "Fock MO tmp" is Hermitian; using zheev
 zmat_diag_serial: Matrix "Fock MO tmp" is Hermitian; using zheev
 rt_tddft_project: Eigenvector matrix is unitary.  Good.
 === Applied closed shell MO CAP ===
 zmat_diag_serial: Matrix "Fock MO tmp" is Hermitian; using zheev
 zmat_diag_serial: Matrix "Fock MO tmp" is Hermitian; using zheev
 rt_tddft_project: Eigenvector matrix is unitary.  Good.
 === Applied closed shell MO CAP ===
<rt_tddft>:      2.40000   0.000000000000E+000   0.000000000000E+000   0.000000000000E+000     # Applied E-field [system] (alpha spin)
<rt_tddft>:      2.40000   0.000000000000E+000   0.000000000000E+000   0.000000000000E+000     # Applied E-field [system] (beta spin)
<rt_tddft>:      2.40000   9.178263009833E+000     # Enuc
<rt_tddft>:      2.40000  -1.230886908201E+002     # Ecore
<rt_tddft>:      2.40000   4.686153420630E+001     # Ecoul
<rt_tddft>:      2.40000  -9.274962335073E+000     # Exc(1)
<rt_tddft>:      2.40000   0.000000000000E+000     # Exc(2)
<rt_tddft>:      2.40000  -7.632385593902E+001     # Etot
<rt_tddft>:      2.40000   1.471534005759E-010     # Eadded
<rt_tddft>:      2.40000  -9.999999999805E+000     # Charge [system]
<rt_tddft>:      2.40000  -9.067985494853E-007  -8.267601940334E-001   1.032919514442E-006     # Dipole moment [system]
 zmat_diag_serial: Matrix "Fock MO tmp" is Hermitian; using zheev
 zmat_diag_serial: Matrix "Fock MO tmp" is Hermitian; using zheev
 rt_tddft_project: Eigenvector matrix is unitary.  Good.
 === Applied closed shell MO CAP ===
 zmat_diag_serial: Matrix "Fock MO tmp" is Hermitian; using zheev
 zmat_diag_serial: Matrix "Fock MO tmp" is Hermitian; using zheev
 rt_tddft_project: Eigenvector matrix is unitary.  Good.
 === Applied closed shell MO CAP ===
<rt_tddft>:      2.60000   0.000000000000E+000   0.000000000000E+000   0.000000000000E+000     # Applied E-field [system] (alpha spin)
<rt_tddft>:      2.60000   0.000000000000E+000   0.000000000000E+000   0.000000000000E+000     # Applied E-field [system] (beta spin)
<rt_tddft>:      2.60000   9.178263009833E+000     # Enuc
<rt_tddft>:      2.60000  -1.230886908201E+002     # Ecore
<rt_tddft>:      2.60000   4.686153420631E+001     # Ecoul
<rt_tddft>:      2.60000  -9.274962335070E+000     # Exc(1)
<rt_tddft>:      2.60000   0.000000000000E+000     # Exc(2)
<rt_tddft>:      2.60000  -7.632385593901E+001     # Etot
<rt_tddft>:      2.60000   1.511182290415E-010     # Eadded
<rt_tddft>:      2.60000  -9.999999999804E+000     # Charge [system]
<rt_tddft>:      2.60000  -9.067985493942E-007  -8.267601940529E-001   6.261663622674E-007     # Dipole moment [system]
 zmat_diag_serial: Matrix "Fock MO tmp" is Hermitian; using zheev
 zmat_diag_serial: Matrix "Fock MO tmp" is Hermitian; using zheev
 rt_tddft_project: Eigenvector matrix is unitary.  Good.
 === Applied closed shell MO CAP ===
 zmat_diag_serial: Matrix "Fock MO tmp" is Hermitian; using zheev
 zmat_diag_serial: Matrix "Fock MO tmp" is Hermitian; using zheev
 rt_tddft_project: Eigenvector matrix is unitary.  Good.
 === Applied closed shell MO CAP ===
<rt_tddft>:      2.80000   0.000000000000E+000   0.000000000000E+000   0.000000000000E+000     # Applied E-field [system] (alpha spin)
<rt_tddft>:      2.80000   0.000000000000E+000   0.000000000000E+000   0.000000000000E+000     # Applied E-field [system] (beta spin)
<rt_tddft>:      2.80000   9.178263009833E+000     # Enuc
<rt_tddft>:      2.80000  -1.230886908201E+002     # Ecore
<rt_tddft>:      2.80000   4.686153420634E+001     # Ecoul
<rt_tddft>:      2.80000  -9.274962335073E+000     # Exc(1)
<rt_tddft>:      2.80000   0.000000000000E+000     # Exc(2)
<rt_tddft>:      2.80000  -7.632385593901E+001     # Etot
<rt_tddft>:      2.80000   1.552820094730E-010     # Eadded
<rt_tddft>:      2.80000  -9.999999999803E+000     # Charge [system]
<rt_tddft>:      2.80000  -9.067985492000E-007  -8.267601940775E-001   3.887157091921E-007     # Dipole moment [system]
 zmat_diag_serial: Matrix "Fock MO tmp" is Hermitian; using zheev
 zmat_diag_serial: Matrix "Fock MO tmp" is Hermitian; using zheev
 rt_tddft_project: Eigenvector matrix is unitary.  Good.
 === Applied closed shell MO CAP ===
 zmat_diag_serial: Matrix "Fock MO tmp" is Hermitian; using zheev
 zmat_diag_serial: Matrix "Fock MO tmp" is Hermitian; using zheev
 rt_tddft_project: Eigenvector matrix is unitary.  Good.
 === Applied closed shell MO CAP ===
<rt_tddft>:      3.00000   0.000000000000E+000   0.000000000000E+000   0.000000000000E+000     # Applied E-field [system] (alpha spin)
<rt_tddft>:      3.00000   0.000000000000E+000   0.000000000000E+000   0.000000000000E+000     # Applied E-field [system] (beta spin)
<rt_tddft>:      3.00000   9.178263009833E+000     # Enuc
<rt_tddft>:      3.00000  -1.230886908201E+002     # Ecore
<rt_tddft>:      3.00000   4.686153420637E+001     # Ecoul
<rt_tddft>:      3.00000  -9.274962335076E+000     # Exc(1)
<rt_tddft>:      3.00000   0.000000000000E+000     # Exc(2)
<rt_tddft>:      3.00000  -7.632385593901E+001     # Etot
<rt_tddft>:      3.00000   1.595452658876E-010     # Eadded
<rt_tddft>:      3.00000  -9.999999999803E+000     # Charge [system]
<rt_tddft>:      3.00000  -9.067985492330E-007  -8.267601941074E-001   3.338997588837E-007     # Dipole moment [system]
 zmat_diag_serial: Matrix "Fock MO tmp" is Hermitian; using zheev
 zmat_diag_serial: Matrix "Fock MO tmp" is Hermitian; using zheev
 rt_tddft_project: Eigenvector matrix is unitary.  Good.
 === Applied closed shell MO CAP ===
 zmat_diag_serial: Matrix "Fock MO tmp" is Hermitian; using zheev
 zmat_diag_serial: Matrix "Fock MO tmp" is Hermitian; using zheev
 rt_tddft_project: Eigenvector matrix is unitary.  Good.
 === Applied closed shell MO CAP ===
<rt_tddft>:      3.20000   0.000000000000E+000   0.000000000000E+000   0.000000000000E+000     # Applied E-field [system] (alpha spin)
<rt_tddft>:      3.20000   0.000000000000E+000   0.000000000000E+000   0.000000000000E+000     # Applied E-field [system] (beta spin)
<rt_tddft>:      3.20000   9.178263009833E+000     # Enuc
<rt_tddft>:      3.20000  -1.230886908202E+002     # Ecore
<rt_tddft>:      3.20000   4.686153420639E+001     # Ecoul
<rt_tddft>:      3.20000  -9.274962335076E+000     # Exc(1)
<rt_tddft>:      3.20000   0.000000000000E+000     # Exc(2)
<rt_tddft>:      3.20000  -7.632385593900E+001     # Etot
<rt_tddft>:      3.20000   1.639222091399E-010     # Eadded
<rt_tddft>:      3.20000  -9.999999999802E+000     # Charge [system]
<rt_tddft>:      3.20000  -9.067985492648E-007  -8.267601941399E-001   3.255598271622E-007     # Dipole moment [system]
 zmat_diag_serial: Matrix "Fock MO tmp" is Hermitian; using zheev
 zmat_diag_serial: Matrix "Fock MO tmp" is Hermitian; using zheev
 rt_tddft_project: Eigenvector matrix is unitary.  Good.
 === Applied closed shell MO CAP ===
 zmat_diag_serial: Matrix "Fock MO tmp" is Hermitian; using zheev
 zmat_diag_serial: Matrix "Fock MO tmp" is Hermitian; using zheev
 rt_tddft_project: Eigenvector matrix is unitary.  Good.
 === Applied closed shell MO CAP ===
<rt_tddft>:      3.40000   0.000000000000E+000   0.000000000000E+000   0.000000000000E+000     # Applied E-field [system] (alpha spin)
<rt_tddft>:      3.40000   0.000000000000E+000   0.000000000000E+000   0.000000000000E+000     # Applied E-field [system] (beta spin)
<rt_tddft>:      3.40000   9.178263009833E+000     # Enuc
<rt_tddft>:      3.40000  -1.230886908202E+002     # Ecore
<rt_tddft>:      3.40000   4.686153420644E+001     # Ecoul
<rt_tddft>:      3.40000  -9.274962335084E+000     # Exc(1)
<rt_tddft>:      3.40000   0.000000000000E+000     # Exc(2)
<rt_tddft>:      3.40000  -7.632385593900E+001     # Etot
<rt_tddft>:      3.40000   1.683133632469E-010     # Eadded
<rt_tddft>:      3.40000  -9.999999999801E+000     # Charge [system]
<rt_tddft>:      3.40000  -9.067985486701E-007  -8.267601941767E-001   4.143147759169E-007     # Dipole moment [system]
 zmat_diag_serial: Matrix "Fock MO tmp" is Hermitian; using zheev
 zmat_diag_serial: Matrix "Fock MO tmp" is Hermitian; using zheev
 rt_tddft_project: Eigenvector matrix is unitary.  Good.
 === Applied closed shell MO CAP ===
 zmat_diag_serial: Matrix "Fock MO tmp" is Hermitian; using zheev
 zmat_diag_serial: Matrix "Fock MO tmp" is Hermitian; using zheev
 rt_tddft_project: Eigenvector matrix is unitary.  Good.
 === Applied closed shell MO CAP ===
<rt_tddft>:      3.60000   0.000000000000E+000   0.000000000000E+000   0.000000000000E+000     # Applied E-field [system] (alpha spin)
<rt_tddft>:      3.60000   0.000000000000E+000   0.000000000000E+000   0.000000000000E+000     # Applied E-field [system] (beta spin)
<rt_tddft>:      3.60000   9.178263009833E+000     # Enuc
<rt_tddft>:      3.60000  -1.230886908202E+002     # Ecore
<rt_tddft>:      3.60000   4.686153420648E+001     # Ecoul
<rt_tddft>:      3.60000  -9.274962335086E+000     # Exc(1)
<rt_tddft>:      3.60000   0.000000000000E+000     # Exc(2)
<rt_tddft>:      3.60000  -7.632385593899E+001     # Etot
<rt_tddft>:      3.60000   1.727613607727E-010     # Eadded
<rt_tddft>:      3.60000  -9.999999999801E+000     # Charge [system]
<rt_tddft>:      3.60000  -9.067985491766E-007  -8.267601942163E-001   5.583243900300E-007     # Dipole moment [system]
 zmat_diag_serial: Matrix "Fock MO tmp" is Hermitian; using zheev
 zmat_diag_serial: Matrix "Fock MO tmp" is Hermitian; using zheev
 rt_tddft_project: Eigenvector matrix is unitary.  Good.
 === Applied closed shell MO CAP ===
 zmat_diag_serial: Matrix "Fock MO tmp" is Hermitian; using zheev
 zmat_diag_serial: Matrix "Fock MO tmp" is Hermitian; using zheev
 rt_tddft_project: Eigenvector matrix is unitary.  Good.
 === Applied closed shell MO CAP ===
<rt_tddft>:      3.80000   0.000000000000E+000   0.000000000000E+000   0.000000000000E+000     # Applied E-field [system] (alpha spin)
<rt_tddft>:      3.80000   0.000000000000E+000   0.000000000000E+000   0.000000000000E+000     # Applied E-field [system] (beta spin)
<rt_tddft>:      3.80000   9.178263009833E+000     # Enuc
<rt_tddft>:      3.80000  -1.230886908203E+002     # Ecore
<rt_tddft>:      3.80000   4.686153420654E+001     # Ecoul
<rt_tddft>:      3.80000  -9.274962335093E+000     # Exc(1)
<rt_tddft>:      3.80000   0.000000000000E+000     # Exc(2)
<rt_tddft>:      3.80000  -7.632385593899E+001     # Etot
<rt_tddft>:      3.80000   1.772377800080E-010     # Eadded
<rt_tddft>:      3.80000  -9.999999999800E+000     # Charge [system]
<rt_tddft>:      3.80000  -9.067985484424E-007  -8.267601942582E-001   6.769470793749E-007     # Dipole moment [system]
 zmat_diag_serial: Matrix "Fock MO tmp" is Hermitian; using zheev
 zmat_diag_serial: Matrix "Fock MO tmp" is Hermitian; using zheev
 rt_tddft_project: Eigenvector matrix is unitary.  Good.
 === Applied closed shell MO CAP ===
 zmat_diag_serial: Matrix "Fock MO tmp" is Hermitian; using zheev
 zmat_diag_serial: Matrix "Fock MO tmp" is Hermitian; using zheev
 rt_tddft_project: Eigenvector matrix is unitary.  Good.
 === Applied closed shell MO CAP ===
<rt_tddft>:      4.00000   0.000000000000E+000   0.000000000000E+000   0.000000000000E+000     # Applied E-field [system] (alpha spin)
<rt_tddft>:      4.00000   0.000000000000E+000   0.000000000000E+000   0.000000000000E+000     # Applied E-field [system] (beta spin)
<rt_tddft>:      4.00000   9.178263009833E+000     # Enuc
<rt_tddft>:      4.00000  -1.230886908203E+002     # Ecore
<rt_tddft>:      4.00000   4.686153420660E+001     # Ecoul
<rt_tddft>:      4.00000  -9.274962335101E+000     # Exc(1)
<rt_tddft>:      4.00000   0.000000000000E+000     # Exc(2)
<rt_tddft>:      4.00000  -7.632385593898E+001     # Etot
<rt_tddft>:      4.00000   1.817710426621E-010     # Eadded
<rt_tddft>:      4.00000  -9.999999999800E+000     # Charge [system]
<rt_tddft>:      4.00000  -9.067985479301E-007  -8.267601943028E-001   8.237099736035E-007     # Dipole moment [system]
 zmat_diag_serial: Matrix "Fock MO tmp" is Hermitian; using zheev
 zmat_diag_serial: Matrix "Fock MO tmp" is Hermitian; using zheev
 rt_tddft_project: Eigenvector matrix is unitary.  Good.
 === Applied closed shell MO CAP ===
 zmat_diag_serial: Matrix "Fock MO tmp" is Hermitian; using zheev
 zmat_diag_serial: Matrix "Fock MO tmp" is Hermitian; using zheev
 rt_tddft_project: Eigenvector matrix is unitary.  Good.
 === Applied closed shell MO CAP ===
<rt_tddft>:      4.20000   0.000000000000E+000   0.000000000000E+000   0.000000000000E+000     # Applied E-field [system] (alpha spin)
<rt_tddft>:      4.20000   0.000000000000E+000   0.000000000000E+000   0.000000000000E+000     # Applied E-field [system] (beta spin)
<rt_tddft>:      4.20000   9.178263009833E+000     # Enuc
<rt_tddft>:      4.20000  -1.230886908204E+002     # Ecore
<rt_tddft>:      4.20000   4.686153420665E+001     # Ecoul
<rt_tddft>:      4.20000  -9.274962335105E+000     # Exc(1)
<rt_tddft>:      4.20000   0.000000000000E+000     # Exc(2)
<rt_tddft>:      4.20000  -7.632385593898E+001     # Etot
<rt_tddft>:      4.20000   1.863043053163E-010     # Eadded
<rt_tddft>:      4.20000  -9.999999999799E+000     # Charge [system]
<rt_tddft>:      4.20000  -9.067985479069E-007  -8.267601943489E-001   9.505292286688E-007     # Dipole moment [system]
 zmat_diag_serial: Matrix "Fock MO tmp" is Hermitian; using zheev
 zmat_diag_serial: Matrix "Fock MO tmp" is Hermitian; using zheev
 rt_tddft_project: Eigenvector matrix is unitary.  Good.
 === Applied closed shell MO CAP ===
 zmat_diag_serial: Matrix "Fock MO tmp" is Hermitian; using zheev
 zmat_diag_serial: Matrix "Fock MO tmp" is Hermitian; using zheev
 rt_tddft_project: Eigenvector matrix is unitary.  Good.
 === Applied closed shell MO CAP ===
<rt_tddft>:      4.40000   0.000000000000E+000   0.000000000000E+000   0.000000000000E+000     # Applied E-field [system] (alpha spin)
<rt_tddft>:      4.40000   0.000000000000E+000   0.000000000000E+000   0.000000000000E+000     # Applied E-field [system] (beta spin)
<rt_tddft>:      4.40000   9.178263009833E+000     # Enuc
<rt_tddft>:      4.40000  -1.230886908204E+002     # Ecore
<rt_tddft>:      4.40000   4.686153420673E+001     # Ecoul
<rt_tddft>:      4.40000  -9.274962335115E+000     # Exc(1)
<rt_tddft>:      4.40000   0.000000000000E+000     # Exc(2)
<rt_tddft>:      4.40000  -7.632385593897E+001     # Etot
<rt_tddft>:      4.40000   1.909086222440E-010     # Eadded
<rt_tddft>:      4.40000  -9.999999999799E+000     # Charge [system]
<rt_tddft>:      4.40000  -9.067985472213E-007  -8.267601943966E-001   1.035820528587E-006     # Dipole moment [system]
 zmat_diag_serial: Matrix "Fock MO tmp" is Hermitian; using zheev
 zmat_diag_serial: Matrix "Fock MO tmp" is Hermitian; using zheev
 rt_tddft_project: Eigenvector matrix is unitary.  Good.
 === Applied closed shell MO CAP ===
 zmat_diag_serial: Matrix "Fock MO tmp" is Hermitian; using zheev
 zmat_diag_serial: Matrix "Fock MO tmp" is Hermitian; using zheev
 rt_tddft_project: Eigenvector matrix is unitary.  Good.
 === Applied closed shell MO CAP ===
<rt_tddft>:      4.60000   0.000000000000E+000   0.000000000000E+000   0.000000000000E+000     # Applied E-field [system] (alpha spin)
<rt_tddft>:      4.60000   0.000000000000E+000   0.000000000000E+000   0.000000000000E+000     # Applied E-field [system] (beta spin)
<rt_tddft>:      4.60000   9.178263009833E+000     # Enuc
<rt_tddft>:      4.60000  -1.230886908205E+002     # Ecore
<rt_tddft>:      4.60000   4.686153420678E+001     # Ecoul
<rt_tddft>:      4.60000  -9.274962335120E+000     # Exc(1)
<rt_tddft>:      4.60000   0.000000000000E+000     # Exc(2)
<rt_tddft>:      4.60000  -7.632385593897E+001     # Etot
<rt_tddft>:      4.60000   1.955129391717E-010     # Eadded
<rt_tddft>:      4.60000  -9.999999999799E+000     # Charge [system]
<rt_tddft>:      4.60000  -9.067985471220E-007  -8.267601944451E-001   1.128554454735E-006     # Dipole moment [system]
<rt_tddft>:      4.60000        ### Saved restart point ###
 zmat_diag_serial: Matrix "Fock MO tmp" is Hermitian; using zheev
 zmat_diag_serial: Matrix "Fock MO tmp" is Hermitian; using zheev
 rt_tddft_project: Eigenvector matrix is unitary.  Good.
 === Applied closed shell MO CAP ===
 zmat_diag_serial: Matrix "Fock MO tmp" is Hermitian; using zheev
 zmat_diag_serial: Matrix "Fock MO tmp" is Hermitian; using zheev
 rt_tddft_project: Eigenvector matrix is unitary.  Good.
 === Applied closed shell MO CAP ===
<rt_tddft>:      4.80000   0.000000000000E+000   0.000000000000E+000   0.000000000000E+000     # Applied E-field [system] (alpha spin)
<rt_tddft>:      4.80000   0.000000000000E+000   0.000000000000E+000   0.000000000000E+000     # Applied E-field [system] (beta spin)
<rt_tddft>:      4.80000   9.178263009833E+000     # Enuc
<rt_tddft>:      4.80000  -1.230886908205E+002     # Ecore
<rt_tddft>:      4.80000   4.686153420685E+001     # Ecoul
<rt_tddft>:      4.80000  -9.274962335127E+000     # Exc(1)
<rt_tddft>:      4.80000   0.000000000000E+000     # Exc(2)
<rt_tddft>:      4.80000  -7.632385593896E+001     # Etot
<rt_tddft>:      4.80000   2.001314669542E-010     # Eadded
<rt_tddft>:      4.80000  -9.999999999798E+000     # Charge [system]
<rt_tddft>:      4.80000  -9.067985459099E-007  -8.267601944940E-001   1.190519204234E-006     # Dipole moment [system]
 zmat_diag_serial: Matrix "Fock MO tmp" is Hermitian; using zheev
 zmat_diag_serial: Matrix "Fock MO tmp" is Hermitian; using zheev
 rt_tddft_project: Eigenvector matrix is unitary.  Good.
 === Applied closed shell MO CAP ===
 zmat_diag_serial: Matrix "Fock MO tmp" is Hermitian; using zheev
 zmat_diag_serial: Matrix "Fock MO tmp" is Hermitian; using zheev
 rt_tddft_project: Eigenvector matrix is unitary.  Good.
 === Applied closed shell MO CAP ===
<rt_tddft>:      5.00000   0.000000000000E+000   0.000000000000E+000   0.000000000000E+000     # Applied E-field [system] (alpha spin)
<rt_tddft>:      5.00000   0.000000000000E+000   0.000000000000E+000   0.000000000000E+000     # Applied E-field [system] (beta spin)
<rt_tddft>:      5.00000   9.178263009833E+000     # Enuc
<rt_tddft>:      5.00000  -1.230886908206E+002     # Ecore
<rt_tddft>:      5.00000   4.686153420691E+001     # Ecoul
<rt_tddft>:      5.00000  -9.274962335134E+000     # Exc(1)
<rt_tddft>:      5.00000   0.000000000000E+000     # Exc(2)
<rt_tddft>:      5.00000  -7.632385593896E+001     # Etot
<rt_tddft>:      5.00000   2.047926273008E-010     # Eadded
<rt_tddft>:      5.00000  -9.999999999798E+000     # Charge [system]
<rt_tddft>:      5.00000  -9.067985444624E-007  -8.267601945427E-001   1.234818528341E-006     # Dipole moment [system]
 zmat_diag_serial: Matrix "Fock MO tmp" is Hermitian; using zheev
 zmat_diag_serial: Matrix "Fock MO tmp" is Hermitian; using zheev
 rt_tddft_project: Eigenvector matrix is unitary.  Good.
 === Applied closed shell MO CAP ===
 zmat_diag_serial: Matrix "Fock MO tmp" is Hermitian; using zheev
 zmat_diag_serial: Matrix "Fock MO tmp" is Hermitian; using zheev
 rt_tddft_project: Eigenvector matrix is unitary.  Good.
 === Applied closed shell MO CAP ===
<rt_tddft>:      5.20000   0.000000000000E+000   0.000000000000E+000   0.000000000000E+000     # Applied E-field [system] (alpha spin)
<rt_tddft>:      5.20000   0.000000000000E+000   0.000000000000E+000   0.000000000000E+000     # Applied E-field [system] (beta spin)
<rt_tddft>:      5.20000   9.178263009833E+000     # Enuc
<rt_tddft>:      5.20000  -1.230886908206E+002     # Ecore
<rt_tddft>:      5.20000   4.686153420695E+001     # Ecoul
<rt_tddft>:      5.20000  -9.274962335136E+000     # Exc(1)
<rt_tddft>:      5.20000   0.000000000000E+000     # Exc(2)
<rt_tddft>:      5.20000  -7.632385593896E+001     # Etot
<rt_tddft>:      5.20000   2.094822093568E-010     # Eadded
<rt_tddft>:      5.20000  -9.999999999798E+000     # Charge [system]
<rt_tddft>:      5.20000  -9.067985445394E-007  -8.267601945904E-001   1.291722448824E-006     # Dipole moment [system]
 zmat_diag_serial: Matrix "Fock MO tmp" is Hermitian; using zheev
 zmat_diag_serial: Matrix "Fock MO tmp" is Hermitian; using zheev
 rt_tddft_project: Eigenvector matrix is unitary.  Good.
 === Applied closed shell MO CAP ===
 zmat_diag_serial: Matrix "Fock MO tmp" is Hermitian; using zheev
 zmat_diag_serial: Matrix "Fock MO tmp" is Hermitian; using zheev
 rt_tddft_project: Eigenvector matrix is unitary.  Good.
 === Applied closed shell MO CAP ===
<rt_tddft>:      5.40000   0.000000000000E+000   0.000000000000E+000   0.000000000000E+000     # Applied E-field [system] (alpha spin)
<rt_tddft>:      5.40000   0.000000000000E+000   0.000000000000E+000   0.000000000000E+000     # Applied E-field [system] (beta spin)
<rt_tddft>:      5.40000   9.178263009833E+000     # Enuc
<rt_tddft>:      5.40000  -1.230886908206E+002     # Ecore
<rt_tddft>:      5.40000   4.686153420700E+001     # Ecoul
<rt_tddft>:      5.40000  -9.274962335142E+000     # Exc(1)
<rt_tddft>:      5.40000   0.000000000000E+000     # Exc(2)
<rt_tddft>:      5.40000  -7.632385593895E+001     # Etot
<rt_tddft>:      5.40000   2.141291588487E-010     # Eadded
<rt_tddft>:      5.40000  -9.999999999797E+000     # Charge [system]
<rt_tddft>:      5.40000  -9.067985433274E-007  -8.267601946370E-001   1.330630362290E-006     # Dipole moment [system]
 zmat_diag_serial: Matrix "Fock MO tmp" is Hermitian; using zheev
 zmat_diag_serial: Matrix "Fock MO tmp" is Hermitian; using zheev
 rt_tddft_project: Eigenvector matrix is unitary.  Good.
 === Applied closed shell MO CAP ===
 zmat_diag_serial: Matrix "Fock MO tmp" is Hermitian; using zheev
 zmat_diag_serial: Matrix "Fock MO tmp" is Hermitian; using zheev
 rt_tddft_project: Eigenvector matrix is unitary.  Good.
 === Applied closed shell MO CAP ===
<rt_tddft>:      5.60000   0.000000000000E+000   0.000000000000E+000   0.000000000000E+000     # Applied E-field [system] (alpha spin)
<rt_tddft>:      5.60000   0.000000000000E+000   0.000000000000E+000   0.000000000000E+000     # Applied E-field [system] (beta spin)
<rt_tddft>:      5.60000   9.178263009833E+000     # Enuc
<rt_tddft>:      5.60000  -1.230886908207E+002     # Ecore
<rt_tddft>:      5.60000   4.686153420703E+001     # Ecoul
<rt_tddft>:      5.60000  -9.274962335143E+000     # Exc(1)
<rt_tddft>:      5.60000   0.000000000000E+000     # Exc(2)
<rt_tddft>:      5.60000  -7.632385593895E+001     # Etot
<rt_tddft>:      5.60000   2.188045300500E-010     # Eadded
<rt_tddft>:      5.60000  -9.999999999797E+000     # Charge [system]
<rt_tddft>:      5.60000  -9.067985429011E-007  -8.267601946813E-001   1.372976577186E-006     # Dipole moment [system]
 zmat_diag_serial: Matrix "Fock MO tmp" is Hermitian; using zheev
 zmat_diag_serial: Matrix "Fock MO tmp" is Hermitian; using zheev
 rt_tddft_project: Eigenvector matrix is unitary.  Good.
 === Applied closed shell MO CAP ===
 zmat_diag_serial: Matrix "Fock MO tmp" is Hermitian; using zheev
 zmat_diag_serial: Matrix "Fock MO tmp" is Hermitian; using zheev
 rt_tddft_project: Eigenvector matrix is unitary.  Good.
 === Applied closed shell MO CAP ===
<rt_tddft>:      5.80000   0.000000000000E+000   0.000000000000E+000   0.000000000000E+000     # Applied E-field [system] (alpha spin)
<rt_tddft>:      5.80000   0.000000000000E+000   0.000000000000E+000   0.000000000000E+000     # Applied E-field [system] (beta spin)
<rt_tddft>:      5.80000   9.178263009833E+000     # Enuc
<rt_tddft>:      5.80000  -1.230886908207E+002     # Ecore
<rt_tddft>:      5.80000   4.686153420705E+001     # Ecoul
<rt_tddft>:      5.80000  -9.274962335145E+000     # Exc(1)
<rt_tddft>:      5.80000   0.000000000000E+000     # Exc(2)
<rt_tddft>:      5.80000  -7.632385593894E+001     # Etot
<rt_tddft>:      5.80000   2.234230578324E-010     # Eadded
<rt_tddft>:      5.80000  -9.999999999797E+000     # Charge [system]
<rt_tddft>:      5.80000  -9.067985427650E-007  -8.267601947233E-001   1.425318902848E-006     # Dipole moment [system]
 zmat_diag_serial: Matrix "Fock MO tmp" is Hermitian; using zheev
 zmat_diag_serial: Matrix "Fock MO tmp" is Hermitian; using zheev
 rt_tddft_project: Eigenvector matrix is unitary.  Good.
 === Applied closed shell MO CAP ===
 zmat_diag_serial: Matrix "Fock MO tmp" is Hermitian; using zheev
 zmat_diag_serial: Matrix "Fock MO tmp" is Hermitian; using zheev
 rt_tddft_project: Eigenvector matrix is unitary.  Good.
 === Applied closed shell MO CAP ===
<rt_tddft>:      6.00000   0.000000000000E+000   0.000000000000E+000   0.000000000000E+000     # Applied E-field [system] (alpha spin)
<rt_tddft>:      6.00000   0.000000000000E+000   0.000000000000E+000   0.000000000000E+000     # Applied E-field [system] (beta spin)
<rt_tddft>:      6.00000   9.178263009833E+000     # Enuc
<rt_tddft>:      6.00000  -1.230886908207E+002     # Ecore
<rt_tddft>:      6.00000   4.686153420707E+001     # Ecoul
<rt_tddft>:      6.00000  -9.274962335146E+000     # Exc(1)
<rt_tddft>:      6.00000   0.000000000000E+000     # Exc(2)
<rt_tddft>:      6.00000  -7.632385593894E+001     # Etot
<rt_tddft>:      6.00000   2.282547484356E-010     # Eadded
<rt_tddft>:      6.00000  -9.999999999796E+000     # Charge [system]
<rt_tddft>:      6.00000  -9.067985426687E-007  -8.267601947626E-001   1.462914021655E-006     # Dipole moment [system]
 zmat_diag_serial: Matrix "Fock MO tmp" is Hermitian; using zheev
 zmat_diag_serial: Matrix "Fock MO tmp" is Hermitian; using zheev
 rt_tddft_project: Eigenvector matrix is unitary.  Good.
 === Applied closed shell MO CAP ===
 zmat_diag_serial: Matrix "Fock MO tmp" is Hermitian; using zheev
 zmat_diag_serial: Matrix "Fock MO tmp" is Hermitian; using zheev
 rt_tddft_project: Eigenvector matrix is unitary.  Good.
 === Applied closed shell MO CAP ===
<rt_tddft>:      6.20000   0.000000000000E+000   0.000000000000E+000   0.000000000000E+000     # Applied E-field [system] (alpha spin)
<rt_tddft>:      6.20000   0.000000000000E+000   0.000000000000E+000   0.000000000000E+000     # Applied E-field [system] (beta spin)
<rt_tddft>:      6.20000   9.178263009833E+000     # Enuc
<rt_tddft>:      6.20000  -1.230886908207E+002     # Ecore
<rt_tddft>:      6.20000   4.686153420708E+001     # Ecoul
<rt_tddft>:      6.20000  -9.274962335144E+000     # Exc(1)
<rt_tddft>:      6.20000   0.000000000000E+000     # Exc(2)
<rt_tddft>:      6.20000  -7.632385593893E+001     # Etot
<rt_tddft>:      6.20000   2.329443304916E-010     # Eadded
<rt_tddft>:      6.20000  -9.999999999796E+000     # Charge [system]
<rt_tddft>:      6.20000  -9.067985432522E-007  -8.267601947981E-001   1.503092018244E-006     # Dipole moment [system]
 zmat_diag_serial: Matrix "Fock MO tmp" is Hermitian; using zheev
 zmat_diag_serial: Matrix "Fock MO tmp" is Hermitian; using zheev
 rt_tddft_project: Eigenvector matrix is unitary.  Good.
 === Applied closed shell MO CAP ===
 zmat_diag_serial: Matrix "Fock MO tmp" is Hermitian; using zheev
 zmat_diag_serial: Matrix "Fock MO tmp" is Hermitian; using zheev
 rt_tddft_project: Eigenvector matrix is unitary.  Good.
 === Applied closed shell MO CAP ===
<rt_tddft>:      6.40000   0.000000000000E+000   0.000000000000E+000   0.000000000000E+000     # Applied E-field [system] (alpha spin)
<rt_tddft>:      6.40000   0.000000000000E+000   0.000000000000E+000   0.000000000000E+000     # Applied E-field [system] (beta spin)
<rt_tddft>:      6.40000   9.178263009833E+000     # Enuc
<rt_tddft>:      6.40000  -1.230886908207E+002     # Ecore
<rt_tddft>:      6.40000   4.686153420707E+001     # Ecoul
<rt_tddft>:      6.40000  -9.274962335143E+000     # Exc(1)
<rt_tddft>:      6.40000   0.000000000000E+000     # Exc(2)
<rt_tddft>:      6.40000  -7.632385593893E+001     # Etot
<rt_tddft>:      6.40000   2.376481234023E-010     # Eadded
<rt_tddft>:      6.40000  -9.999999999796E+000     # Charge [system]
<rt_tddft>:      6.40000  -9.067985435606E-007  -8.267601948306E-001   1.536644140308E-006     # Dipole moment [system]
 zmat_diag_serial: Matrix "Fock MO tmp" is Hermitian; using zheev
 zmat_diag_serial: Matrix "Fock MO tmp" is Hermitian; using zheev
 rt_tddft_project: Eigenvector matrix is unitary.  Good.
 === Applied closed shell MO CAP ===
 zmat_diag_serial: Matrix "Fock MO tmp" is Hermitian; using zheev
 zmat_diag_serial: Matrix "Fock MO tmp" is Hermitian; using zheev
 rt_tddft_project: Eigenvector matrix is unitary.  Good.
 === Applied closed shell MO CAP ===
[...]
<rt_tddft>:    247.40000   9.178263009833E+000     # Enuc
<rt_tddft>:    247.40000  -1.230886908122E+002     # Ecore
<rt_tddft>:    247.40000   4.686153420342E+001     # Ecoul
<rt_tddft>:    247.40000  -9.274962334289E+000     # Exc(1)
<rt_tddft>:    247.40000   0.000000000000E+000     # Exc(2)
<rt_tddft>:    247.40000  -7.632385593323E+001     # Etot
<rt_tddft>:    247.40000   5.936399816164E-009     # Eadded
<rt_tddft>:    247.40000  -9.999999999499E+000     # Charge [system]
<rt_tddft>:    247.40000  -9.067984839368E-007  -8.267601944146E-001   1.130900296254E-006     # Dipole moment [system]
 zmat_diag_serial: Matrix "Fock MO tmp" is Hermitian; using zheev
 zmat_diag_serial: Matrix "Fock MO tmp" is Hermitian; using zheev
 rt_tddft_project: Eigenvector matrix is unitary.  Good.
 === Applied closed shell MO CAP ===
 zmat_diag_serial: Matrix "Fock MO tmp" is Hermitian; using zheev
 zmat_diag_serial: Matrix "Fock MO tmp" is Hermitian; using zheev
 rt_tddft_project: Eigenvector matrix is unitary.  Good.
 === Applied closed shell MO CAP ===
<rt_tddft>:    247.60000   0.000000000000E+000   0.000000000000E+000   0.000000000000E+000     # Applied E-field [system] (alpha spin)
<rt_tddft>:    247.60000   0.000000000000E+000   0.000000000000E+000   0.000000000000E+000     # Applied E-field [system] (beta spin)
<rt_tddft>:    247.60000   9.178263009833E+000     # Enuc
<rt_tddft>:    247.60000  -1.230886908122E+002     # Ecore
<rt_tddft>:    247.60000   4.686153420339E+001     # Ecoul
<rt_tddft>:    247.60000  -9.274962334286E+000     # Exc(1)
<rt_tddft>:    247.60000   0.000000000000E+000     # Exc(2)
<rt_tddft>:    247.60000  -7.632385593322E+001     # Etot
<rt_tddft>:    247.60000   5.941089398220E-009     # Eadded
<rt_tddft>:    247.60000  -9.999999999499E+000     # Charge [system]
<rt_tddft>:    247.60000  -9.067984887131E-007  -8.267601943811E-001   1.186562158630E-006     # Dipole moment [system]
 zmat_diag_serial: Matrix "Fock MO tmp" is Hermitian; using zheev
 zmat_diag_serial: Matrix "Fock MO tmp" is Hermitian; using zheev
 rt_tddft_project: Eigenvector matrix is unitary.  Good.
 === Applied closed shell MO CAP ===
 zmat_diag_serial: Matrix "Fock MO tmp" is Hermitian; using zheev
 zmat_diag_serial: Matrix "Fock MO tmp" is Hermitian; using zheev
 rt_tddft_project: Eigenvector matrix is unitary.  Good.
 === Applied closed shell MO CAP ===
<rt_tddft>:    247.80000   0.000000000000E+000   0.000000000000E+000   0.000000000000E+000     # Applied E-field [system] (alpha spin)
<rt_tddft>:    247.80000   0.000000000000E+000   0.000000000000E+000   0.000000000000E+000     # Applied E-field [system] (beta spin)
<rt_tddft>:    247.80000   9.178263009833E+000     # Enuc
<rt_tddft>:    247.80000  -1.230886908121E+002     # Ecore
<rt_tddft>:    247.80000   4.686153420338E+001     # Ecoul
<rt_tddft>:    247.80000  -9.274962334287E+000     # Exc(1)
<rt_tddft>:    247.80000   0.000000000000E+000     # Exc(2)
<rt_tddft>:    247.80000  -7.632385593322E+001     # Etot
<rt_tddft>:    247.80000   5.945807401986E-009     # Eadded
<rt_tddft>:    247.80000  -9.999999999498E+000     # Charge [system]
<rt_tddft>:    247.80000  -9.067984959020E-007  -8.267601943487E-001   1.237705260468E-006     # Dipole moment [system]
 zmat_diag_serial: Matrix "Fock MO tmp" is Hermitian; using zheev
 zmat_diag_serial: Matrix "Fock MO tmp" is Hermitian; using zheev
 rt_tddft_project: Eigenvector matrix is unitary.  Good.
 === Applied closed shell MO CAP ===
 zmat_diag_serial: Matrix "Fock MO tmp" is Hermitian; using zheev
 zmat_diag_serial: Matrix "Fock MO tmp" is Hermitian; using zheev
 rt_tddft_project: Eigenvector matrix is unitary.  Good.
 === Applied closed shell MO CAP ===
<rt_tddft>:    248.00000   0.000000000000E+000   0.000000000000E+000   0.000000000000E+000     # Applied E-field [system] (alpha spin)
<rt_tddft>:    248.00000   0.000000000000E+000   0.000000000000E+000   0.000000000000E+000     # Applied E-field [system] (beta spin)
<rt_tddft>:    248.00000   9.178263009833E+000     # Enuc
<rt_tddft>:    248.00000  -1.230886908121E+002     # Ecore
<rt_tddft>:    248.00000   4.686153420335E+001     # Ecoul
<rt_tddft>:    248.00000  -9.274962334281E+000     # Exc(1)
<rt_tddft>:    248.00000   0.000000000000E+000     # Exc(2)
<rt_tddft>:    248.00000  -7.632385593321E+001     # Etot
<rt_tddft>:    248.00000   5.950553827461E-009     # Eadded
<rt_tddft>:    248.00000  -9.999999999498E+000     # Charge [system]
<rt_tddft>:    248.00000  -9.067985064910E-007  -8.267601943167E-001   1.284135299266E-006     # Dipole moment [system]
 zmat_diag_serial: Matrix "Fock MO tmp" is Hermitian; using zheev
 zmat_diag_serial: Matrix "Fock MO tmp" is Hermitian; using zheev
 rt_tddft_project: Eigenvector matrix is unitary.  Good.
 === Applied closed shell MO CAP ===
 zmat_diag_serial: Matrix "Fock MO tmp" is Hermitian; using zheev
 zmat_diag_serial: Matrix "Fock MO tmp" is Hermitian; using zheev
 rt_tddft_project: Eigenvector matrix is unitary.  Good.
 === Applied closed shell MO CAP ===
 zmat_diag_serial: Matrix "Fock MO tmp" is Hermitian; using zheev
 zmat_diag_serial: Matrix "Fock MO tmp" is Hermitian; using zheev
 rt_tddft_project: Eigenvector matrix is unitary.  Good.
 === Applied closed shell MO CAP ===
 mat_is_same: || A - B || =    3.9258664736996962E-008
rt_tddft_checkpoint: F not Hermitian vs tolerance 1.00E-08
 mat_is_same: || A - B || =    3.8448886814659857E-008
rt_tddft_checkpoint: F' not Hermitian vs tolerance 1.00E-08
<rt_tddft>:    248.20000        ### WARNING: CHECKS FAILED ###
<rt_tddft>:    248.20000   0.000000000000E+000   0.000000000000E+000   0.000000000000E+000     # Applied E-field [system] (alpha spin)
<rt_tddft>:    248.20000   0.000000000000E+000   0.000000000000E+000   0.000000000000E+000     # Applied E-field [system] (beta spin)
<rt_tddft>:    248.20000   9.178263009833E+000     # Enuc
<rt_tddft>:    248.20000  -1.230886908121E+002     # Ecore
<rt_tddft>:    248.20000   4.686153420334E+001     # Ecoul
<rt_tddft>:    248.20000  -9.274962334282E+000     # Exc(1)
<rt_tddft>:    248.20000   0.000000000000E+000     # Exc(2)
<rt_tddft>:    248.20000  -7.632385593321E+001     # Etot
<rt_tddft>:    248.20000   5.955300252936E-009     # Eadded
<rt_tddft>:    248.20000  -9.999999999498E+000     # Charge [system]
<rt_tddft>:    248.20000  -9.067985198524E-007  -8.267601942867E-001   1.325675919319E-006     # Dipole moment [system]
 zmat_diag_serial: Matrix "Fock MO tmp" is Hermitian; using zheev
 zmat_diag_serial: Matrix "Fock MO tmp" is Hermitian; using zheev
 rt_tddft_project: Eigenvector matrix is unitary.  Good.
 === Applied closed shell MO CAP ===
 zmat_diag_serial: Matrix "Fock MO tmp" is Hermitian; using zheev
 zmat_diag_serial: Matrix "Fock MO tmp" is Hermitian; using zheev
 rt_tddft_project: Eigenvector matrix is unitary.  Good.
 === Applied closed shell MO CAP ===
<rt_tddft>:    248.40000        ### Estimated time remaining: 0 second(s) ###
<rt_tddft>:    248.40000   0.000000000000E+000   0.000000000000E+000   0.000000000000E+000     # Applied E-field [system] (alpha spin)
<rt_tddft>:    248.40000   0.000000000000E+000   0.000000000000E+000   0.000000000000E+000     # Applied E-field [system] (beta spin)
<rt_tddft>:    248.40000   9.178263009833E+000     # Enuc
<rt_tddft>:    248.40000  -1.230886908121E+002     # Ecore
<rt_tddft>:    248.40000   4.686153420331E+001     # Ecoul
<rt_tddft>:    248.40000  -9.274962334279E+000     # Exc(1)
<rt_tddft>:    248.40000   0.000000000000E+000     # Exc(2)
<rt_tddft>:    248.40000  -7.632385593320E+001     # Etot
<rt_tddft>:    248.40000   5.960018256701E-009     # Eadded
<rt_tddft>:    248.40000  -9.999999999498E+000     # Charge [system]
<rt_tddft>:    248.40000  -9.067985362640E-007  -8.267601942576E-001   1.362168600814E-006     # Dipole moment [system]
 zmat_diag_serial: Matrix "Fock MO tmp" is Hermitian; using zheev
 zmat_diag_serial: Matrix "Fock MO tmp" is Hermitian; using zheev
 rt_tddft_project: Eigenvector matrix is unitary.  Good.
 === Applied closed shell MO CAP ===
 zmat_diag_serial: Matrix "Fock MO tmp" is Hermitian; using zheev
 zmat_diag_serial: Matrix "Fock MO tmp" is Hermitian; using zheev
 rt_tddft_project: Eigenvector matrix is unitary.  Good.
 === Applied closed shell MO CAP ===
<rt_tddft>:    248.60000   0.000000000000E+000   0.000000000000E+000   0.000000000000E+000     # Applied E-field [system] (alpha spin)
<rt_tddft>:    248.60000   0.000000000000E+000   0.000000000000E+000   0.000000000000E+000     # Applied E-field [system] (beta spin)
<rt_tddft>:    248.60000   9.178263009833E+000     # Enuc
<rt_tddft>:    248.60000  -1.230886908120E+002     # Ecore
<rt_tddft>:    248.60000   4.686153420329E+001     # Ecoul
<rt_tddft>:    248.60000  -9.274962334275E+000     # Exc(1)
<rt_tddft>:    248.60000   0.000000000000E+000     # Exc(2)
<rt_tddft>:    248.60000  -7.632385593320E+001     # Etot
<rt_tddft>:    248.60000   5.964693627902E-009     # Eadded
<rt_tddft>:    248.60000  -9.999999999497E+000     # Charge [system]
<rt_tddft>:    248.60000  -9.067985536445E-007  -8.267601942300E-001   1.393476730547E-006     # Dipole moment [system]
 zmat_diag_serial: Matrix "Fock MO tmp" is Hermitian; using zheev
 zmat_diag_serial: Matrix "Fock MO tmp" is Hermitian; using zheev
 rt_tddft_project: Eigenvector matrix is unitary.  Good.
 === Applied closed shell MO CAP ===
 zmat_diag_serial: Matrix "Fock MO tmp" is Hermitian; using zheev
 zmat_diag_serial: Matrix "Fock MO tmp" is Hermitian; using zheev
 rt_tddft_project: Eigenvector matrix is unitary.  Good.
 === Applied closed shell MO CAP ===
<rt_tddft>:    248.80000   0.000000000000E+000   0.000000000000E+000   0.000000000000E+000     # Applied E-field [system] (alpha spin)
<rt_tddft>:    248.80000   0.000000000000E+000   0.000000000000E+000   0.000000000000E+000     # Applied E-field [system] (beta spin)
<rt_tddft>:    248.80000   9.178263009833E+000     # Enuc
<rt_tddft>:    248.80000  -1.230886908120E+002     # Ecore
<rt_tddft>:    248.80000   4.686153420328E+001     # Ecoul
<rt_tddft>:    248.80000  -9.274962334276E+000     # Exc(1)
<rt_tddft>:    248.80000   0.000000000000E+000     # Exc(2)
<rt_tddft>:    248.80000  -7.632385593320E+001     # Etot
<rt_tddft>:    248.80000   5.969511107651E-009     # Eadded
<rt_tddft>:    248.80000  -9.999999999497E+000     # Charge [system]
<rt_tddft>:    248.80000  -9.067985721919E-007  -8.267601942047E-001   1.419480276192E-006     # Dipole moment [system]
 zmat_diag_serial: Matrix "Fock MO tmp" is Hermitian; using zheev
 zmat_diag_serial: Matrix "Fock MO tmp" is Hermitian; using zheev
 rt_tddft_project: Eigenvector matrix is unitary.  Good.
 === Applied closed shell MO CAP ===
 zmat_diag_serial: Matrix "Fock MO tmp" is Hermitian; using zheev
 zmat_diag_serial: Matrix "Fock MO tmp" is Hermitian; using zheev
 rt_tddft_project: Eigenvector matrix is unitary.  Good.
 === Applied closed shell MO CAP ===
<rt_tddft>:    249.00000   0.000000000000E+000   0.000000000000E+000   0.000000000000E+000     # Applied E-field [system] (alpha spin)
<rt_tddft>:    249.00000   0.000000000000E+000   0.000000000000E+000   0.000000000000E+000     # Applied E-field [system] (beta spin)
<rt_tddft>:    249.00000   9.178263009833E+000     # Enuc
<rt_tddft>:    249.00000  -1.230886908120E+002     # Ecore
<rt_tddft>:    249.00000   4.686153420325E+001     # Ecoul
<rt_tddft>:    249.00000  -9.274962334271E+000     # Exc(1)
<rt_tddft>:    249.00000   0.000000000000E+000     # Exc(2)
<rt_tddft>:    249.00000  -7.632385593319E+001     # Etot
<rt_tddft>:    249.00000   5.974172267997E-009     # Eadded
<rt_tddft>:    249.00000  -9.999999999497E+000     # Charge [system]
<rt_tddft>:    249.00000  -9.067985912473E-007  -8.267601941804E-001   1.440080660627E-006     # Dipole moment [system]
 zmat_diag_serial: Matrix "Fock MO tmp" is Hermitian; using zheev
 zmat_diag_serial: Matrix "Fock MO tmp" is Hermitian; using zheev
 rt_tddft_project: Eigenvector matrix is unitary.  Good.
 === Applied closed shell MO CAP ===
 zmat_diag_serial: Matrix "Fock MO tmp" is Hermitian; using zheev
 zmat_diag_serial: Matrix "Fock MO tmp" is Hermitian; using zheev
 rt_tddft_project: Eigenvector matrix is unitary.  Good.
 === Applied closed shell MO CAP ===
<rt_tddft>:    249.20000   0.000000000000E+000   0.000000000000E+000   0.000000000000E+000     # Applied E-field [system] (alpha spin)
<rt_tddft>:    249.20000   0.000000000000E+000   0.000000000000E+000   0.000000000000E+000     # Applied E-field [system] (beta spin)
<rt_tddft>:    249.20000   9.178263009833E+000     # Enuc
<rt_tddft>:    249.20000  -1.230886908120E+002     # Ecore
<rt_tddft>:    249.20000   4.686153420324E+001     # Ecoul
<rt_tddft>:    249.20000  -9.274962334272E+000     # Exc(1)
<rt_tddft>:    249.20000   0.000000000000E+000     # Exc(2)
<rt_tddft>:    249.20000  -7.632385593319E+001     # Etot
<rt_tddft>:    249.20000   5.978890271763E-009     # Eadded
<rt_tddft>:    249.20000  -9.999999999497E+000     # Charge [system]
<rt_tddft>:    249.20000  -9.067986094496E-007  -8.267601941588E-001   1.455199921301E-006     # Dipole moment [system]
 zmat_diag_serial: Matrix "Fock MO tmp" is Hermitian; using zheev
 zmat_diag_serial: Matrix "Fock MO tmp" is Hermitian; using zheev
 rt_tddft_project: Eigenvector matrix is unitary.  Good.
 === Applied closed shell MO CAP ===
 zmat_diag_serial: Matrix "Fock MO tmp" is Hermitian; using zheev
 zmat_diag_serial: Matrix "Fock MO tmp" is Hermitian; using zheev
 rt_tddft_project: Eigenvector matrix is unitary.  Good.
 === Applied closed shell MO CAP ===
<rt_tddft>:    249.40000   0.000000000000E+000   0.000000000000E+000   0.000000000000E+000     # Applied E-field [system] (alpha spin)
<rt_tddft>:    249.40000   0.000000000000E+000   0.000000000000E+000   0.000000000000E+000     # Applied E-field [system] (beta spin)
<rt_tddft>:    249.40000   9.178263009833E+000     # Enuc
<rt_tddft>:    249.40000  -1.230886908120E+002     # Ecore
<rt_tddft>:    249.40000   4.686153420323E+001     # Ecoul
<rt_tddft>:    249.40000  -9.274962334269E+000     # Exc(1)
<rt_tddft>:    249.40000   0.000000000000E+000     # Exc(2)
<rt_tddft>:    249.40000  -7.632385593318E+001     # Etot
<rt_tddft>:    249.40000   5.983551432109E-009     # Eadded
<rt_tddft>:    249.40000  -9.999999999497E+000     # Charge [system]
<rt_tddft>:    249.40000  -9.067986264103E-007  -8.267601941390E-001   1.464780902729E-006     # Dipole moment [system]
<rt_tddft>:    249.40000        ### Saved restart point ###
 zmat_diag_serial: Matrix "Fock MO tmp" is Hermitian; using zheev
 zmat_diag_serial: Matrix "Fock MO tmp" is Hermitian; using zheev
 rt_tddft_project: Eigenvector matrix is unitary.  Good.
 === Applied closed shell MO CAP ===
 zmat_diag_serial: Matrix "Fock MO tmp" is Hermitian; using zheev
 zmat_diag_serial: Matrix "Fock MO tmp" is Hermitian; using zheev
 rt_tddft_project: Eigenvector matrix is unitary.  Good.
 === Applied closed shell MO CAP ===
<rt_tddft>:    249.60000   0.000000000000E+000   0.000000000000E+000   0.000000000000E+000     # Applied E-field [system] (alpha spin)
<rt_tddft>:    249.60000   0.000000000000E+000   0.000000000000E+000   0.000000000000E+000     # Applied E-field [system] (beta spin)
<rt_tddft>:    249.60000   9.178263009833E+000     # Enuc
<rt_tddft>:    249.60000  -1.230886908120E+002     # Ecore
<rt_tddft>:    249.60000   4.686153420321E+001     # Ecoul
<rt_tddft>:    249.60000  -9.274962334267E+000     # Exc(1)
<rt_tddft>:    249.60000   0.000000000000E+000     # Exc(2)
<rt_tddft>:    249.60000  -7.632385593318E+001     # Etot
<rt_tddft>:    249.60000   5.988283646730E-009     # Eadded
<rt_tddft>:    249.60000  -9.999999999496E+000     # Charge [system]
<rt_tddft>:    249.60000  -9.067986405773E-007  -8.267601941212E-001   1.468787548774E-006     # Dipole moment [system]
 zmat_diag_serial: Matrix "Fock MO tmp" is Hermitian; using zheev
 zmat_diag_serial: Matrix "Fock MO tmp" is Hermitian; using zheev
 rt_tddft_project: Eigenvector matrix is unitary.  Good.
 === Applied closed shell MO CAP ===
 zmat_diag_serial: Matrix "Fock MO tmp" is Hermitian; using zheev
 zmat_diag_serial: Matrix "Fock MO tmp" is Hermitian; using zheev
 rt_tddft_project: Eigenvector matrix is unitary.  Good.
 === Applied closed shell MO CAP ===
<rt_tddft>:    249.80000        ### Propagation finished ###

 Parallel integral file used      16 records with       0 large values


 Task  times  cpu:       56.4s     wall:       56.8s


                                NWChem Input Module
                                -------------------


 Summary of allocated global arrays
-----------------------------------
  No active global arrays



                         GA Statistics for process    0
                         ------------------------------

       create   destroy   get      put      acc     scatter   gather  read&inc
calls: 2.09e+05 2.09e+05 5.13e+05 7.53e+05 3.17e+04    0        0       27     
number of processes/call 4.07e+00 2.16e+00 3.51e+00 0.00e+00 0.00e+00
bytes total:             3.94e+08 1.67e+08 1.42e+07 0.00e+00 0.00e+00 2.16e+02
bytes remote:            2.93e+08 6.65e+07 1.27e+07 0.00e+00 0.00e+00 0.00e+00
Max memory consumed for GA by this process: 58400 bytes

MA_summarize_allocated_blocks: starting scan ...
MA_summarize_allocated_blocks: scan completed: 0 heap blocks, 0 stack blocks
MA usage statistics:

	allocation statistics:
					      heap	     stack
					      ----	     -----
	current number of blocks	         0	         0
	maximum number of blocks	        21	        51
	current total bytes		         0	         0
	maximum total bytes		   1356152	  22510536
	maximum total K-bytes		      1357	     22511
	maximum total M-bytes		         2	        23


                                     CITATION
                                     --------
                Please cite the following reference when publishing
                           results obtained with NWChem:

                 M. Valiev, E.J. Bylaska, N. Govind, K. Kowalski,
              T.P. Straatsma, H.J.J. van Dam, D. Wang, J. Nieplocha,
                        E. Apra, T.L. Windus, W.A. de Jong
                 "NWChem: a comprehensive and scalable open-source
                  solution for large scale molecular simulations"
                      Comput. Phys. Commun. 181, 1477 (2010)
                           doi:10.1016/j.cpc.2010.04.018

                                      AUTHORS
                                      -------
          E. Apra, E. J. Bylaska, W. A. de Jong, N. Govind, K. Kowalski,
       T. P. Straatsma, M. Valiev, H. J. J. van Dam, D. Wang, T. L. Windus,
        J. Hammond, J. Autschbach, K. Bhaskaran-Nair, J. Brabec, K. Lopata,
       S. A. Fischer, S. Krishnamoorthy, W. Ma, M. Klemm, O. Villa, Y. Chen,
    V. Anisimov, F. Aquino, S. Hirata, M. T. Hackler, T. Risthaus, M. Malagoli,
       A. Marenich, A. Otero-de-la-Roza, J. Mullin, P. Nichols, R. Peverati,
     J. Pittner, Y. Zhao, P.-D. Fan, A. Fonari, M. Williamson, R. J. Harrison,
       J. R. Rehr, M. Dupuis, D. Silverstein, D. M. A. Smith, J. Nieplocha,
        V. Tipparaju, M. Krishnan, B. E. Van Kuiken, A. Vazquez-Mayagoitia,
        L. Jensen, M. Swart, Q. Wu, T. Van Voorhis, A. A. Auer, M. Nooijen,
      L. D. Crosby, E. Brown, G. Cisneros, G. I. Fann, H. Fruchtl, J. Garza,
        K. Hirao, R. A. Kendall, J. A. Nichols, K. Tsemekhman, K. Wolinski,
     J. Anchell, D. E. Bernholdt, P. Borowski, T. Clark, D. Clerc, H. Dachsel,
   M. J. O. Deegan, K. Dyall, D. Elwood, E. Glendening, M. Gutowski, A. C. Hess,
         J. Jaffe, B. G. Johnson, J. Ju, R. Kobayashi, R. Kutteh, Z. Lin,
   R. Littlefield, X. Long, B. Meng, T. Nakajima, S. Niu, L. Pollack, M. Rosing,
   K. Glaesemann, G. Sandrone, M. Stave, H. Taylor, G. Thomas, J. H. van Lenthe,
                               A. T. Wong, Z. Zhang.

 Total times  cpu:       56.6s     wall:       58.0s
