 argument  1 = cosmo_h2cco2na.nw



============================== echo of input deck ==============================
echo

start cosmo_h2cco2na_dat

geometry
    na     0.00000000     0.00000000    -1.88952175
    o      0.00000000    -1.13017681    -0.02536123
    o      0.00000000     1.13017681    -0.02536123
    c      0.00000000     0.00000000     0.57704797
    c      0.00000000     0.00000000     2.04258971
    h      0.00000000    -0.93903758     2.58461999
    h      0.00000000     0.93903758     2.58461999
end

basis spherical
  * library 6-31g*
end

cosmo
end

dft
  odft
  xc b3lyp
  mult 2
  print cosmo_energies
end

task dft optimize
================================================================================


                                         
                                         


              Northwest Computational Chemistry Package (NWChem) 6.8
              ------------------------------------------------------


                    Environmental Molecular Sciences Laboratory
                       Pacific Northwest National Laboratory
                                Richland, WA 99352

                              Copyright (c) 1994-2017
                       Pacific Northwest National Laboratory
                            Battelle Memorial Institute

             NWChem is an open-source computational chemistry package
                        distributed under the terms of the
                      Educational Community License (ECL) 2.0
             A copy of the license is included with this distribution
                              in the LICENSE.TXT file

                                  ACKNOWLEDGMENT
                                  --------------

            This software and its documentation were developed at the
            EMSL at Pacific Northwest National Laboratory, a multiprogram
            national laboratory, operated for the U.S. Department of Energy
            by Battelle under Contract Number DE-AC05-76RL01830. Support
            for this work was provided by the Department of Energy Office
            of Biological and Environmental Research, Office of Basic
            Energy Sciences, and the Office of Advanced Scientific Computing.


           Job information
           ---------------

    hostname        = kohn
    program         = ../../../bin/LINUX64/nwchem
    date            = Wed Sep 13 21:42:11 2017

    compiled        = Wed_Sep_13_21:39:26_2017
    source          = /home/niri/nwchem/nwchem-6.8
    nwchem branch   = 6.8
    nwchem revision = 29444
    ga revision     = N/A
    input           = cosmo_h2cco2na.nw
    prefix          = cosmo_h2cco2na_dat.
    data base       = ./cosmo_h2cco2na_dat.db
    status          = startup
    nproc           =        4
    time left       =     -1s



           Memory information
           ------------------

    heap     =   13107196 doubles =    100.0 Mbytes
    stack    =   13107201 doubles =    100.0 Mbytes
    global   =   26214400 doubles =    200.0 Mbytes (distinct from heap & stack)
    total    =   52428797 doubles =    400.0 Mbytes
    verify   = yes
    hardfail = no 


           Directory information
           ---------------------

  0 permanent = .
  0 scratch   = .




                                NWChem Input Module
                                -------------------



 Scaling coordinates for geometry "geometry" by  1.889725989
 (inverse scale =  0.529177249)

 C2V symmetry detected

          ------
          auto-z
          ------


                             Geometry "geometry" -> ""
                             -------------------------

 Output coordinates in angstroms (scale by  1.889725989 to convert to a.u.)

  No.       Tag          Charge          X              Y              Z
 ---- ---------------- ---------- -------------- -------------- --------------
    1 na                  11.0000     0.00000000     0.00000000    -1.88212046
    2 o                    8.0000     0.00000000    -1.13017681    -0.01795994
    3 o                    8.0000     0.00000000     1.13017681    -0.01795994
    4 c                    6.0000     0.00000000     0.00000000     0.58444926
    5 c                    6.0000     0.00000000     0.00000000     2.04999100
    6 h                    1.0000     0.00000000    -0.93903758     2.59202128
    7 h                    1.0000     0.00000000     0.93903758     2.59202128

      Atomic Mass 
      ----------- 

      na                22.989800
      o                 15.994910
      c                 12.000000
      h                  1.007825


 Effective nuclear repulsion energy (a.u.)     172.2972242243

            Nuclear Dipole moment (a.u.) 
            ----------------------------
        X                 Y               Z
 ---------------- ---------------- ----------------
     0.0000000000     0.0000000000     0.0000000000

      Symmetry information
      --------------------

 Group name             C2v       
 Group number             16
 Group order               4
 No. of unique centers     5

      Symmetry unique atoms

     1    2    4    5    6



                                Z-matrix (autoz)
                                -------- 

 Units are Angstrom for bonds and degrees for angles

      Type          Name      I     J     K     L     M      Value
      ----------- --------  ----- ----- ----- ----- ----- ----------
    1 Stretch                  1     2                       2.18000
    2 Stretch                  1     3                       2.18000
    3 Stretch                  1     4                       2.46657
    4 Stretch                  2     4                       1.28070
    5 Stretch                  3     4                       1.28070
    6 Stretch                  4     5                       1.46554
    7 Stretch                  5     6                       1.08425
    8 Stretch                  5     7                       1.08425
    9 Bend                     1     2     4                86.83160
   10 Bend                     1     3     4                86.83160
   11 Bend                     1     4     2                61.94140
   12 Bend                     1     4     3                61.94140
   13 Bend                     2     1     3                62.45400
   14 Bend                     2     1     4                31.22700
   15 Bend                     2     4     3               123.88280
   16 Bend                     2     4     5               118.05860
   17 Bend                     3     1     4                31.22700
   18 Bend                     3     4     5               118.05860
   19 Bend                     4     5     6               119.99436
   20 Bend                     4     5     7               119.99436
   21 Bend                     6     5     7               120.01129
   22 Torsion                  1     2     4     3           0.00000
   23 Torsion                  1     2     4     5         180.00000
   24 Torsion                  1     3     4     2           0.00000
   25 Torsion                  1     3     4     5         180.00000
   26 Torsion                  2     1     3     4           0.00000
   27 Torsion                  2     1     4     3         180.00000
   28 Torsion                  2     1     5     6           0.00000
   29 Torsion                  2     1     5     7         180.00000
   30 Torsion                  2     4     1     3         180.00000
   31 Torsion                  2     4     5     6           0.00000
   32 Torsion                  2     4     5     7         180.00000
   33 Torsion                  3     1     2     4          -0.00000
   34 Torsion                  3     1     5     6         180.00000
   35 Torsion                  3     1     5     7           0.00000
   36 Torsion                  3     4     5     6         180.00000
   37 Torsion                  3     4     5     7           0.00000
   38 Torsion                  1     4     6     5         180.00000
   39 Torsion                  1     4     7     5         180.00000


            XYZ format geometry
            -------------------
     7
 geometry
 na                    0.00000000     0.00000000    -1.88212046
 o                     0.00000000    -1.13017681    -0.01795994
 o                     0.00000000     1.13017681    -0.01795994
 c                     0.00000000     0.00000000     0.58444926
 c                     0.00000000     0.00000000     2.04999100
 h                     0.00000000    -0.93903758     2.59202128
 h                     0.00000000     0.93903758     2.59202128

 ==============================================================================
                                internuclear distances
 ------------------------------------------------------------------------------
       center one      |      center two      | atomic units |  angstroms
 ------------------------------------------------------------------------------
    2 o                |   1 na               |     4.11960  |     2.18000
    3 o                |   1 na               |     4.11960  |     2.18000
    4 c                |   1 na               |     4.66114  |     2.46657
    4 c                |   2 o                |     2.42018  |     1.28070
    4 c                |   3 o                |     2.42018  |     1.28070
    5 c                |   4 c                |     2.76947  |     1.46554
    6 h                |   5 c                |     2.04893  |     1.08425
    7 h                |   5 c                |     2.04893  |     1.08425
 ------------------------------------------------------------------------------
                         number of included internuclear distances:          8
 ==============================================================================



 ==============================================================================
                                 internuclear angles
 ------------------------------------------------------------------------------
        center 1       |       center 2       |       center 3       |  degrees
 ------------------------------------------------------------------------------
    2 o                |   1 na               |   3 o                |    62.45
    1 na               |   2 o                |   4 c                |    86.83
    1 na               |   3 o                |   4 c                |    86.83
    1 na               |   2 o                |   4 c                |    86.83
    1 na               |   3 o                |   4 c                |    86.83
    4 c                |   2 o                |   1 na               |    86.83
    4 c                |   3 o                |   1 na               |    86.83
    1 na               |   4 c                |   5 c                |   180.00
    2 o                |   4 c                |   3 o                |   123.88
    2 o                |   4 c                |   5 c                |   118.06
    3 o                |   4 c                |   5 c                |   118.06
    4 c                |   5 c                |   6 h                |   119.99
    4 c                |   5 c                |   7 h                |   119.99
    6 h                |   5 c                |   7 h                |   120.01
 ------------------------------------------------------------------------------
                            number of included internuclear angles:         14
 ==============================================================================



  library name resolved from: environment
  library file name is: </home/niri/nwchem/nwchem-6.8/src/basis/libraries/>
  


 Summary of "ao basis" -> "" (spherical)
 ------------------------------------------------------------------------------
       Tag                 Description            Shells   Functions and Types
 ---------------- ------------------------------  ------  ---------------------
 *                           6-31g*                   on all atoms 




                           NWChem Geometry Optimization
                           ----------------------------


 maximum gradient threshold         (gmax) =   0.000450
 rms gradient threshold             (grms) =   0.000300
 maximum cartesian step threshold   (xmax) =   0.001800
 rms cartesian step threshold       (xrms) =   0.001200
 fixed trust radius                (trust) =   0.300000
 maximum step size to saddle      (sadstp) =   0.100000
 energy precision                  (eprec) =   5.0D-06
 maximum number of steps          (nptopt) =   20
 initial hessian option           (inhess) =    0
 line search option               (linopt) =    1
 hessian update option            (modupd) =    1
 saddle point option              (modsad) =    0
 initial eigen-mode to follow     (moddir) =    0
 initial variable to follow       (vardir) =    0
 follow first negative mode     (firstneg) =    T
 apply conjugacy                    (opcg) =    F
 source of zmatrix                         =   autoz   


          -------------------
          Energy Minimization
          -------------------


 Names of Z-matrix variables 
    1              2              3              4              5         
    6              7              8              9             10         
   11             12             13             14             15         
   16             17             18             19             20         
   21             22             23             24             25         
   26             27             28             29             30         
   31             32             33             34             35         
   36             37             38             39         

 Variables with the same non-blank name are constrained to be equal


 Using diagonal initial Hessian 
 Scaling for Hessian diagonals: bonds = 1.00  angles = 0.25  torsions = 0.10

          --------
          Step   0
          --------


                         Geometry "geometry" -> "geometry"
                         ---------------------------------

 Output coordinates in angstroms (scale by  1.889725989 to convert to a.u.)

  No.       Tag          Charge          X              Y              Z
 ---- ---------------- ---------- -------------- -------------- --------------
    1 na                  11.0000     0.00000000     0.00000000    -1.88212046
    2 o                    8.0000     0.00000000    -1.13017681    -0.01795994
    3 o                    8.0000     0.00000000     1.13017681    -0.01795994
    4 c                    6.0000     0.00000000     0.00000000     0.58444926
    5 c                    6.0000     0.00000000     0.00000000     2.04999100
    6 h                    1.0000     0.00000000    -0.93903758     2.59202128
    7 h                    1.0000     0.00000000     0.93903758     2.59202128

      Atomic Mass 
      ----------- 

      na                22.989800
      o                 15.994910
      c                 12.000000
      h                  1.007825


 Effective nuclear repulsion energy (a.u.)     172.2972242243

            Nuclear Dipole moment (a.u.) 
            ----------------------------
        X                 Y               Z
 ---------------- ---------------- ----------------
     0.0000000000     0.0000000000     0.0000000000

      Symmetry information
      --------------------

 Group name             C2v       
 Group number             16
 Group order               4
 No. of unique centers     5

      Symmetry unique atoms

     1    2    4    5    6


                                 NWChem DFT Module
                                 -----------------


                      Basis "ao basis" -> "ao basis" (spherical)
                      -----
  na (Sodium)
  -----------
            Exponent  Coefficients 
       -------------- ---------------------------------------------------------
  1 S  9.99320000E+03  0.001938
  1 S  1.49989000E+03  0.014807
  1 S  3.41951000E+02  0.072706
  1 S  9.46797000E+01  0.252629
  1 S  2.97345000E+01  0.493242
  1 S  1.00063000E+01  0.313169

  2 S  1.50963000E+02 -0.003542
  2 S  3.55878000E+01 -0.043959
  2 S  1.11683000E+01 -0.109752
  2 S  3.90201000E+00  0.187398
  2 S  1.38177000E+00  0.646699
  2 S  4.66382000E-01  0.306058

  3 P  1.50963000E+02  0.005002
  3 P  3.55878000E+01  0.035511
  3 P  1.11683000E+01  0.142825
  3 P  3.90201000E+00  0.338620
  3 P  1.38177000E+00  0.451579
  3 P  4.66382000E-01  0.273271

  4 S  4.97966000E-01 -0.248503
  4 S  8.43530000E-02 -0.131704
  4 S  6.66350000E-02  1.233520

  5 P  4.97966000E-01 -0.023023
  5 P  8.43530000E-02  0.950359
  5 P  6.66350000E-02  0.059858

  6 S  2.59544000E-02  1.000000

  7 P  2.59544000E-02  1.000000

  8 D  1.75000000E-01  1.000000

  o (Oxygen)
  ----------
            Exponent  Coefficients 
       -------------- ---------------------------------------------------------
  1 S  5.48467170E+03  0.001831
  1 S  8.25234950E+02  0.013950
  1 S  1.88046960E+02  0.068445
  1 S  5.29645000E+01  0.232714
  1 S  1.68975700E+01  0.470193
  1 S  5.79963530E+00  0.358521

  2 S  1.55396160E+01 -0.110778
  2 S  3.59993360E+00 -0.148026
  2 S  1.01376180E+00  1.130767

  3 P  1.55396160E+01  0.070874
  3 P  3.59993360E+00  0.339753
  3 P  1.01376180E+00  0.727159

  4 S  2.70005800E-01  1.000000

  5 P  2.70005800E-01  1.000000

  6 D  8.00000000E-01  1.000000

  c (Carbon)
  ----------
            Exponent  Coefficients 
       -------------- ---------------------------------------------------------
  1 S  3.04752490E+03  0.001835
  1 S  4.57369510E+02  0.014037
  1 S  1.03948690E+02  0.068843
  1 S  2.92101550E+01  0.232184
  1 S  9.28666300E+00  0.467941
  1 S  3.16392700E+00  0.362312

  2 S  7.86827240E+00 -0.119332
  2 S  1.88128850E+00 -0.160854
  2 S  5.44249300E-01  1.143456

  3 P  7.86827240E+00  0.068999
  3 P  1.88128850E+00  0.316424
  3 P  5.44249300E-01  0.744308

  4 S  1.68714400E-01  1.000000

  5 P  1.68714400E-01  1.000000

  6 D  8.00000000E-01  1.000000

  h (Hydrogen)
  ------------
            Exponent  Coefficients 
       -------------- ---------------------------------------------------------
  1 S  1.87311370E+01  0.033495
  1 S  2.82539370E+00  0.234727
  1 S  6.40121700E-01  0.813757

  2 S  1.61277800E-01  1.000000



 Summary of "ao basis" -> "ao basis" (spherical)
 ------------------------------------------------------------------------------
       Tag                 Description            Shells   Functions and Types
 ---------------- ------------------------------  ------  ---------------------
 na                          6-31g*                  8       18   4s3p1d
 o                           6-31g*                  6       14   3s2p1d
 c                           6-31g*                  6       14   3s2p1d
 h                           6-31g*                  2        2   2s




 Summary of "ao basis" -> "ao basis" (spherical)
 ------------------------------------------------------------------------------
       Tag                 Description            Shells   Functions and Types
 ---------------- ------------------------------  ------  ---------------------
 na                          6-31g*                  8       18   4s3p1d
 o                           6-31g*                  6       14   3s2p1d
 c                           6-31g*                  6       14   3s2p1d
 h                           6-31g*                  2        2   2s


      Symmetry analysis of basis
      --------------------------

        a1         35
        a2          7
        b1         14
        b2         22


 solvent parameters
 solvname_short: h2o     
 solvname_long:  water                              
 dielec:       78.4000
 dielecinf:     1.7769

          ---------------
          -cosmo- solvent
          ---------------
 Cosmo: York-Karplus, doi: 10.1021/jp992097l
 dielectric constant -eps-     =  78.40
 screen = (eps-1)/(eps    )    =   0.98724
 surface charge correction     = lagrangian
 -lineq- algorithm             =   0
 -bem- low  level              =   2
 -bem- from -octahedral-
 gaussian surface charge width =   0.98000
 degree of switching           =   1.00000
 switching function tolerance  =   0.00010
 atomic radii = 
 --------------
    1 11.000  1.755
    2  8.000  1.720
    3  8.000  1.720
    4  6.000  2.000
    5  6.000  2.000
    6  1.000  1.300
    7  1.000  1.300

 solvent accessible surface
 --------------------------

 ---------- ATOMIC COORDINATES (A.U.) ------------ VDWR(ANG.) --
     1    0.00000000    0.00000000   -3.55669195     1.755
     2    0.00000000   -2.13572449   -0.03393937     1.720
     3    0.00000000    2.13572449   -0.03393937     1.720
     4    0.00000000    0.00000000    1.10444895     2.000
     5    0.00000000    0.00000000    3.87392127     2.000
     6    0.00000000   -1.77452372    4.89820997     1.300
     7    0.00000000    1.77452372    4.89820997     1.300
 number of segments per atom =         32
 number of   points per atom =         32
 atom (   nspa,  nppa )
 ----------------------
    1 (     24,     0 )       0
    2 (     16,     0 )       0
    3 (     16,     0 )       0
    4 (      8,     0 )       0
    5 (     20,     0 )       0
    6 (     16,     0 )       0
    7 (     16,     0 )       0
 number of -cosmo- surface points =      116
 molecular surface =    106.554 angstrom**2
 molecular volume  =     63.279 angstrom**3
 G(cav/disp)       =      1.393 kcal/mol
 ...... end of -cosmo- initialization ......


  Caching 1-el integrals 

            General Information
            -------------------
          SCF calculation type: DFT
          Wavefunction type:  spin polarized.
          No. of atoms     :     7
          No. of electrons :    41
           Alpha electrons :    21
            Beta electrons :    20
          Charge           :     0
          Spin multiplicity:     2
          Use of symmetry is: on ; symmetry adaption is: on 
          Maximum number of iterations:  30
          AO basis - number of functions:    78
                     number of shells:    36
          Convergence on energy requested:  1.00D-06
          Convergence on density requested:  1.00D-05
          Convergence on gradient requested:  5.00D-04

              XC Information
              --------------
                         B3LYP Method XC Potential
                     Hartree-Fock (Exact) Exchange  0.200          
                        Slater Exchange Functional  0.800 local    
                    Becke 1988 Exchange Functional  0.720 non-local
              Lee-Yang-Parr Correlation Functional  0.810          
                  VWN I RPA Correlation Functional  0.190 local    

             Grid Information
             ----------------
          Grid used for XC integration:  medium    
          Radial quadrature: Mura-Knowles        
          Angular quadrature: Lebedev. 
          Tag              B.-S. Rad. Rad. Pts. Rad. Cut. Ang. Pts.
          ---              ---------- --------- --------- ---------
          na                  1.80       88          11.0       434
          o                   0.60       49           9.0       434
          c                   0.70       49          13.0       434
          h                   0.35       45          14.0       434
          Grid pruning is: on 
          Number of quadrature shells:   280
          Spatial weights used:  Erf1

          Convergence Information
          -----------------------
          Convergence aids based upon iterative change in 
          total energy or number of iterations. 
          Levelshifting, if invoked, occurs when the 
          HOMO/LUMO gap drops below (HL_TOL):  1.00D-02
          DIIS, if invoked, will attempt to extrapolate 
          using up to (NFOCK): 10 stored Fock matrices.

                    Damping( 0%)  Levelshifting(0.5)       DIIS
                  --------------- ------------------- ---------------
          dE  on:    start            ASAP                start   
          dE off:    2 iters         30 iters            30 iters 


      Screening Tolerance Information
      -------------------------------
          Density screening/tol_rho:  1.00D-10
          AO Gaussian exp screening on grid/accAOfunc:  14
          CD Gaussian exp screening on grid/accCDfunc:  20
          XC Gaussian exp screening on grid/accXCfunc:  20
          Schwarz screening/accCoul:  1.00D-08


      Superposition of Atomic Density Guess
      -------------------------------------

 Sum of atomic energies:        -387.66706987

      Non-variational initial energy
      ------------------------------

 Total energy =    -389.145747
 1-e energy   =    -878.510847
 2-e energy   =     317.067876
 HOMO         =      -0.197481
 LUMO         =      -0.040321


   Symmetry analysis of molecular orbitals - initial alpha
   -------------------------------------------------------

  Numbering of irreducible representations: 

     1 a1          2 a2          3 b1          4 b2      

  Orbital symmetries:

     1 a1          2 a1          3 b2          4 a1          5 a1      
     6 a1          7 a1          8 b2          9 a1         10 b1      
    11 b2         12 a1         13 a1         14 b2         15 a1      
    16 b1         17 b2         18 a2         19 b2         20 a1      
    21 b1         22 a1         23 b1         24 b2         25 a1      
    26 b1         27 a1         28 a1         29 b1         30 b2      
    31 b2      


   Symmetry analysis of molecular orbitals - initial beta
   ------------------------------------------------------

  Numbering of irreducible representations: 

     1 a1          2 a2          3 b1          4 b2      

  Orbital symmetries:

     1 a1          2 a1          3 b2          4 a1          5 a1      
     6 a1          7 a1          8 b2          9 a1         10 b1      
    11 b2         12 a1         13 a1         14 b2         15 a1      
    16 b1         17 b2         18 a2         19 b2         20 a1      
    21 b1         22 a1         23 b1         24 b2         25 a1      
    26 b1         27 a1         28 a1         29 b1         30 b2      
    31 b2      

   Time after variat. SCF:      0.3
   Time prior to 1st pass:      0.3

 Integral file          = ./cosmo_h2cco2na_dat.aoints.0
 Record size in doubles =  65536        No. of integs per rec  =  43688
 Max. records in memory =     14        Max. records in file   = 143869
 No. of bits per label  =      8        No. of bits per value  =     64


 #quartets = 1.210D+05 #integrals = 1.270D+06 #direct =  0.0% #cached =100.0%


File balance: exchanges=     3  moved=     6  time=   0.0


 Grid_pts file          = ./cosmo_h2cco2na_dat.gridpts.0
 Record size in doubles =  12289        No. of grid_pts per rec  =   3070
 Max. records in memory =     12        Max. recs in file   =    767244


           Memory utilization after 1st SCF pass: 
           Heap Space remaining (MW):       12.04            12037548
          Stack Space remaining (MW):       13.11            13106324

   convergence    iter        energy       DeltaE   RMS-Dens  Diis-err    time
 ---------------- ----- ----------------- --------- --------- ---------  ------
     COSMO gas phase
 d= 0,ls=0.0,diis     1   -390.0118292803 -5.62D+02  1.27D-02  3.38D-01     1.0
                                                     1.62D-02  3.42D-01
 d= 0,ls=0.0,diis     2   -389.2405709209  7.71D-01  9.26D-03  2.03D+00     1.2
                                                     1.43D-02  1.70D+00
 d= 0,ls=0.0,diis     3   -390.1450918917 -9.05D-01  2.45D-03  5.12D-02     1.3
                                                     1.59D-03  3.47D-02
 d= 0,ls=0.0,diis     4   -390.1676781436 -2.26D-02  5.15D-04  5.18D-03     1.5
                                                     6.38D-04  6.04D-03
 d= 0,ls=0.0,diis     5   -390.1702931371 -2.61D-03  2.78D-04  2.62D-04     1.7
                                                     1.20D-04  7.73D-05
  Resetting Diis
 d= 0,ls=0.0,diis     6   -390.1704483443 -1.55D-04  5.72D-05  1.27D-05     1.9
                                                     7.45D-05  1.79D-05
 d= 0,ls=0.0,diis     7   -390.1704599479 -1.16D-05  2.87D-05  2.36D-06     2.1
                                                     3.33D-05  3.86D-06
 d= 0,ls=0.0,diis     8   -390.1704607916 -8.44D-07  1.69D-05  3.17D-06     2.3
                                                     1.40D-05  2.03D-06
 d= 0,ls=0.0,diis     9   -390.1704622175 -1.43D-06  4.16D-06  2.55D-08     2.5
                                                     6.32D-06  7.70D-08
 d= 0,ls=0.0,diis    10   -390.1704622922 -7.47D-08  8.95D-07  8.94D-09     2.7
                                                     8.45D-07  1.06D-08
 Alternative 1
 -atmefc- energy =       0.310244539232
 -elcefc- energy =      -0.386502974292
 -efcefc- energy =       0.038129217530
 -lambda- energy =       0.000000000000
 -solnrg- energy =      -0.038129217530
 -allefc- energy =      -0.076258435061     -0.076258435061
 -ecos  - energy =       0.348373756762
 Alternative 2
 -atmefc- energy =       0.310244539232
 -elcefc- energy =      -0.386502974292
 -allefc- energy =      -0.076258435061
 -solnrg- energy =      -0.038129217530
 -ecos  - energy =       0.348373756762

           Memory utilization after 1st SCF pass: 
           Heap Space remaining (MW):       12.04            12037468
          Stack Space remaining (MW):       13.11            13106324

   convergence    iter        energy       DeltaE   RMS-Dens  Diis-err    time
 ---------------- ----- ----------------- --------- --------- ---------  ------
     COSMO solvation phase
 d= 0,ls=0.0,diis     1   -390.2085915137 -3.81D-02  1.55D-03  2.43D-03     2.9
                                                     1.55D-03  2.38D-03
 Alternative 1
 -atmefc- energy =       0.334375427471
 -elcefc- energy =      -0.423945019779
 -efcefc- energy =       0.044784796154
 -lambda- energy =      -0.000000000000
 -solnrg- energy =      -0.044784796154
 -allefc- energy =      -0.089569592309     -0.089569592309
 -ecos  - energy =       0.379160223625
 Alternative 2
 -atmefc- energy =       0.334375427471
 -elcefc- energy =      -0.423945019779
 -allefc- energy =      -0.089569592309
 -solnrg- energy =      -0.044784796154
 -ecos  - energy =       0.379160223625
 d= 0,ls=0.0,diis     2   -390.2116222295 -3.03D-03  3.57D-04  7.47D-04     3.2
                                                     3.41D-04  7.22D-04
 Alternative 1
 -atmefc- energy =       0.323823821259
 -elcefc- energy =      -0.412385576305
 -efcefc- energy =       0.044280877523
 -lambda- energy =       0.000000000000
 -solnrg- energy =      -0.044280877523
 -allefc- energy =      -0.088561755046     -0.088561755046
 -ecos  - energy =       0.368104698782
 Alternative 2
 -atmefc- energy =       0.323823821259
 -elcefc- energy =      -0.412385576305
 -allefc- energy =      -0.088561755046
 -solnrg- energy =      -0.044280877523
 -ecos  - energy =       0.368104698782
 d= 0,ls=0.0,diis     3   -390.2118149627 -1.93D-04  1.40D-04  3.13D-04     3.5
                                                     1.35D-04  3.06D-04
 Alternative 1
 -atmefc- energy =       0.326039161978
 -elcefc- energy =      -0.415182460274
 -efcefc- energy =       0.044571649148
 -lambda- energy =      -0.000000000000
 -solnrg- energy =      -0.044571649148
 -allefc- energy =      -0.089143298296     -0.089143298296
 -ecos  - energy =       0.370610811126
 Alternative 2
 -atmefc- energy =       0.326039161978
 -elcefc- energy =      -0.415182460274
 -allefc- energy =      -0.089143298296
 -solnrg- energy =      -0.044571649148
 -ecos  - energy =       0.370610811126
 d= 0,ls=0.0,diis     4   -390.2119190455 -1.04D-04  4.28D-05  3.72D-05     3.8
                                                     4.28D-05  3.71D-05
 Alternative 1
 -atmefc- energy =       0.326619674770
 -elcefc- energy =      -0.415895237345
 -efcefc- energy =       0.044637781287
 -lambda- energy =       0.000000000000
 -solnrg- energy =      -0.044637781287
 -allefc- energy =      -0.089275562575     -0.089275562575
 -ecos  - energy =       0.371257456057
 Alternative 2
 -atmefc- energy =       0.326619674770
 -elcefc- energy =      -0.415895237345
 -allefc- energy =      -0.089275562575
 -solnrg- energy =      -0.044637781287
 -ecos  - energy =       0.371257456057
 d= 0,ls=0.0,diis     5   -390.2119339101 -1.49D-05  9.92D-06  1.11D-06     4.0
                                                     8.61D-06  9.08D-07
 Alternative 1
 -atmefc- energy =       0.326171992970
 -elcefc- energy =      -0.415467175516
 -efcefc- energy =       0.044647591273
 -lambda- energy =      -0.000000000000
 -solnrg- energy =      -0.044647591273
 -allefc- energy =      -0.089295182546     -0.089295182546
 -ecos  - energy =       0.370819584243
 Alternative 2
 -atmefc- energy =       0.326171992970
 -elcefc- energy =      -0.415467175516
 -allefc- energy =      -0.089295182546
 -solnrg- energy =      -0.044647591273
 -ecos  - energy =       0.370819584243
 d= 0,ls=0.0,diis     6   -390.2119344231 -5.13D-07  1.45D-06  1.63D-08     4.3
                                                     1.59D-06  1.64D-08


         Total DFT energy =     -390.211934423150
      One electron energy =     -883.988966490713
           Coulomb energy =      364.459959268405
    Exchange-Corr. energy =      -43.350971009433
 Nuclear repulsion energy =      172.297224224349

             COSMO energy =        0.370819584243

 Numeric. integr. density =       40.999996899007

     Total iterative time =      4.0s


                                   COSMO solvation results
                                   -----------------------

                 gas phase energy =      -390.170462292204
                 sol phase energy =      -390.211934423150
 (electrostatic) solvation energy =         0.041472130946 (   26.02 kcal/mol)

                  Occupations of the irreducible representations
                  ----------------------------------------------

                     irrep           alpha         beta
                     --------     --------     --------
                     a1               11.0         11.0
                     a2                1.0          1.0
                     b1                3.0          2.0
                     b2                6.0          6.0


                    DFT Final Alpha Molecular Orbital Analysis
                    ------------------------------------------

 Vector    1  Occ=1.000000D+00  E=-3.843455D+01  Symmetry=a1
              MO Center= -9.3D-24,  6.1D-22, -1.9D+00, r^2= 7.7D-03
   Bfn.  Coefficient  Atom+Function         Bfn.  Coefficient  Atom+Function  
  ----- ------------  ---------------      ----- ------------  ---------------
     1      0.997727  1 Na s          

 Vector    2  Occ=1.000000D+00  E=-1.909736D+01  Symmetry=b2
              MO Center= -8.7D-18, -1.9D-10, -1.8D-02, r^2= 1.3D+00
   Bfn.  Coefficient  Atom+Function         Bfn.  Coefficient  Atom+Function  
  ----- ------------  ---------------      ----- ------------  ---------------
    19      0.703709  2 O  s                 33     -0.703709  3 O  s          

 Vector    3  Occ=1.000000D+00  E=-1.909729D+01  Symmetry=a1
              MO Center= -5.7D-21,  1.9D-10, -1.8D-02, r^2= 1.3D+00
   Bfn.  Coefficient  Atom+Function         Bfn.  Coefficient  Atom+Function  
  ----- ------------  ---------------      ----- ------------  ---------------
    19      0.703673  2 O  s                 33      0.703673  3 O  s          

 Vector    4  Occ=1.000000D+00  E=-1.027895D+01  Symmetry=a1
              MO Center=  4.2D-20,  4.4D-18,  5.8D-01, r^2= 2.8D-02
   Bfn.  Coefficient  Atom+Function         Bfn.  Coefficient  Atom+Function  
  ----- ------------  ---------------      ----- ------------  ---------------
    47      0.995143  4 C  s                 48      0.036671  4 C  s          

 Vector    5  Occ=1.000000D+00  E=-1.019607D+01  Symmetry=a1
              MO Center=  4.1D-21, -3.0D-18,  2.0D+00, r^2= 2.8D-02
   Bfn.  Coefficient  Atom+Function         Bfn.  Coefficient  Atom+Function  
  ----- ------------  ---------------      ----- ------------  ---------------
    61      0.994984  5 C  s                 62      0.035558  5 C  s          

 Vector    6  Occ=1.000000D+00  E=-2.175358D+00  Symmetry=a1
              MO Center= -7.7D-20,  1.9D-18, -1.9D+00, r^2= 2.1D-01
   Bfn.  Coefficient  Atom+Function         Bfn.  Coefficient  Atom+Function  
  ----- ------------  ---------------      ----- ------------  ---------------
     2      1.026494  1 Na s                  1     -0.246097  1 Na s          

 Vector    7  Occ=1.000000D+00  E=-1.110839D+00  Symmetry=a1
              MO Center= -2.3D-18, -6.3D-17, -1.8D+00, r^2= 4.4D-01
   Bfn.  Coefficient  Atom+Function         Bfn.  Coefficient  Atom+Function  
  ----- ------------  ---------------      ----- ------------  ---------------
     5      0.968110  1 Na pz                24      0.060577  2 O  s          
    38      0.060577  3 O  s                 20      0.056052  2 O  s          
    34      0.056052  3 O  s                 48      0.045606  4 C  s          
    19     -0.027320  2 O  s                 33     -0.027320  3 O  s          
    47     -0.025369  4 C  s          

 Vector    8  Occ=1.000000D+00  E=-1.108121D+00  Symmetry=b1
              MO Center=  1.6D-17, -4.8D-19, -1.9D+00, r^2= 2.4D-01
   Bfn.  Coefficient  Atom+Function         Bfn.  Coefficient  Atom+Function  
  ----- ------------  ---------------      ----- ------------  ---------------
     3      0.995843  1 Na px         

 Vector    9  Occ=1.000000D+00  E=-1.107098D+00  Symmetry=b2
              MO Center= -5.8D-17, -1.0D-16, -1.9D+00, r^2= 2.5D-01
   Bfn.  Coefficient  Atom+Function         Bfn.  Coefficient  Atom+Function  
  ----- ------------  ---------------      ----- ------------  ---------------
     4      0.993467  1 Na py         

 Vector   10  Occ=1.000000D+00  E=-1.025728D+00  Symmetry=a1
              MO Center= -2.3D-18, -8.4D-15,  8.4D-02, r^2= 1.3D+00
   Bfn.  Coefficient  Atom+Function         Bfn.  Coefficient  Atom+Function  
  ----- ------------  ---------------      ----- ------------  ---------------
    20      0.276574  2 O  s                 34      0.276574  3 O  s          
    24      0.271143  2 O  s                 38      0.271143  3 O  s          
    48      0.252929  4 C  s                  5     -0.229357  1 Na pz         
    47     -0.131705  4 C  s                 19     -0.127960  2 O  s          
    33     -0.127960  3 O  s                 22      0.097286  2 O  py         

 Vector   11  Occ=1.000000D+00  E=-9.369097D-01  Symmetry=b2
              MO Center= -1.2D-16,  6.9D-15,  1.3D-01, r^2= 1.4D+00
   Bfn.  Coefficient  Atom+Function         Bfn.  Coefficient  Atom+Function  
  ----- ------------  ---------------      ----- ------------  ---------------
    24      0.338832  2 O  s                 38     -0.338832  3 O  s          
    20      0.331203  2 O  s                 34     -0.331203  3 O  s          
    50     -0.254130  4 C  py                19     -0.151838  2 O  s          
    33      0.151838  3 O  s                 22      0.076568  2 O  py         
    36      0.076568  3 O  py                 4      0.064430  1 Na py         

 Vector   12  Occ=1.000000D+00  E=-7.184671D-01  Symmetry=a1
              MO Center= -2.7D-16,  4.1D-16,  1.7D+00, r^2= 1.3D+00
   Bfn.  Coefficient  Atom+Function         Bfn.  Coefficient  Atom+Function  
  ----- ------------  ---------------      ----- ------------  ---------------
    62      0.376290  5 C  s                 66      0.372830  5 C  s          
    51      0.214397  4 C  pz                61     -0.191433  5 C  s          
    48      0.123133  4 C  s                 75      0.119804  6 H  s          
    77      0.119804  7 H  s                 24     -0.116203  2 O  s          
    38     -0.116203  3 O  s                 20     -0.097052  2 O  s          

 Vector   13  Occ=1.000000D+00  E=-5.133933D-01  Symmetry=a1
              MO Center= -7.8D-18,  1.7D-15,  1.2D+00, r^2= 2.7D+00
   Bfn.  Coefficient  Atom+Function         Bfn.  Coefficient  Atom+Function  
  ----- ------------  ---------------      ----- ------------  ---------------
    65      0.307768  5 C  pz                48     -0.271159  4 C  s          
    52     -0.247834  4 C  s                 24      0.223484  2 O  s          
    38      0.223484  3 O  s                 20      0.144633  2 O  s          
    34      0.144633  3 O  s                 66      0.139211  5 C  s          
    22     -0.138295  2 O  py                36      0.138295  3 O  py         

 Vector   14  Occ=1.000000D+00  E=-4.486291D-01  Symmetry=b2
              MO Center= -1.9D-16,  2.4D-14,  1.4D+00, r^2= 2.7D+00
   Bfn.  Coefficient  Atom+Function         Bfn.  Coefficient  Atom+Function  
  ----- ------------  ---------------      ----- ------------  ---------------
    64      0.376916  5 C  py                50      0.214852  4 C  py         
    75     -0.182112  6 H  s                 77      0.182112  7 H  s          
    68      0.171310  5 C  py                23     -0.165606  2 O  pz         
    37      0.165606  3 O  pz                24      0.162405  2 O  s          
    38     -0.162405  3 O  s                 22     -0.120483  2 O  py         

 Vector   15  Occ=1.000000D+00  E=-4.379709D-01  Symmetry=a1
              MO Center=  7.5D-19, -2.2D-14,  5.4D-01, r^2= 2.4D+00
   Bfn.  Coefficient  Atom+Function         Bfn.  Coefficient  Atom+Function  
  ----- ------------  ---------------      ----- ------------  ---------------
    51      0.344384  4 C  pz                22     -0.300632  2 O  py         
    36      0.300632  3 O  py                65     -0.240348  5 C  pz         
    24      0.201816  2 O  s                 38      0.201816  3 O  s          
    26     -0.175054  2 O  py                40      0.175054  3 O  py         
    69     -0.126820  5 C  pz                20      0.111797  2 O  s          

 Vector   16  Occ=1.000000D+00  E=-4.093047D-01  Symmetry=b1
              MO Center=  4.3D-16, -1.8D-15,  4.0D-01, r^2= 1.7D+00
   Bfn.  Coefficient  Atom+Function         Bfn.  Coefficient  Atom+Function  
  ----- ------------  ---------------      ----- ------------  ---------------
    49      0.365661  4 C  px                21      0.303167  2 O  px         
    35      0.303167  3 O  px                25      0.186675  2 O  px         
    39      0.186675  3 O  px                53      0.187517  4 C  px         
    63      0.172350  5 C  px                67      0.104095  5 C  px         

 Vector   17  Occ=1.000000D+00  E=-3.909717D-01  Symmetry=b2
              MO Center= -1.5D-17,  1.3D-15,  7.9D-01, r^2= 3.1D+00
   Bfn.  Coefficient  Atom+Function         Bfn.  Coefficient  Atom+Function  
  ----- ------------  ---------------      ----- ------------  ---------------
    50      0.298419  4 C  py                64     -0.269652  5 C  py         
    22     -0.255036  2 O  py                36     -0.255036  3 O  py         
    23     -0.193521  2 O  pz                37      0.193521  3 O  pz         
    75      0.155313  6 H  s                 77     -0.155313  7 H  s          
    26     -0.152269  2 O  py                40     -0.152269  3 O  py         

 Vector   18  Occ=1.000000D+00  E=-2.678414D-01  Symmetry=a1
              MO Center= -1.8D-16,  2.0D-14,  2.1D-01, r^2= 2.3D+00
   Bfn.  Coefficient  Atom+Function         Bfn.  Coefficient  Atom+Function  
  ----- ------------  ---------------      ----- ------------  ---------------
    23      0.405490  2 O  pz                37      0.405490  3 O  pz         
    27      0.283569  2 O  pz                41      0.283569  3 O  pz         
    65      0.240212  5 C  pz                66     -0.236455  5 C  s          
     6     -0.185128  1 Na s                 51     -0.131629  4 C  pz         
    69      0.113718  5 C  pz                76      0.100022  6 H  s          

 Vector   19  Occ=1.000000D+00  E=-2.666266D-01  Symmetry=a2
              MO Center= -2.6D-16,  9.0D-15, -7.9D-03, r^2= 1.9D+00
   Bfn.  Coefficient  Atom+Function         Bfn.  Coefficient  Atom+Function  
  ----- ------------  ---------------      ----- ------------  ---------------
    21      0.456524  2 O  px                35     -0.456524  3 O  px         
    25      0.355872  2 O  px                39     -0.355872  3 O  px         
    56     -0.040838  4 C  d -2       

 Vector   20  Occ=1.000000D+00  E=-2.472306D-01  Symmetry=b2
              MO Center=  2.5D-16, -2.4D-14,  7.9D-02, r^2= 2.1D+00
   Bfn.  Coefficient  Atom+Function         Bfn.  Coefficient  Atom+Function  
  ----- ------------  ---------------      ----- ------------  ---------------
    23     -0.336314  2 O  pz                37      0.336314  3 O  pz         
    22      0.320227  2 O  py                36      0.320227  3 O  py         
    26      0.260140  2 O  py                40      0.260140  3 O  py         
    27     -0.227718  2 O  pz                41      0.227718  3 O  pz         
    54      0.150505  4 C  py                64     -0.076190  5 C  py         

 Vector   21  Occ=1.000000D+00  E=-2.335322D-01  Symmetry=b1
              MO Center=  4.5D-17, -8.8D-15,  1.6D+00, r^2= 1.9D+00
   Bfn.  Coefficient  Atom+Function         Bfn.  Coefficient  Atom+Function  
  ----- ------------  ---------------      ----- ------------  ---------------
    63      0.549441  5 C  px                67      0.467237  5 C  px         
    21     -0.208958  2 O  px                35     -0.208958  3 O  px         
    25     -0.155896  2 O  px                39     -0.155896  3 O  px         
     7     -0.048970  1 Na px                49      0.034234  4 C  px         
    59     -0.031987  4 C  d  1       

 Vector   22  Occ=0.000000D+00  E=-3.191616D-03  Symmetry=a1
              MO Center= -1.4D-16, -2.7D-16, -2.2D+00, r^2= 9.2D+00
   Bfn.  Coefficient  Atom+Function         Bfn.  Coefficient  Atom+Function  
  ----- ------------  ---------------      ----- ------------  ---------------
    10      1.170527  1 Na s                 66     -0.206468  5 C  s          
     2     -0.196276  1 Na s                 24     -0.136790  2 O  s          
    38     -0.136790  3 O  s                  6     -0.122405  1 Na s          
     9     -0.112106  1 Na pz                23      0.064389  2 O  pz         
    37      0.064389  3 O  pz                20     -0.061757  2 O  s          

 Vector   23  Occ=0.000000D+00  E= 2.840643D-02  Symmetry=b1
              MO Center= -9.2D-15,  7.0D-16, -1.9D+00, r^2= 1.4D+01
   Bfn.  Coefficient  Atom+Function         Bfn.  Coefficient  Atom+Function  
  ----- ------------  ---------------      ----- ------------  ---------------
    11      1.022287  1 Na px                49     -0.161599  4 C  px         
    53     -0.161202  4 C  px                 3     -0.057968  1 Na px         
    67      0.055308  5 C  px                 7     -0.031025  1 Na px         

 Vector   24  Occ=0.000000D+00  E= 2.944102D-02  Symmetry=b2
              MO Center=  1.6D-17, -3.0D-15, -2.0D+00, r^2= 1.5D+01
   Bfn.  Coefficient  Atom+Function         Bfn.  Coefficient  Atom+Function  
  ----- ------------  ---------------      ----- ------------  ---------------
    12      1.095619  1 Na py                24      0.113471  2 O  s          
    38     -0.113471  3 O  s                  8     -0.104557  1 Na py         
    50      0.053431  4 C  py                26     -0.052990  2 O  py         
    40     -0.052990  3 O  py                22     -0.050117  2 O  py         
    36     -0.050117  3 O  py                20      0.049475  2 O  s          

 Vector   25  Occ=0.000000D+00  E= 3.420239D-02  Symmetry=a1
              MO Center=  1.0D-14,  6.3D-15, -1.5D+00, r^2= 1.6D+01
   Bfn.  Coefficient  Atom+Function         Bfn.  Coefficient  Atom+Function  
  ----- ------------  ---------------      ----- ------------  ---------------
    13      1.227546  1 Na pz                10      0.460392  1 Na s          
     6     -0.384234  1 Na s                  9     -0.255067  1 Na pz         
    66     -0.242606  5 C  s                 24     -0.171479  2 O  s          
    38     -0.171479  3 O  s                 55     -0.147935  4 C  pz         
    69     -0.102764  5 C  pz                76      0.089160  6 H  s          

 Vector   26  Occ=0.000000D+00  E= 7.889357D-02  Symmetry=b1
              MO Center= -1.5D-15,  1.1D-15,  5.2D-01, r^2= 2.7D+00
   Bfn.  Coefficient  Atom+Function         Bfn.  Coefficient  Atom+Function  
  ----- ------------  ---------------      ----- ------------  ---------------
    53      0.635320  4 C  px                49      0.572832  4 C  px         
    67     -0.360152  5 C  px                25     -0.338034  2 O  px         
    39     -0.338034  3 O  px                21     -0.298034  2 O  px         
    35     -0.298034  3 O  px                11      0.263228  1 Na px         
    63     -0.233439  5 C  px                 7     -0.155138  1 Na px         

 Vector   27  Occ=0.000000D+00  E= 1.350323D-01  Symmetry=a1
              MO Center=  1.8D-15,  7.1D-15, -2.9D+00, r^2= 9.2D+00
   Bfn.  Coefficient  Atom+Function         Bfn.  Coefficient  Atom+Function  
  ----- ------------  ---------------      ----- ------------  ---------------
     6      1.935187  1 Na s                 10     -1.669120  1 Na s          
     9     -0.499741  1 Na pz                13      0.402211  1 Na pz         
    66      0.160853  5 C  s                  5      0.088268  1 Na pz         
    52      0.087375  4 C  s                 76     -0.087029  6 H  s          
    78     -0.087029  7 H  s                 55     -0.083434  4 C  pz         

 Vector   28  Occ=0.000000D+00  E= 1.504275D-01  Symmetry=a1
              MO Center= -9.7D-17, -1.5D-14,  2.3D+00, r^2= 4.7D+00
   Bfn.  Coefficient  Atom+Function         Bfn.  Coefficient  Atom+Function  
  ----- ------------  ---------------      ----- ------------  ---------------
    66      1.773659  5 C  s                 76     -1.409439  6 H  s          
    78     -1.409439  7 H  s                 69      0.719067  5 C  pz         
    10      0.367959  1 Na s                 13      0.253902  1 Na pz         
    65      0.248429  5 C  pz                 6     -0.182030  1 Na s          
    62      0.173774  5 C  s                  9      0.126570  1 Na pz         

 Vector   29  Occ=0.000000D+00  E= 1.678585D-01  Symmetry=b2
              MO Center=  1.6D-18,  3.3D-16,  1.1D+00, r^2= 8.8D+00
   Bfn.  Coefficient  Atom+Function         Bfn.  Coefficient  Atom+Function  
  ----- ------------  ---------------      ----- ------------  ---------------
    76      1.321626  6 H  s                 78     -1.321626  7 H  s          
    68      1.210499  5 C  py                 8      0.816201  1 Na py         
    12     -0.443754  1 Na py                64      0.342090  5 C  py         
    54     -0.183403  4 C  py                 4     -0.125938  1 Na py         
    50      0.111327  4 C  py                24      0.069039  2 O  s          

 Vector   30  Occ=0.000000D+00  E= 1.782615D-01  Symmetry=b1
              MO Center= -1.4D-15,  1.9D-18, -1.9D+00, r^2= 7.8D+00
   Bfn.  Coefficient  Atom+Function         Bfn.  Coefficient  Atom+Function  
  ----- ------------  ---------------      ----- ------------  ---------------
     7      1.387855  1 Na px                11     -0.857369  1 Na px         
     3     -0.223371  1 Na px                25     -0.103198  2 O  px         
    39     -0.103198  3 O  px                21     -0.095707  2 O  px         
    35     -0.095707  3 O  px                53      0.045062  4 C  px         
    63      0.044244  5 C  px         

 Vector   31  Occ=0.000000D+00  E= 2.031476D-01  Symmetry=b2
              MO Center= -3.6D-16,  8.2D-15, -6.3D-01, r^2= 1.1D+01
   Bfn.  Coefficient  Atom+Function         Bfn.  Coefficient  Atom+Function  
  ----- ------------  ---------------      ----- ------------  ---------------
     8      1.218536  1 Na py                76     -0.983164  6 H  s          
    78      0.983164  7 H  s                 68     -0.865221  5 C  py         
    12     -0.718493  1 Na py                64     -0.261140  5 C  py         
    24      0.180567  2 O  s                 38     -0.180567  3 O  s          
     4     -0.178284  1 Na py                54      0.145490  4 C  py         

 Vector   32  Occ=0.000000D+00  E= 2.345852D-01  Symmetry=a1
              MO Center= -3.3D-16, -1.1D-14, -6.4D-01, r^2= 8.2D+00
   Bfn.  Coefficient  Atom+Function         Bfn.  Coefficient  Atom+Function  
  ----- ------------  ---------------      ----- ------------  ---------------
     9      1.516791  1 Na pz                52      1.444164  4 C  s          
    66     -1.421171  5 C  s                  6      1.046373  1 Na s          
    69      1.036115  5 C  pz                55      1.023954  4 C  pz         
    13     -0.726948  1 Na pz                10     -0.586771  1 Na s          
    24     -0.399296  2 O  s                 38     -0.399296  3 O  s          

 Vector   33  Occ=0.000000D+00  E= 2.823632D-01  Symmetry=a1
              MO Center= -1.8D-16, -5.1D-16,  7.8D-01, r^2= 5.8D+00
   Bfn.  Coefficient  Atom+Function         Bfn.  Coefficient  Atom+Function  
  ----- ------------  ---------------      ----- ------------  ---------------
    52      2.810741  4 C  s                 69      1.862454  5 C  pz         
    66     -1.457684  5 C  s                 55      1.095020  4 C  pz         
     9     -0.795140  1 Na pz                 6     -0.539193  1 Na s          
    27     -0.361228  2 O  pz                41     -0.361228  3 O  pz         
    76     -0.359951  6 H  s                 78     -0.359951  7 H  s          

 Vector   34  Occ=0.000000D+00  E= 3.692139D-01  Symmetry=a1
              MO Center=  1.9D-16,  6.1D-18, -1.8D-02, r^2= 3.5D+00
   Bfn.  Coefficient  Atom+Function         Bfn.  Coefficient  Atom+Function  
  ----- ------------  ---------------      ----- ------------  ---------------
    55      1.912188  4 C  pz                52     -1.426012  4 C  s          
    66     -1.024365  5 C  s                 24      0.995620  2 O  s          
    38      0.995620  3 O  s                 69      0.992729  5 C  pz         
    26      0.764119  2 O  py                40     -0.764119  3 O  py         
    51      0.444291  4 C  pz                 9      0.371373  1 Na pz         

 Vector   35  Occ=0.000000D+00  E= 3.848261D-01  Symmetry=b2
              MO Center=  3.4D-17, -7.6D-15,  6.7D-01, r^2= 4.5D+00
   Bfn.  Coefficient  Atom+Function         Bfn.  Coefficient  Atom+Function  
  ----- ------------  ---------------      ----- ------------  ---------------
    54      2.628182  4 C  py                24      1.580755  2 O  s          
    38     -1.580755  3 O  s                 68     -1.008380  5 C  py         
    76     -0.783352  6 H  s                 78      0.783352  7 H  s          
    26      0.506844  2 O  py                40      0.506844  3 O  py         
    27      0.470123  2 O  pz                41     -0.470123  3 O  pz         

 Vector   36  Occ=0.000000D+00  E= 4.157896D-01  Symmetry=a2
              MO Center=  5.6D-16,  4.3D-16, -1.9D+00, r^2= 2.8D+00
   Bfn.  Coefficient  Atom+Function         Bfn.  Coefficient  Atom+Function  
  ----- ------------  ---------------      ----- ------------  ---------------
    14      1.001021  1 Na d -2              21      0.104098  2 O  px         
    35     -0.104098  3 O  px                25      0.037023  2 O  px         
    39     -0.037023  3 O  px         

 Vector   37  Occ=0.000000D+00  E= 4.229055D-01  Symmetry=b1
              MO Center= -3.3D-15,  4.5D-15, -1.7D+00, r^2= 3.1D+00
   Bfn.  Coefficient  Atom+Function         Bfn.  Coefficient  Atom+Function  
  ----- ------------  ---------------      ----- ------------  ---------------
    17      0.974140  1 Na d  1              49      0.234367  4 C  px         
    53     -0.234832  4 C  px                21      0.138836  2 O  px         
    35      0.138836  3 O  px                25      0.119367  2 O  px         
    39      0.119367  3 O  px                67      0.063284  5 C  px         
    63     -0.035891  5 C  px                31     -0.028397  2 O  d  1       

 Vector   38  Occ=0.000000D+00  E= 4.233253D-01  Symmetry=a1
              MO Center=  4.1D-15, -1.0D-14, -1.6D+00, r^2= 4.0D+00
   Bfn.  Coefficient  Atom+Function         Bfn.  Coefficient  Atom+Function  
  ----- ------------  ---------------      ----- ------------  ---------------
    18      0.933713  1 Na d  2              55      0.718696  4 C  pz         
    69      0.684743  5 C  pz                66     -0.556892  5 C  s          
    24      0.312342  2 O  s                 38      0.312342  3 O  s          
    16      0.271666  1 Na d  0              51      0.231926  4 C  pz         
    26      0.213188  2 O  py                40     -0.213188  3 O  py         

 Vector   39  Occ=0.000000D+00  E= 5.376181D-01  Symmetry=b1
              MO Center=  1.6D-16,  7.9D-17,  1.8D+00, r^2= 2.5D+00
   Bfn.  Coefficient  Atom+Function         Bfn.  Coefficient  Atom+Function  
  ----- ------------  ---------------      ----- ------------  ---------------
    67     -1.016468  5 C  px                63      0.981670  5 C  px         
    49      0.360150  4 C  px                53     -0.245999  4 C  px         
    11      0.155168  1 Na px                17     -0.096768  1 Na d  1       
     7     -0.057970  1 Na px                21      0.047184  2 O  px         
    35      0.047184  3 O  px                73      0.027900  5 C  d  1       

 Vector   40  Occ=0.000000D+00  E= 5.569956D-01  Symmetry=b2
              MO Center= -6.7D-17, -3.4D-14, -1.5D+00, r^2= 4.0D+00
   Bfn.  Coefficient  Atom+Function         Bfn.  Coefficient  Atom+Function  
  ----- ------------  ---------------      ----- ------------  ---------------
    15      1.258187  1 Na d -1              54     -0.898271  4 C  py         
     8      0.555198  1 Na py                27     -0.453374  2 O  pz         
    41      0.453374  3 O  pz                23     -0.242534  2 O  pz         
    37      0.242534  3 O  pz                76      0.204825  6 H  s          
    78     -0.204825  7 H  s                 68      0.156274  5 C  py         

 Vector   41  Occ=0.000000D+00  E= 5.754886D-01  Symmetry=a1
              MO Center= -1.5D-16,  5.9D-14,  7.5D-01, r^2= 6.2D+00
   Bfn.  Coefficient  Atom+Function         Bfn.  Coefficient  Atom+Function  
  ----- ------------  ---------------      ----- ------------  ---------------
    69      1.506684  5 C  pz                 9      0.993251  1 Na pz         
    55      0.991789  4 C  pz                 6      0.872850  1 Na s          
    16      0.841938  1 Na d  0              52      0.761914  4 C  s          
    65     -0.663573  5 C  pz                66     -0.486495  5 C  s          
    48     -0.352194  4 C  s                 18     -0.325066  1 Na d  2       

 Vector   42  Occ=0.000000D+00  E= 5.910388D-01  Symmetry=a1
              MO Center= -2.4D-16,  1.4D-14, -4.2D-02, r^2= 4.7D+00
   Bfn.  Coefficient  Atom+Function         Bfn.  Coefficient  Atom+Function  
  ----- ------------  ---------------      ----- ------------  ---------------
    16      0.881069  1 Na d  0               9      0.777617  1 Na pz         
    69     -0.644880  5 C  pz                 6      0.625522  1 Na s          
    52     -0.602987  4 C  s                 51      0.581211  4 C  pz         
    65      0.548630  5 C  pz                48     -0.307864  4 C  s          
    27      0.285359  2 O  pz                41      0.285359  3 O  pz         

 Vector   43  Occ=0.000000D+00  E= 6.385553D-01  Symmetry=b2
              MO Center= -1.2D-17,  1.5D-14,  6.1D-01, r^2= 1.8D+00
   Bfn.  Coefficient  Atom+Function         Bfn.  Coefficient  Atom+Function  
  ----- ------------  ---------------      ----- ------------  ---------------
    54      1.280964  4 C  py                50     -1.044864  4 C  py         
    24      0.458059  2 O  s                 38     -0.458059  3 O  s          
    22     -0.247631  2 O  py                36     -0.247631  3 O  py         
    68      0.222508  5 C  py                76      0.202941  6 H  s          
    78     -0.202941  7 H  s                 57     -0.128154  4 C  d -1       

 Vector   44  Occ=0.000000D+00  E= 6.676183D-01  Symmetry=b1
              MO Center= -3.2D-16, -6.3D-16,  7.8D-01, r^2= 3.3D+00
   Bfn.  Coefficient  Atom+Function         Bfn.  Coefficient  Atom+Function  
  ----- ------------  ---------------      ----- ------------  ---------------
    53      1.680118  4 C  px                49     -0.917910  4 C  px         
    67     -0.913040  5 C  px                17      0.397832  1 Na d  1       
    63      0.377177  5 C  px                 7     -0.208359  1 Na px         
    25     -0.200835  2 O  px                39     -0.200835  3 O  px         
    28     -0.051729  2 O  d -2              42      0.051729  3 O  d -2       

 Vector   45  Occ=0.000000D+00  E= 6.872761D-01  Symmetry=a1
              MO Center=  2.4D-16, -2.4D-14,  1.3D+00, r^2= 3.3D+00
   Bfn.  Coefficient  Atom+Function         Bfn.  Coefficient  Atom+Function  
  ----- ------------  ---------------      ----- ------------  ---------------
    52      1.311042  4 C  s                 66      1.057847  5 C  s          
    62     -0.934027  5 C  s                 48     -0.927533  4 C  s          
    75     -0.433741  6 H  s                 77     -0.433741  7 H  s          
    16     -0.335921  1 Na d  0              65      0.309917  5 C  pz         
    10     -0.251552  1 Na s                  9     -0.237638  1 Na pz         

 Vector   46  Occ=0.000000D+00  E= 8.326035D-01  Symmetry=b2
              MO Center= -3.7D-16,  2.3D-14,  2.1D+00, r^2= 2.9D+00
   Bfn.  Coefficient  Atom+Function         Bfn.  Coefficient  Atom+Function  
  ----- ------------  ---------------      ----- ------------  ---------------
    68      3.614001  5 C  py                54     -2.497410  4 C  py         
    76      2.014736  6 H  s                 78     -2.014736  7 H  s          
    64     -1.163127  5 C  py                24     -1.078548  2 O  s          
    38      1.078548  3 O  s                 27     -0.394811  2 O  pz         
    41      0.394811  3 O  pz                26     -0.308613  2 O  py         

 Vector   47  Occ=0.000000D+00  E= 9.124675D-01  Symmetry=a1
              MO Center= -1.6D-17,  7.4D-14,  1.2D+00, r^2= 4.6D+00
   Bfn.  Coefficient  Atom+Function         Bfn.  Coefficient  Atom+Function  
  ----- ------------  ---------------      ----- ------------  ---------------
    52      2.993420  4 C  s                 55     -1.563090  4 C  pz         
    66      1.452197  5 C  s                  9     -1.206330  1 Na pz         
    48     -1.109052  4 C  s                  6     -1.093253  1 Na s          
    76     -0.984071  6 H  s                 78     -0.984071  7 H  s          
    24     -0.748744  2 O  s                 38     -0.748744  3 O  s          

 Vector   48  Occ=0.000000D+00  E= 9.194742D-01  Symmetry=a1
              MO Center=  2.9D-17, -3.2D-13,  4.5D-01, r^2= 5.3D+00
   Bfn.  Coefficient  Atom+Function         Bfn.  Coefficient  Atom+Function  
  ----- ------------  ---------------      ----- ------------  ---------------
    55      3.978669  4 C  pz                69      1.638670  5 C  pz         
    66     -1.557641  5 C  s                  9      1.481217  1 Na pz         
     6      1.470756  1 Na s                 16      0.894424  1 Na d  0       
    51     -0.726650  4 C  pz                76     -0.686916  6 H  s          
    78     -0.686916  7 H  s                 24      0.514530  2 O  s          

 Vector   49  Occ=0.000000D+00  E= 9.498324D-01  Symmetry=b2
              MO Center=  2.5D-15,  8.4D-13,  6.1D-01, r^2= 5.0D+00
   Bfn.  Coefficient  Atom+Function         Bfn.  Coefficient  Atom+Function  
  ----- ------------  ---------------      ----- ------------  ---------------
    54      1.849198  4 C  py                26      0.949681  2 O  py         
    40      0.949681  3 O  py                68     -0.817264  5 C  py         
    24      0.799445  2 O  s                 38     -0.799445  3 O  s          
    75     -0.514621  6 H  s                 77      0.514621  7 H  s          
    27      0.506981  2 O  pz                41     -0.506981  3 O  pz         

 Vector   50  Occ=0.000000D+00  E= 9.622900D-01  Symmetry=a1
              MO Center=  5.1D-17, -5.8D-13,  4.0D-01, r^2= 4.3D+00
   Bfn.  Coefficient  Atom+Function         Bfn.  Coefficient  Atom+Function  
  ----- ------------  ---------------      ----- ------------  ---------------
    52      3.841244  4 C  s                 66     -1.877117  5 C  s          
    55     -1.408277  4 C  pz                26     -1.204009  2 O  py         
    40      1.204009  3 O  py                62      1.080681  5 C  s          
    24     -1.019942  2 O  s                 38     -1.019942  3 O  s          
     9     -0.779233  1 Na pz                 6     -0.553563  1 Na s          

 Vector   51  Occ=0.000000D+00  E= 9.858076D-01  Symmetry=a2
              MO Center= -1.3D-15, -1.1D-14, -2.1D-02, r^2= 2.7D+00
   Bfn.  Coefficient  Atom+Function         Bfn.  Coefficient  Atom+Function  
  ----- ------------  ---------------      ----- ------------  ---------------
    25      0.810350  2 O  px                39     -0.810350  3 O  px         
    21     -0.676530  2 O  px                35      0.676530  3 O  px         
    14      0.241722  1 Na d -2              70     -0.053119  5 C  d -2       
    28     -0.030573  2 O  d -2              42     -0.030573  3 O  d -2       
    31     -0.027021  2 O  d  1              45      0.027021  3 O  d  1       

 Vector   52  Occ=0.000000D+00  E= 1.079770D+00  Symmetry=a1
              MO Center=  2.0D-18, -2.4D-14,  1.1D+00, r^2= 4.1D+00
   Bfn.  Coefficient  Atom+Function         Bfn.  Coefficient  Atom+Function  
  ----- ------------  ---------------      ----- ------------  ---------------
    66      6.157193  5 C  s                 55     -4.629970  4 C  pz         
    52     -2.607743  4 C  s                 69     -1.805074  5 C  pz         
    62     -1.465789  5 C  s                 48      0.997463  4 C  s          
     6     -0.940673  1 Na s                  9     -0.943338  1 Na pz         
    26     -0.828283  2 O  py                40      0.828283  3 O  py         

 Vector   53  Occ=0.000000D+00  E= 1.084403D+00  Symmetry=b2
              MO Center= -1.1D-15,  9.5D-15,  9.4D-01, r^2= 3.7D+00
   Bfn.  Coefficient  Atom+Function         Bfn.  Coefficient  Atom+Function  
  ----- ------------  ---------------      ----- ------------  ---------------
    54      2.480178  4 C  py                68     -1.808985  5 C  py         
    24      0.933988  2 O  s                 38     -0.933988  3 O  s          
    75     -0.633537  6 H  s                 77      0.633537  7 H  s          
    26     -0.429103  2 O  py                40     -0.429103  3 O  py         
    27      0.408326  2 O  pz                41     -0.408326  3 O  pz         

 Vector   54  Occ=0.000000D+00  E= 1.111815D+00  Symmetry=b1
              MO Center= -5.6D-17,  1.2D-14, -3.7D-02, r^2= 3.1D+00
   Bfn.  Coefficient  Atom+Function         Bfn.  Coefficient  Atom+Function  
  ----- ------------  ---------------      ----- ------------  ---------------
    25      1.069110  2 O  px                39      1.069110  3 O  px         
    53     -0.789923  4 C  px                21     -0.661799  2 O  px         
    35     -0.661799  3 O  px                17      0.273418  1 Na d  1       
     7     -0.229615  1 Na px                67      0.128440  5 C  px         
    49      0.099083  4 C  px                28     -0.068276  2 O  d -2       

 Vector   55  Occ=0.000000D+00  E= 1.175843D+00  Symmetry=a1
              MO Center=  5.9D-17, -1.6D-14,  1.1D-01, r^2= 3.5D+00
   Bfn.  Coefficient  Atom+Function         Bfn.  Coefficient  Atom+Function  
  ----- ------------  ---------------      ----- ------------  ---------------
    52      2.339923  4 C  s                 27     -1.299326  2 O  pz         
    41     -1.299326  3 O  pz                66     -1.291880  5 C  s          
     6     -0.731263  1 Na s                  9     -0.605484  1 Na pz         
    23      0.592763  2 O  pz                37      0.592763  3 O  pz         
    24     -0.537635  2 O  s                 38     -0.537635  3 O  s          

 Vector   56  Occ=0.000000D+00  E= 1.330585D+00  Symmetry=b2
              MO Center= -2.1D-17,  1.8D-14, -1.4D-01, r^2= 3.9D+00
   Bfn.  Coefficient  Atom+Function         Bfn.  Coefficient  Atom+Function  
  ----- ------------  ---------------      ----- ------------  ---------------
    27      1.512040  2 O  pz                41     -1.512040  3 O  pz         
    54      1.367485  4 C  py                 8     -0.844946  1 Na py         
    15     -0.740006  1 Na d -1              23     -0.654407  2 O  pz         
    37      0.654407  3 O  pz                68      0.512522  5 C  py         
    24      0.460227  2 O  s                 38     -0.460227  3 O  s          

 Vector   57  Occ=0.000000D+00  E= 1.377669D+00  Symmetry=b1
              MO Center= -7.6D-17,  7.3D-14,  9.7D-01, r^2= 1.6D+00
   Bfn.  Coefficient  Atom+Function         Bfn.  Coefficient  Atom+Function  
  ----- ------------  ---------------      ----- ------------  ---------------
    59      0.606435  4 C  d  1              73     -0.541959  5 C  d  1       
    53      0.292448  4 C  px                28      0.220313  2 O  d -2       
    42     -0.220313  3 O  d -2              17      0.155689  1 Na d  1       
    63      0.122134  5 C  px                49     -0.104862  4 C  px         
    67     -0.095311  5 C  px                25     -0.090345  2 O  px         

 Vector   58  Occ=0.000000D+00  E= 1.439016D+00  Symmetry=a2
              MO Center=  2.8D-16, -1.6D-14,  4.0D-01, r^2= 1.6D+00
   Bfn.  Coefficient  Atom+Function         Bfn.  Coefficient  Atom+Function  
  ----- ------------  ---------------      ----- ------------  ---------------
    56      0.595633  4 C  d -2              28     -0.291098  2 O  d -2       
    42     -0.291098  3 O  d -2              70      0.279449  5 C  d -2       
    31      0.250363  2 O  d  1              45     -0.250363  3 O  d  1       
    25      0.152937  2 O  px                39     -0.152937  3 O  px         
    14      0.100093  1 Na d -2              21      0.041249  2 O  px         

 Vector   59  Occ=0.000000D+00  E= 1.650033D+00  Symmetry=a2
              MO Center=  7.9D-17,  6.8D-15,  1.9D+00, r^2= 1.0D+00
   Bfn.  Coefficient  Atom+Function         Bfn.  Coefficient  Atom+Function  
  ----- ------------  ---------------      ----- ------------  ---------------
    70      0.953642  5 C  d -2              28      0.143084  2 O  d -2       
    42      0.143084  3 O  d -2              56     -0.114825  4 C  d -2       
    31     -0.100384  2 O  d  1              45      0.100384  3 O  d  1       
    21     -0.057771  2 O  px                35      0.057771  3 O  px         
    25      0.039058  2 O  px                39     -0.039058  3 O  px         

 Vector   60  Occ=0.000000D+00  E= 1.711016D+00  Symmetry=a1
              MO Center=  1.2D-16, -5.1D-14, -1.2D-01, r^2= 3.1D+00
   Bfn.  Coefficient  Atom+Function         Bfn.  Coefficient  Atom+Function  
  ----- ------------  ---------------      ----- ------------  ---------------
    24      2.418171  2 O  s                 38      2.418171  3 O  s          
    55      1.563274  4 C  pz                20     -1.119788  2 O  s          
    34     -1.119788  3 O  s                  9     -0.978129  1 Na pz         
     6     -0.967760  1 Na s                 26      0.848668  2 O  py         
    40     -0.848668  3 O  py                66     -0.711540  5 C  s          

 Vector   61  Occ=0.000000D+00  E= 1.769797D+00  Symmetry=a1
              MO Center= -5.8D-17,  9.3D-14,  6.3D-01, r^2= 2.0D+00
   Bfn.  Coefficient  Atom+Function         Bfn.  Coefficient  Atom+Function  
  ----- ------------  ---------------      ----- ------------  ---------------
    52      2.633431  4 C  s                 66     -1.186260  5 C  s          
    24     -0.935824  2 O  s                 38     -0.935824  3 O  s          
    55      0.850037  4 C  pz                48     -0.632727  4 C  s          
    20      0.461746  2 O  s                 34      0.461746  3 O  s          
    27     -0.440998  2 O  pz                41     -0.440998  3 O  pz         

 Vector   62  Occ=0.000000D+00  E= 1.827432D+00  Symmetry=b2
              MO Center=  2.3D-17,  2.4D-13,  1.4D-01, r^2= 2.0D+00
   Bfn.  Coefficient  Atom+Function         Bfn.  Coefficient  Atom+Function  
  ----- ------------  ---------------      ----- ------------  ---------------
    68      0.636435  5 C  py                30      0.559273  2 O  d  0       
    44     -0.559273  3 O  d  0              57     -0.462871  4 C  d -1       
    22      0.283745  2 O  py                36      0.283745  3 O  py         
    15      0.274575  1 Na d -1               8      0.265131  1 Na py         
    76      0.224318  6 H  s                 78     -0.224318  7 H  s          

 Vector   63  Occ=0.000000D+00  E= 1.857416D+00  Symmetry=a2
              MO Center=  8.9D-16,  4.4D-12, -6.2D-02, r^2= 1.9D+00
   Bfn.  Coefficient  Atom+Function         Bfn.  Coefficient  Atom+Function  
  ----- ------------  ---------------      ----- ------------  ---------------
    31      0.552640  2 O  d  1              45     -0.552640  3 O  d  1       
    28      0.447976  2 O  d -2              42      0.447976  3 O  d -2       
    14      0.138734  1 Na d -2              25      0.092316  2 O  px         
    39     -0.092316  3 O  px                21     -0.056641  2 O  px         
    35      0.056641  3 O  px         

 Vector   64  Occ=0.000000D+00  E= 1.867227D+00  Symmetry=b1
              MO Center=  7.1D-18, -4.4D-12,  2.6D-01, r^2= 2.4D+00
   Bfn.  Coefficient  Atom+Function         Bfn.  Coefficient  Atom+Function  
  ----- ------------  ---------------      ----- ------------  ---------------
    31      0.597652  2 O  d  1              45      0.597652  3 O  d  1       
    73      0.430502  5 C  d  1              28      0.241251  2 O  d -2       
    42     -0.241251  3 O  d -2              17      0.223576  1 Na d  1       
    59      0.158281  4 C  d  1               7     -0.151462  1 Na px         
    67      0.132333  5 C  px                25      0.127286  2 O  px         

 Vector   65  Occ=0.000000D+00  E= 1.892849D+00  Symmetry=b2
              MO Center= -8.8D-16,  8.2D-14,  2.1D-02, r^2= 2.5D+00
   Bfn.  Coefficient  Atom+Function         Bfn.  Coefficient  Atom+Function  
  ----- ------------  ---------------      ----- ------------  ---------------
    54      3.177125  4 C  py                24      3.124343  2 O  s          
    38     -3.124343  3 O  s                 68     -1.435317  5 C  py         
    20     -1.125041  2 O  s                 34      1.125041  3 O  s          
    26      0.723405  2 O  py                40      0.723405  3 O  py         
    76     -0.495230  6 H  s                 78      0.495230  7 H  s          

 Vector   66  Occ=0.000000D+00  E= 1.930815D+00  Symmetry=a1
              MO Center=  1.2D-16, -5.6D-14,  3.8D-01, r^2= 2.3D+00
   Bfn.  Coefficient  Atom+Function         Bfn.  Coefficient  Atom+Function  
  ----- ------------  ---------------      ----- ------------  ---------------
    55      2.361444  4 C  pz                52     -1.998534  4 C  s          
    24      1.168214  2 O  s                 38      1.168214  3 O  s          
    66     -0.913470  5 C  s                  9      0.740819  1 Na pz         
     6      0.728686  1 Na s                 26      0.587814  2 O  py         
    40     -0.587814  3 O  py                30     -0.495485  2 O  d  0       

 Vector   67  Occ=0.000000D+00  E= 1.986345D+00  Symmetry=b2
              MO Center=  2.1D-17, -1.0D-13,  3.5D-01, r^2= 2.3D+00
   Bfn.  Coefficient  Atom+Function         Bfn.  Coefficient  Atom+Function  
  ----- ------------  ---------------      ----- ------------  ---------------
    54      2.519375  4 C  py                24      1.616811  2 O  s          
    38     -1.616811  3 O  s                 68     -1.033359  5 C  py         
    27      0.646040  2 O  pz                41     -0.646040  3 O  pz         
    32      0.462012  2 O  d  2              46     -0.462012  3 O  d  2       
    71      0.424828  5 C  d -1              57     -0.416416  4 C  d -1       

 Vector   68  Occ=0.000000D+00  E= 2.039484D+00  Symmetry=a1
              MO Center=  7.2D-17, -1.6D-13,  1.2D+00, r^2= 2.3D+00
   Bfn.  Coefficient  Atom+Function         Bfn.  Coefficient  Atom+Function  
  ----- ------------  ---------------      ----- ------------  ---------------
    66      1.735598  5 C  s                 55     -1.163059  4 C  pz         
    74     -0.762573  5 C  d  2              24     -0.626497  2 O  s          
    38     -0.626497  3 O  s                 69     -0.526517  5 C  pz         
    62     -0.443511  5 C  s                 75     -0.435688  6 H  s          
    77     -0.435688  7 H  s                 60     -0.339938  4 C  d  2       

 Vector   69  Occ=0.000000D+00  E= 2.069479D+00  Symmetry=b1
              MO Center= -1.4D-17, -2.7D-14,  7.8D-01, r^2= 2.3D+00
   Bfn.  Coefficient  Atom+Function         Bfn.  Coefficient  Atom+Function  
  ----- ------------  ---------------      ----- ------------  ---------------
    73      0.671621  5 C  d  1              53     -0.597926  4 C  px         
    31     -0.419562  2 O  d  1              45     -0.419562  3 O  d  1       
    28      0.398339  2 O  d -2              42     -0.398339  3 O  d -2       
    25      0.312005  2 O  px                39      0.312005  3 O  px         
    67      0.274383  5 C  px                49     -0.237031  4 C  px         

 Vector   70  Occ=0.000000D+00  E= 2.107860D+00  Symmetry=b2
              MO Center= -3.8D-17,  2.2D-14,  1.4D+00, r^2= 2.4D+00
   Bfn.  Coefficient  Atom+Function         Bfn.  Coefficient  Atom+Function  
  ----- ------------  ---------------      ----- ------------  ---------------
    54      2.130495  4 C  py                24      1.597777  2 O  s          
    38     -1.597777  3 O  s                 68     -1.385562  5 C  py         
    71     -0.761533  5 C  d -1              75     -0.646779  6 H  s          
    77      0.646779  7 H  s                 20     -0.513372  2 O  s          
    34      0.513372  3 O  s                 27      0.462883  2 O  pz         

 Vector   71  Occ=0.000000D+00  E= 2.195624D+00  Symmetry=a1
              MO Center=  5.8D-17, -4.7D-14,  1.3D+00, r^2= 2.0D+00
   Bfn.  Coefficient  Atom+Function         Bfn.  Coefficient  Atom+Function  
  ----- ------------  ---------------      ----- ------------  ---------------
    55      1.339445  4 C  pz                69      0.747759  5 C  pz         
    66     -0.724481  5 C  s                 74     -0.598249  5 C  d  2       
    72     -0.580935  5 C  d  0              24      0.562858  2 O  s          
    38      0.562858  3 O  s                 60      0.501471  4 C  d  2       
[...]
   3 o       0.000000   2.128494  -0.006909    0.000000  -0.000027  -0.000125
   4 c       0.000000   0.000000   1.133167    0.000000   0.000000   0.000313
   5 c       0.000000   0.000000   3.911376    0.000000   0.000000  -0.000040
   6 h       0.000000  -1.766746   4.953087    0.000000  -0.000014   0.000005
   7 h       0.000000   1.766746   4.953087    0.000000   0.000014   0.000005

                 ----------------------------------------
                 |  Time  |  1-e(secs)   |  2-e(secs)   |
                 ----------------------------------------
                 |  CPU   |       0.12   |       2.68   |
                 ----------------------------------------
                 |  WALL  |       0.12   |       2.67   |
                 ----------------------------------------

  Step       Energy      Delta E   Gmax     Grms     Xrms     Xmax   Walltime
  ---- ---------------- -------- -------- -------- -------- -------- --------
@    5    -390.21381459 -1.4D-06  0.00006  0.00002  0.00067  0.00167     55.5
                                     ok       ok       ok       ok  



                                Z-matrix (autoz)
                                -------- 

 Units are Angstrom for bonds and degrees for angles

      Type          Name      I     J     K     L     M      Value     Gradient
      ----------- --------  ----- ----- ----- ----- ----- ---------- ----------
    1 Stretch                  1     2                       2.29551   -0.00000
    2 Stretch                  1     3                       2.29551   -0.00000
    3 Stretch                  1     4                       2.60347    0.00004
    4 Stretch                  2     4                       1.27775    0.00004
    5 Stretch                  3     4                       1.27775    0.00004
    6 Stretch                  4     5                       1.47017   -0.00003
    7 Stretch                  5     6                       1.08534    0.00001
    8 Stretch                  5     7                       1.08534    0.00001
    9 Bend                     1     2     4                88.78958    0.00002
   10 Bend                     1     3     4                88.78958    0.00002
   11 Bend                     1     4     2                61.82536   -0.00003
   12 Bend                     1     4     3                61.82536   -0.00003
   13 Bend                     2     1     3                58.77012    0.00001
   14 Bend                     2     1     4                29.38506    0.00001
   15 Bend                     2     4     3               123.65072   -0.00006
   16 Bend                     2     4     5               118.17464    0.00003
   17 Bend                     3     1     4                29.38506    0.00001
   18 Bend                     3     4     5               118.17464    0.00003
   19 Bend                     4     5     6               120.52451   -0.00000
   20 Bend                     4     5     7               120.52451   -0.00000
   21 Bend                     6     5     7               118.95098    0.00000
   22 Torsion                  1     2     4     3           0.00000    0.00000
   23 Torsion                  1     2     4     5         180.00000    0.00000
   24 Torsion                  1     3     4     2           0.00000    0.00000
   25 Torsion                  1     3     4     5         180.00000    0.00000
   26 Torsion                  2     1     3     4           0.00000    0.00000
   27 Torsion                  2     1     4     3         180.00000    0.00000
   28 Torsion                  2     1     5     6           0.00000    0.00000
   29 Torsion                  2     1     5     7         180.00000    0.00000
   30 Torsion                  2     4     1     3         180.00000    0.00000
   31 Torsion                  2     4     5     6           0.00000    0.00000
   32 Torsion                  2     4     5     7         180.00000    0.00000
   33 Torsion                  3     1     2     4          -0.00000    0.00000
   34 Torsion                  3     1     5     6         180.00000    0.00000
   35 Torsion                  3     1     5     7           0.00000    0.00000
   36 Torsion                  3     4     5     6         180.00000    0.00000
   37 Torsion                  3     4     5     7           0.00000    0.00000
   38 Torsion                  1     4     6     5         180.00000    0.00000
   39 Torsion                  1     4     7     5         180.00000    0.00000


      ----------------------
      Optimization converged
      ----------------------


  Step       Energy      Delta E   Gmax     Grms     Xrms     Xmax   Walltime
  ---- ---------------- -------- -------- -------- -------- -------- --------
@    5    -390.21381459 -1.4D-06  0.00006  0.00002  0.00067  0.00167     55.5
                                     ok       ok       ok       ok  



                                Z-matrix (autoz)
                                -------- 

 Units are Angstrom for bonds and degrees for angles

      Type          Name      I     J     K     L     M      Value     Gradient
      ----------- --------  ----- ----- ----- ----- ----- ---------- ----------
    1 Stretch                  1     2                       2.29551   -0.00000
    2 Stretch                  1     3                       2.29551   -0.00000
    3 Stretch                  1     4                       2.60347    0.00004
    4 Stretch                  2     4                       1.27775    0.00004
    5 Stretch                  3     4                       1.27775    0.00004
    6 Stretch                  4     5                       1.47017   -0.00003
    7 Stretch                  5     6                       1.08534    0.00001
    8 Stretch                  5     7                       1.08534    0.00001
    9 Bend                     1     2     4                88.78958    0.00002
   10 Bend                     1     3     4                88.78958    0.00002
   11 Bend                     1     4     2                61.82536   -0.00003
   12 Bend                     1     4     3                61.82536   -0.00003
   13 Bend                     2     1     3                58.77012    0.00001
   14 Bend                     2     1     4                29.38506    0.00001
   15 Bend                     2     4     3               123.65072   -0.00006
   16 Bend                     2     4     5               118.17464    0.00003
   17 Bend                     3     1     4                29.38506    0.00001
   18 Bend                     3     4     5               118.17464    0.00003
   19 Bend                     4     5     6               120.52451   -0.00000
   20 Bend                     4     5     7               120.52451   -0.00000
   21 Bend                     6     5     7               118.95098    0.00000
   22 Torsion                  1     2     4     3           0.00000    0.00000
   23 Torsion                  1     2     4     5         180.00000    0.00000
   24 Torsion                  1     3     4     2           0.00000    0.00000
   25 Torsion                  1     3     4     5         180.00000    0.00000
   26 Torsion                  2     1     3     4           0.00000    0.00000
   27 Torsion                  2     1     4     3         180.00000    0.00000
   28 Torsion                  2     1     5     6           0.00000    0.00000
   29 Torsion                  2     1     5     7         180.00000    0.00000
   30 Torsion                  2     4     1     3         180.00000    0.00000
   31 Torsion                  2     4     5     6           0.00000    0.00000
   32 Torsion                  2     4     5     7         180.00000    0.00000
   33 Torsion                  3     1     2     4          -0.00000    0.00000
   34 Torsion                  3     1     5     6         180.00000    0.00000
   35 Torsion                  3     1     5     7           0.00000    0.00000
   36 Torsion                  3     4     5     6         180.00000    0.00000
   37 Torsion                  3     4     5     7           0.00000    0.00000
   38 Torsion                  1     4     6     5         180.00000    0.00000
   39 Torsion                  1     4     7     5         180.00000    0.00000



                         Geometry "geometry" -> "geometry"
                         ---------------------------------

 Output coordinates in angstroms (scale by  1.889725989 to convert to a.u.)

  No.       Tag          Charge          X              Y              Z
 ---- ---------------- ---------- -------------- -------------- --------------
    1 na                  11.0000     0.00000000     0.00000000    -2.00382553
    2 o                    8.0000     0.00000000    -1.12635067    -0.00365590
    3 o                    8.0000     0.00000000     1.12635067    -0.00365590
    4 c                    6.0000     0.00000000     0.00000000     0.59964626
    5 c                    6.0000     0.00000000     0.00000000     2.06981129
    6 h                    1.0000     0.00000000    -0.93492174     2.62106113
    7 h                    1.0000     0.00000000     0.93492174     2.62106113

      Atomic Mass 
      ----------- 

      na                22.989800
      o                 15.994910
      c                 12.000000
      h                  1.007825


 Effective nuclear repulsion energy (a.u.)     169.0475597763

            Nuclear Dipole moment (a.u.) 
            ----------------------------
        X                 Y               Z
 ---------------- ---------------- ----------------
     0.0000000000     0.0000000000    -1.5905968095

      Symmetry information
      --------------------

 Group name             C2v       
 Group number             16
 Group order               4
 No. of unique centers     5

      Symmetry unique atoms

     1    2    4    5    6


                Final and change from initial internal coordinates
                --------------------------------------------------



                                Z-matrix (autoz)
                                -------- 

 Units are Angstrom for bonds and degrees for angles

      Type          Name      I     J     K     L     M      Value       Change
      ----------- --------  ----- ----- ----- ----- ----- ---------- ----------
    1 Stretch                  1     2                       2.29551    0.11551
    2 Stretch                  1     3                       2.29551    0.11551
    3 Stretch                  1     4                       2.60347    0.13690
    4 Stretch                  2     4                       1.27775   -0.00295
    5 Stretch                  3     4                       1.27775   -0.00295
    6 Stretch                  4     5                       1.47017    0.00462
    7 Stretch                  5     6                       1.08534    0.00109
    8 Stretch                  5     7                       1.08534    0.00109
    9 Bend                     1     2     4                88.78958    1.95798
   10 Bend                     1     3     4                88.78958    1.95798
   11 Bend                     1     4     2                61.82536   -0.11604
   12 Bend                     1     4     3                61.82536   -0.11604
   13 Bend                     2     1     3                58.77012   -3.68388
   14 Bend                     2     1     4                29.38506   -1.84194
   15 Bend                     2     4     3               123.65072   -0.23207
   16 Bend                     2     4     5               118.17464    0.11604
   17 Bend                     3     1     4                29.38506   -1.84194
   18 Bend                     3     4     5               118.17464    0.11604
   19 Bend                     4     5     6               120.52451    0.53015
   20 Bend                     4     5     7               120.52451    0.53015
   21 Bend                     6     5     7               118.95098   -1.06031
   22 Torsion                  1     2     4     3           0.00000    0.00000
   23 Torsion                  1     2     4     5         180.00000    0.00000
   24 Torsion                  1     3     4     2           0.00000    0.00000
   25 Torsion                  1     3     4     5         180.00000    0.00000
   26 Torsion                  2     1     3     4           0.00000    0.00000
   27 Torsion                  2     1     4     3         180.00000    0.00000
   28 Torsion                  2     1     5     6           0.00000    0.00000
   29 Torsion                  2     1     5     7         180.00000    0.00000
   30 Torsion                  2     4     1     3         180.00000    0.00000
   31 Torsion                  2     4     5     6           0.00000    0.00000
   32 Torsion                  2     4     5     7         180.00000    0.00000
   33 Torsion                  3     1     2     4          -0.00000    0.00000
   34 Torsion                  3     1     5     6         180.00000    0.00000
   35 Torsion                  3     1     5     7           0.00000    0.00000
   36 Torsion                  3     4     5     6         180.00000    0.00000
   37 Torsion                  3     4     5     7           0.00000    0.00000
   38 Torsion                  1     4     6     5         180.00000    0.00000
   39 Torsion                  1     4     7     5         180.00000    0.00000

 ==============================================================================
                                internuclear distances
 ------------------------------------------------------------------------------
       center one      |      center two      | atomic units |  angstroms
 ------------------------------------------------------------------------------
    2 o                |   1 na               |     4.33788  |     2.29551
    3 o                |   1 na               |     4.33788  |     2.29551
    4 c                |   1 na               |     4.91985  |     2.60347
    4 c                |   2 o                |     2.41459  |     1.27775
    4 c                |   3 o                |     2.41459  |     1.27775
    5 c                |   4 c                |     2.77821  |     1.47017
    6 h                |   5 c                |     2.05099  |     1.08534
    7 h                |   5 c                |     2.05099  |     1.08534
 ------------------------------------------------------------------------------
                         number of included internuclear distances:          8
 ==============================================================================



 ==============================================================================
                                 internuclear angles
 ------------------------------------------------------------------------------
        center 1       |       center 2       |       center 3       |  degrees
 ------------------------------------------------------------------------------
    2 o                |   1 na               |   3 o                |    58.77
    1 na               |   2 o                |   4 c                |    88.79
    1 na               |   3 o                |   4 c                |    88.79
    1 na               |   2 o                |   4 c                |    88.79
    1 na               |   3 o                |   4 c                |    88.79
    4 c                |   2 o                |   1 na               |    88.79
    4 c                |   3 o                |   1 na               |    88.79
    1 na               |   4 c                |   5 c                |   180.00
    2 o                |   4 c                |   3 o                |   123.65
    2 o                |   4 c                |   5 c                |   118.17
    3 o                |   4 c                |   5 c                |   118.17
    4 c                |   5 c                |   6 h                |   120.52
    4 c                |   5 c                |   7 h                |   120.52
    6 h                |   5 c                |   7 h                |   118.95
 ------------------------------------------------------------------------------
                            number of included internuclear angles:         14
 ==============================================================================




 Task  times  cpu:       54.2s     wall:       55.5s


                                NWChem Input Module
                                -------------------


 Summary of allocated global arrays
-----------------------------------
  No active global arrays



                         GA Statistics for process    0
                         ------------------------------

       create   destroy   get      put      acc     scatter   gather  read&inc
calls: 7283     7283     6.26e+05 4.96e+04 1.38e+05    0        0     2.72e+04 
number of processes/call 1.09e+00 1.22e+00 1.08e+00 0.00e+00 0.00e+00
bytes total:             7.05e+08 1.34e+08 3.32e+08 0.00e+00 0.00e+00 2.18e+05
bytes remote:            3.20e+08 3.90e+07 1.42e+08 0.00e+00 0.00e+00 0.00e+00
Max memory consumed for GA by this process: 1227296 bytes

MA_summarize_allocated_blocks: starting scan ...
MA_summarize_allocated_blocks: scan completed: 0 heap blocks, 0 stack blocks
MA usage statistics:

	allocation statistics:
					      heap	     stack
					      ----	     -----
	current number of blocks	         0	         0
	maximum number of blocks	        27	        55
	current total bytes		         0	         0
	maximum total bytes		   8560768	  25980136
	maximum total K-bytes		      8561	     25981
	maximum total M-bytes		         9	        26


                                     CITATION
                                     --------
                Please cite the following reference when publishing
                           results obtained with NWChem:

                 M. Valiev, E.J. Bylaska, N. Govind, K. Kowalski,
              T.P. Straatsma, H.J.J. van Dam, D. Wang, J. Nieplocha,
                        E. Apra, T.L. Windus, W.A. de Jong
                 "NWChem: a comprehensive and scalable open-source
                  solution for large scale molecular simulations"
                      Comput. Phys. Commun. 181, 1477 (2010)
                           doi:10.1016/j.cpc.2010.04.018

                                      AUTHORS
                                      -------
          E. Apra, E. J. Bylaska, W. A. de Jong, N. Govind, K. Kowalski,
       T. P. Straatsma, M. Valiev, H. J. J. van Dam, D. Wang, T. L. Windus,
        J. Hammond, J. Autschbach, K. Bhaskaran-Nair, J. Brabec, K. Lopata,
       S. A. Fischer, S. Krishnamoorthy, W. Ma, M. Klemm, O. Villa, Y. Chen,
    V. Anisimov, F. Aquino, S. Hirata, M. T. Hackler, V. Konjkov, T. Risthaus,
       M. Malagoli, A. Marenich, A. Otero-de-la-Roza, J. Mullin, P. Nichols,
      R. Peverati, J. Pittner, Y. Zhao, P.-D. Fan, A. Fonari, M. Williamson,
      R. J. Harrison, J. R. Rehr, M. Dupuis, D. Silverstein, D. M. A. Smith,
            J. Nieplocha, V. Tipparaju, M. Krishnan, B. E. Van Kuiken,
        A. Vazquez-Mayagoitia, L. Jensen, M. Swart, Q. Wu, T. Van Voorhis,
     A. A. Auer, M. Nooijen, L. D. Crosby, E. Brown, G. Cisneros, G. I. Fann,
   H. Fruchtl, J. Garza, K. Hirao, R. A. Kendall, J. A. Nichols, K. Tsemekhman,
    K. Wolinski, J. Anchell, D. E. Bernholdt, P. Borowski, T. Clark, D. Clerc,
   H. Dachsel, M. J. O. Deegan, K. Dyall, D. Elwood, E. Glendening, M. Gutowski,
   A. C. Hess, J. Jaffe, B. G. Johnson, J. Ju, R. Kobayashi, R. Kutteh, Z. Lin,
   R. Littlefield, X. Long, B. Meng, T. Nakajima, S. Niu, L. Pollack, M. Rosing,
   K. Glaesemann, G. Sandrone, M. Stave, H. Taylor, G. Thomas, J. H. van Lenthe,
                               A. T. Wong, Z. Zhang.

 Total times  cpu:       54.2s     wall:       55.6s
