 argument  1 = tce_save_h2o.nw



============================== echo of input deck ==============================
echo

start tce_save_h2o.temp

memory stack 800 mb heap 100 mb global 800 mb

geometry units bohr
  symmetry c1
  O      0.000000000000     0.000000000000    -0.123909374404
  H      0.000000000000     1.429936611037     0.983265845431
  H      0.000000000000    -1.429936611037     0.983265845431
end

#geometry units angstrom
# zmatrix
#  O
#  H 1 R
#  H 1 R 2 A
#  variables
#   R   0.9575091749
#   A 104.4784445984
#  end
#end

basis spherical
  * library aug-cc-pvdz
end

scf
  singlet
  rhf
  thresh 1e-9
  semidirect memsize 50000000 filesize 0
end

tce
  freeze atomic
  scf
  ccsd
  thresh 1e-7
  io ga
  2eorb
  2emet 13
  tilesize 32
  attilesize 32
end

task tce energy

set tce:printtol 1e-1

set tce:lineresp T
set tce:respaxis T T T
set tce:afreq 0.0

set tce:save_integrals T T T F F
set tce:save_t T T F F
set tce:save_l T T F F
set tce:save_tr T T F F

#set tce:guess_lr_real T

task tce energy

set tce:lineresp T
set tce:respaxis T T T
set tce:afreq 0.1 0.2 0.3 0.4 0.5

set tce:read_integrals T T T F F
set tce:save_integrals F F F F F

set tce:read_t T T F F
set tce:save_t F F F F

set tce:read_l T T F F
set tce:save_l F F F F

set tce:read_tr F F F F
set tce:save_tr T T F F

task tce energy

================================================================================


                                         
                                         


              Northwest Computational Chemistry Package (NWChem) 6.0
              ------------------------------------------------------


                    Environmental Molecular Sciences Laboratory
                       Pacific Northwest National Laboratory
                                Richland, WA 99352

                              Copyright (c) 1994-2010
                       Pacific Northwest National Laboratory
                            Battelle Memorial Institute

             NWChem is an open-source computational chemistry package
                        distributed under the terms of the
                      Educational Community License (ECL) 2.0
             A copy of the license is included with this distribution
                              in the LICENSE.TXT file

                                  ACKNOWLEDGMENT
                                  --------------

            This software and its documentation were developed at the
            EMSL at Pacific Northwest National Laboratory, a multiprogram
            national laboratory, operated for the U.S. Department of Energy
            by Battelle under Contract Number DE-AC05-76RL01830. Support
            for this work was provided by the Department of Energy Office
            of Biological and Environmental Research, Office of Basic
            Energy Sciences, and the Office of Advanced Scientific Computing.


           Job information
           ---------------

    hostname      = megatron
    program       = /software/nwchem/nwchem-6.0/bin/LINUX64/nwchem
    date          = Sat Feb 18 16:28:07 2012

    compiled      = Mon_Oct_31_14:01:39_2011
    source        = /software/nwchem/nwchem-6.0
    nwchem branch = 6.0
    input         = tce_save_h2o.nw
    prefix        = tce_save_h2o.temp.
    data base     = ./tce_save_h2o.temp.db
    status        = startup
    nproc         =        1
    time left     =     -1s



           Memory information
           ------------------

    heap     =   13107201 doubles =    100.0 Mbytes
    stack    =  104857601 doubles =    800.0 Mbytes
    global   =  104857600 doubles =    800.0 Mbytes (distinct from heap & stack)
    total    =  222822402 doubles =   1700.0 Mbytes
    verify   = yes
    hardfail = no 


           Directory information
           ---------------------

  0 permanent = .
  0 scratch   = .




                                NWChem Input Module
                                -------------------


 Turning off AUTOSYM since
 SYMMETRY directive was detected!


          ------
          auto-z
          ------


                             Geometry "geometry" -> ""
                             -------------------------

 Output coordinates in a.u. (scale by  1.000000000 to convert to a.u.)

  No.       Tag          Charge          X              Y              Z
 ---- ---------------- ---------- -------------- -------------- --------------
    1 O                    8.0000     0.00000000     0.00000000    -0.22143504
    2 H                    1.0000     0.00000000     1.42993661     0.88574018
    3 H                    1.0000     0.00000000    -1.42993661     0.88574018

      Atomic Mass 
      ----------- 

      O                 15.994910
      H                  1.007825


 Effective nuclear repulsion energy (a.u.)       9.1969343804

            Nuclear Dipole moment (a.u.) 
            ----------------------------
        X                 Y               Z
 ---------------- ---------------- ----------------
     0.0000000000     0.0000000000     0.0000000000



                                Z-matrix (autoz)
                                -------- 

 Units are Angstrom for bonds and degrees for angles

      Type          Name      I     J     K     L     M      Value
      ----------- --------  ----- ----- ----- ----- ----- ----------
    1 Stretch                  1     2                       0.95700
    2 Stretch                  1     3                       0.95700
    3 Bend                     2     1     3               104.50000


            XYZ format geometry
            -------------------
     3
 geometry
 O                     0.00000000     0.00000000    -0.11717839
 H                     0.00000000     0.75668992     0.46871355
 H                     0.00000000    -0.75668992     0.46871355

 ==============================================================================
                                internuclear distances
 ------------------------------------------------------------------------------
       center one      |      center two      | atomic units |       a.u.
 ------------------------------------------------------------------------------
    2 H                |   1 O                |     1.80847  |     1.80847
    3 H                |   1 O                |     1.80847  |     1.80847
 ------------------------------------------------------------------------------
                         number of included internuclear distances:          2
 ==============================================================================



 ==============================================================================
                                 internuclear angles
 ------------------------------------------------------------------------------
        center 1       |       center 2       |       center 3       |  degrees
 ------------------------------------------------------------------------------
    2 H                |   1 O                |   3 H                |   104.50
 ------------------------------------------------------------------------------
                            number of included internuclear angles:          1
 ==============================================================================





 Summary of "ao basis" -> "" (spherical)
 ------------------------------------------------------------------------------
       Tag                 Description            Shells   Functions and Types
 ---------------- ------------------------------  ------  ---------------------
 *                        aug-cc-pvdz                 on all atoms 


                      Basis "ao basis" -> "ao basis" (spherical)
                      -----
  O (Oxygen)
  ----------
            Exponent  Coefficients 
       -------------- ---------------------------------------------------------
  1 S  1.17200000E+04  0.000710
  1 S  1.75900000E+03  0.005470
  1 S  4.00800000E+02  0.027837
  1 S  1.13700000E+02  0.104800
  1 S  3.70300000E+01  0.283062
  1 S  1.32700000E+01  0.448719
  1 S  5.02500000E+00  0.270952
  1 S  1.01300000E+00  0.015458

  2 S  1.17200000E+04 -0.000160
  2 S  1.75900000E+03 -0.001263
  2 S  4.00800000E+02 -0.006267
  2 S  1.13700000E+02 -0.025716
  2 S  3.70300000E+01 -0.070924
  2 S  1.32700000E+01 -0.165411
  2 S  5.02500000E+00 -0.116955
  2 S  1.01300000E+00  0.557368

  3 S  3.02300000E-01  1.000000

  4 S  7.89600000E-02  1.000000

  5 P  1.77000000E+01  0.043018
  5 P  3.85400000E+00  0.228913
  5 P  1.04600000E+00  0.508728

  6 P  2.75300000E-01  1.000000

  7 P  6.85600000E-02  1.000000

  8 D  1.18500000E+00  1.000000

  9 D  3.32000000E-01  1.000000

  H (Hydrogen)
  ------------
            Exponent  Coefficients 
       -------------- ---------------------------------------------------------
  1 S  1.30100000E+01  0.019685
  1 S  1.96200000E+00  0.137977
  1 S  4.44600000E-01  0.478148

  2 S  1.22000000E-01  1.000000

  3 S  2.97400000E-02  1.000000

  4 P  7.27000000E-01  1.000000

  5 P  1.41000000E-01  1.000000



 Summary of "ao basis" -> "ao basis" (spherical)
 ------------------------------------------------------------------------------
       Tag                 Description            Shells   Functions and Types
 ---------------- ------------------------------  ------  ---------------------
 O                        aug-cc-pvdz                9       23   4s3p2d
 H                        aug-cc-pvdz                5        9   3s2p


                                 NWChem SCF Module
                                 -----------------



  ao basis        = "ao basis"
  functions       =    41
  atoms           =     3
  closed shells   =     5
  open shells     =     0
  charge          =   0.00
  wavefunction    = RHF 
  input vectors   = atomic
  output vectors  = ./tce_save_h2o.temp.movecs
  use symmetry    = F
  symmetry adapt  = F


 Summary of "ao basis" -> "ao basis" (spherical)
 ------------------------------------------------------------------------------
       Tag                 Description            Shells   Functions and Types
 ---------------- ------------------------------  ------  ---------------------
 O                        aug-cc-pvdz                9       23   4s3p2d
 H                        aug-cc-pvdz                5        9   3s2p



 Forming initial guess at       0.1s


      Superposition of Atomic Density Guess
      -------------------------------------

 Sum of atomic energies:         -75.76548395

 Integral file          = ./tce_save_h2o.temp.aoints.0
 Record size in doubles =  65536        No. of integs per rec  =  43688
 Max. records in memory =    761        Max. records in file   =      0
 No. of bits per label  =      8        No. of bits per value  =     64


 #quartets = 1.815D+04 #integrals = 1.901D+05 #direct =  0.0% #cached =100.0%


      Non-variational initial energy
      ------------------------------

 Total energy =     -75.930513
 1-e energy   =    -121.655137
 2-e energy   =      36.527689
 HOMO         =      -0.483151
 LUMO         =       0.012068


 Starting SCF solution at       0.3s



 ----------------------------------------------
         Quadratically convergent ROHF

 Convergence threshold     :          1.000E-09
 Maximum no. of iterations :           30
 Final Fock-matrix accuracy:          1.000E-11
 ----------------------------------------------


              iter       energy          gnorm     gmax       time
             ----- ------------------- --------- --------- --------
                 1      -76.0066821188  8.27D-01  2.86D-01      0.2
                 2      -76.0392368259  1.74D-01  7.11D-02      0.3
                 3      -76.0414174479  1.51D-02  5.63D-03      0.3
                 4      -76.0414379059  6.05D-05  2.05D-05      0.3
                 5      -76.0414379062  9.53D-10  3.24D-10      0.3


       Final RHF  results 
       ------------------ 

         Total SCF energy =    -76.041437906225
      One-electron energy =   -122.979596353575
      Two-electron energy =     37.741224066908
 Nuclear repulsion energy =      9.196934380443

        Time for solution =      0.1s


             Final eigenvalues
             -----------------

              1      
    1  -20.5772
    2   -1.3568
    3   -0.7194
    4   -0.5857
    5   -0.5095
    6    0.0354
    7    0.0579
    8    0.1740
    9    0.1967
   10    0.2227
   11    0.2314
   12    0.2909
   13    0.3315
   14    0.3858
   15    0.4041

                       ROHF Final Molecular Orbital Analysis
                       -------------------------------------

 Vector    2  Occ=2.000000D+00  E=-1.356771D+00
              MO Center= -1.1D-16, -1.4D-14,  5.2D-02, r^2= 5.0D-01
   Bfn.  Coefficient  Atom+Function         Bfn.  Coefficient  Atom+Function  
  ----- ------------  ---------------      ----- ------------  ---------------
     2      0.448302  1 O  s                  3      0.374208  1 O  s          
    33      0.206451  3 H  s                 24      0.206451  2 H  s          

 Vector    3  Occ=2.000000D+00  E=-7.193997D-01
              MO Center=  5.5D-17,  4.8D-14,  9.4D-02, r^2= 7.6D-01
   Bfn.  Coefficient  Atom+Function         Bfn.  Coefficient  Atom+Function  
  ----- ------------  ---------------      ----- ------------  ---------------
     6      0.499724  1 O  py                24      0.350342  2 H  s          
    33     -0.350342  3 H  s                  9      0.192168  1 O  py         

 Vector    4  Occ=2.000000D+00  E=-5.857128D-01
              MO Center=  1.9D-16, -5.2D-15, -1.6D-01, r^2= 7.2D-01
   Bfn.  Coefficient  Atom+Function         Bfn.  Coefficient  Atom+Function  
  ----- ------------  ---------------      ----- ------------  ---------------
     7      0.548963  1 O  pz                10      0.324056  1 O  pz         
     3     -0.319131  1 O  s                 24      0.211910  2 H  s          
    33      0.211910  3 H  s                  2     -0.151954  1 O  s          

 Vector    5  Occ=2.000000D+00  E=-5.094651D-01
              MO Center=  2.4D-16,  2.2D-15, -7.8D-02, r^2= 6.8D-01
   Bfn.  Coefficient  Atom+Function         Bfn.  Coefficient  Atom+Function  
  ----- ------------  ---------------      ----- ------------  ---------------
     5      0.628496  1 O  px                 8      0.450131  1 O  px         

 Vector    6  Occ=0.000000D+00  E= 3.544092D-02
              MO Center= -5.0D-16, -4.5D-13,  7.8D-01, r^2= 1.1D+01
   Bfn.  Coefficient  Atom+Function         Bfn.  Coefficient  Atom+Function  
  ----- ------------  ---------------      ----- ------------  ---------------
     4      1.563166  1 O  s                 35     -0.837109  3 H  s          
    26     -0.837109  2 H  s                 25     -0.479441  2 H  s          
    34     -0.479441  3 H  s                  3      0.222144  1 O  s          
    13      0.213545  1 O  pz         

 Vector    7  Occ=0.000000D+00  E= 5.792995D-02
              MO Center= -2.4D-17,  6.6D-13,  8.2D-01, r^2= 1.5D+01
   Bfn.  Coefficient  Atom+Function         Bfn.  Coefficient  Atom+Function  
  ----- ------------  ---------------      ----- ------------  ---------------
    26      2.970250  2 H  s                 35     -2.970250  3 H  s          
    12     -0.831216  1 O  py                25      0.551819  2 H  s          
    34     -0.551819  3 H  s          

 Vector    8  Occ=0.000000D+00  E= 1.739659D-01
              MO Center= -2.3D-16, -1.1D-13, -2.6D-01, r^2= 8.3D+00
   Bfn.  Coefficient  Atom+Function         Bfn.  Coefficient  Atom+Function  
  ----- ------------  ---------------      ----- ------------  ---------------
     4      4.105941  1 O  s                 13      1.918651  1 O  pz         
    25     -1.774104  2 H  s                 34     -1.774104  3 H  s          
    26     -0.624369  2 H  s                 35     -0.624369  3 H  s          
     3      0.366685  1 O  s                 31      0.328308  2 H  py         
    40     -0.328308  3 H  py                 7     -0.176832  1 O  pz         

 Vector    9  Occ=0.000000D+00  E= 1.966635D-01
              MO Center= -1.0D-15,  6.2D-16, -3.8D-01, r^2= 6.4D+00
   Bfn.  Coefficient  Atom+Function         Bfn.  Coefficient  Atom+Function  
  ----- ------------  ---------------      ----- ------------  ---------------
    11      1.443372  1 O  px                39     -0.284166  3 H  px         
    30     -0.284166  2 H  px                 8     -0.244985  1 O  px         
     5     -0.174487  1 O  px         

 Vector   10  Occ=0.000000D+00  E= 2.226739D-01
              MO Center=  8.0D-16,  6.7D-12,  1.2D-02, r^2= 7.5D+00
   Bfn.  Coefficient  Atom+Function         Bfn.  Coefficient  Atom+Function  
  ----- ------------  ---------------      ----- ------------  ---------------
     4      2.872773  1 O  s                 26     -0.678328  2 H  s          
    35     -0.678328  3 H  s                 13     -0.499239  1 O  pz         
    32      0.482607  2 H  pz                41      0.482607  3 H  pz         
    25     -0.463538  2 H  s                 34     -0.463538  3 H  s          
    31      0.429704  2 H  py                40     -0.429704  3 H  py         

 Vector   11  Occ=0.000000D+00  E= 2.314296D-01
              MO Center= -1.9D-16, -7.2D-12, -1.9D-01, r^2= 1.0D+01
   Bfn.  Coefficient  Atom+Function         Bfn.  Coefficient  Atom+Function  
  ----- ------------  ---------------      ----- ------------  ---------------
    12      3.111370  1 O  py                35      2.706403  3 H  s          
    26     -2.706403  2 H  s                 25     -2.675025  2 H  s          
    34      2.675025  3 H  s                 40      0.592096  3 H  py         
    31      0.592096  2 H  py                41     -0.558620  3 H  pz         
    32      0.558620  2 H  pz                 9      0.260907  1 O  py         

 Vector   12  Occ=0.000000D+00  E= 2.908716D-01
              MO Center= -6.5D-17,  5.8D-13,  4.4D-01, r^2= 4.4D+00
   Bfn.  Coefficient  Atom+Function         Bfn.  Coefficient  Atom+Function  
  ----- ------------  ---------------      ----- ------------  ---------------
    25      0.968087  2 H  s                 34     -0.968087  3 H  s          
    12     -0.903917  1 O  py                32      0.484896  2 H  pz         
    41     -0.484896  3 H  pz                31      0.435822  2 H  py         
    40      0.435822  3 H  py                26     -0.299710  2 H  s          
    35      0.299710  3 H  s                  9     -0.270455  1 O  py         

 Vector   13  Occ=0.000000D+00  E= 3.315146D-01
              MO Center=  7.0D-16, -5.4D-13,  1.9D-01, r^2= 4.6D+00
   Bfn.  Coefficient  Atom+Function         Bfn.  Coefficient  Atom+Function  
  ----- ------------  ---------------      ----- ------------  ---------------
     4      4.345377  1 O  s                 25     -2.353045  2 H  s          
    34     -2.353045  3 H  s                 13      0.590972  1 O  pz         
    32      0.463454  2 H  pz                41      0.463454  3 H  pz         
    40      0.377053  3 H  py                31     -0.377053  2 H  py         
    35     -0.253129  3 H  s                 26     -0.253129  2 H  s          

 Vector   14  Occ=0.000000D+00  E= 3.858291D-01
              MO Center= -9.1D-17, -1.9D-13,  5.2D-01, r^2= 4.0D+00
   Bfn.  Coefficient  Atom+Function         Bfn.  Coefficient  Atom+Function  
  ----- ------------  ---------------      ----- ------------  ---------------
    39      1.141459  3 H  px                30     -1.141459  2 H  px         

 Vector   15  Occ=0.000000D+00  E= 4.041210D-01
              MO Center=  3.6D-16, -4.4D-13,  2.8D-01, r^2= 4.6D+00
   Bfn.  Coefficient  Atom+Function         Bfn.  Coefficient  Atom+Function  
  ----- ------------  ---------------      ----- ------------  ---------------
     4      4.395882  1 O  s                 25     -2.342438  2 H  s          
    34     -2.342438  3 H  s                 13      1.823190  1 O  pz         
    10      0.778800  1 O  pz                41     -0.704269  3 H  pz         
    32     -0.704269  2 H  pz                31      0.346761  2 H  py         
    40     -0.346761  3 H  py                35     -0.285688  3 H  s          

 Vector   16  Occ=0.000000D+00  E= 4.338473D-01
              MO Center=  5.7D-17,  1.8D-13,  4.6D-01, r^2= 4.1D+00
   Bfn.  Coefficient  Atom+Function         Bfn.  Coefficient  Atom+Function  
  ----- ------------  ---------------      ----- ------------  ---------------
    30      1.199417  2 H  px                39      1.199417  3 H  px         
    11     -1.166572  1 O  px                 8     -0.657401  1 O  px         
     5     -0.150943  1 O  px         

 Vector   17  Occ=0.000000D+00  E= 5.392600D-01
              MO Center=  3.4D-17,  6.8D-14,  4.2D-01, r^2= 5.1D+00
   Bfn.  Coefficient  Atom+Function         Bfn.  Coefficient  Atom+Function  
  ----- ------------  ---------------      ----- ------------  ---------------
    31      2.335345  2 H  py                40      2.335345  3 H  py         
    12     -1.937803  1 O  py                25     -1.482545  2 H  s          
    34      1.482545  3 H  s                 41      1.042548  3 H  pz         
    32     -1.042548  2 H  pz                26      0.763952  2 H  s          
    35     -0.763952  3 H  s          


 center of mass
 --------------
 x =   0.00000000 y =   0.00000000 z =  -0.09752564

 moments of inertia (a.u.)
 ------------------
           6.315769699608           0.000000000000           0.000000000000
           0.000000000000           2.194332428604           0.000000000000
           0.000000000000           0.000000000000           4.121437271004

  Mulliken analysis of the total density
  --------------------------------------

    Atom       Charge   Shell Charges
 -----------   ------   -------------------------------------------------------
    1 O    8     8.30   2.00  0.84  0.81  0.08  2.82  1.63  0.11  0.01 -0.02
    2 H    1     0.85   0.73  0.03 -0.00  0.08  0.02
    3 H    1     0.85   0.73  0.03 -0.00  0.08  0.02

       Multipole analysis of the density wrt the origin
       ------------------------------------------------

     L   x y z        total         open         nuclear
     -   - - -        -----         ----         -------
     0   0 0 0     -0.000000      0.000000     10.000000

     1   1 0 0     -0.000000      0.000000      0.000000
     1   0 1 0     -0.000000      0.000000      0.000000
     1   0 0 1      0.786334      0.000000      0.000000

     2   2 0 0     -5.641959      0.000000      0.000000
     2   1 1 0     -0.000000      0.000000      0.000000
     2   1 0 1     -0.000000      0.000000      0.000000
     2   0 2 0     -3.182049      0.000000      4.089437
     2   0 1 1     -0.000000      0.000000      0.000000
     2   0 0 2     -4.656874      0.000000      1.961339


 Parallel integral file used       5 records with       0 large values

                   NWChem Extensible Many-Electron Theory Module
                   ---------------------------------------------

              ======================================================
                   This portion of the program was automatically
                  generated by a Tensor Contraction Engine (TCE).
                  The development of this portion of the program
                 and TCE was supported by US Department of Energy,
                Office of Science, Office of Basic Energy Science.
                      TCE is a product of Battelle and PNNL.
              Please cite: S.Hirata, J.Phys.Chem.A 107, 9887 (2003).
              ======================================================

            General Information
            -------------------
      Number of processors :     1
         Wavefunction type : Restricted Hartree-Fock
          No. of electrons :    10
           Alpha electrons :     5
            Beta electrons :     5
           No. of orbitals :    82
            Alpha orbitals :    41
             Beta orbitals :    41
        Alpha frozen cores :     1
         Beta frozen cores :     1
     Alpha frozen virtuals :     0
      Beta frozen virtuals :     0
         Spin multiplicity : singlet 
    Number of AO functions :    41
       Number of AO shells :    19
        Use of symmetry is : off
      Symmetry adaption is : off
         Schwarz screening : 0.10D-09

          Correlation Information
          -----------------------
          Calculation type : Coupled-cluster singles & doubles                           
   Perturbative correction : none                                                        
            Max iterations :      100
        Residual threshold : 0.10D-06
     T(0) DIIS level shift : 0.00D+00
     L(0) DIIS level shift : 0.00D+00
     T(1) DIIS level shift : 0.00D+00
     L(1) DIIS level shift : 0.00D+00
     T(R) DIIS level shift : 0.00D+00
     T(I) DIIS level shift : 0.00D+00
   CC-T/L Amplitude update :  5-th order DIIS
                I/O scheme : Global Array Library

            Memory Information
            ------------------
          Available GA space size is     104855919 doubles
          Available MA space size is     117962779 doubles

 Maximum block size supplied by input
 Maximum block size        32 doubles

 tile_dim =     18

 Block   Spin    Irrep     Size     Offset   Alpha
 -------------------------------------------------
   1    alpha     a      4 doubles       0       1
   2    beta      a      4 doubles       4       1
   3    alpha     a     18 doubles       8       3
   4    alpha     a     18 doubles      26       4
   5    beta      a     18 doubles      44       3
   6    beta      a     18 doubles      62       4

 Global array virtual files algorithm will be used

 Parallel file system coherency ......... OK

 Integral file          = ./tce_save_h2o.temp.aoints.0
 Record size in doubles =  65536        No. of integs per rec  =  43688
 Max. records in memory =    761        Max. records in file   =      0
 No. of bits per label  =      8        No. of bits per value  =     64


 #quartets = 1.815D+04 #integrals = 1.901D+05 #direct =  0.0% #cached =100.0%


 Fock matrix recomputed
 1-e file size   =             1600
 1-e file name   = ./tce_save_h2o.temp.
 Cpu & wall time / sec            0.1            0.1
 4-electron integrals stored in orbital form

 v2    file size   =           803488
 4-index algorithm nr.  13 is used
 imaxsize =       32
 imaxsize ichop =        0
 Cpu & wall time / sec            1.4            1.4
 T1-number-of-tasks                    2

 t1 file size   =              144
 t1 file name   = ./tce_save_h2o.temp.
 t1 file handle =       -998
 T2-number-of-boxes                    7

 t2 file size   =            36288
 t2 file name   = ./tce_save_h2o.temp.
 t2 file handle =       -996

 CCSD iterations
 -----------------------------------------------------------------
 Iter          Residuum       Correlation     Cpu    Wall    V2*C2
 -----------------------------------------------------------------
    1   0.1102353526421  -0.2192312642614     0.2     0.3     0.1
    2   0.0300819499826  -0.2228216286092     0.3     0.3     0.1
    3   0.0106727527481  -0.2260594416961     0.3     0.3     0.1
    4   0.0044156781709  -0.2266314862380     0.3     0.3     0.1
    5   0.0018566442931  -0.2269295851142     0.2     0.3     0.1
 MICROCYCLE DIIS UPDATE:                    5                    5
    6   0.0003584669301  -0.2270680426888     0.2     0.3     0.1
    7   0.0001267214403  -0.2270890957998     0.2     0.3     0.1
    8   0.0000521811995  -0.2270896783404     0.3     0.3     0.1
    9   0.0000255436972  -0.2270897673371     0.3     0.3     0.1
   10   0.0000116436131  -0.2270902832963     0.3     0.3     0.1
 MICROCYCLE DIIS UPDATE:                   10                    5
   11   0.0000028533411  -0.2270904709904     0.2     0.3     0.1
   12   0.0000011546027  -0.2270906191993     0.3     0.3     0.1
   13   0.0000005759963  -0.2270906574429     0.3     0.3     0.1
   14   0.0000003006823  -0.2270906668809     0.2     0.3     0.1
   15   0.0000001618426  -0.2270906708245     0.3     0.3     0.1
 MICROCYCLE DIIS UPDATE:                   15                    5
   16   0.0000000347304  -0.2270906726319     0.3     0.3     0.1
 -----------------------------------------------------------------
 Iterations converged
 CCSD correlation energy / hartree =        -0.227090672631946
 CCSD total energy / hartree       =       -76.268528578856902

 Singles contributions
     6a   (alpha) ---     2a   (alpha)       -0.0016954904
     6a   (alpha) ---     4a   (alpha)       -0.0042058212
     7a   (alpha) ---     3a   (alpha)        0.0025597592
     8a   (alpha) ---     2a   (alpha)       -0.0017916327
     8a   (alpha) ---     4a   (alpha)        0.0121418850
     9a   (alpha) ---     5a   (alpha)        0.0214112896
    10a   (alpha) ---     2a   (alpha)        0.0044693632
    10a   (alpha) ---     4a   (alpha)       -0.0023937524
    11a   (alpha) ---     3a   (alpha)        0.0027743279
    12a   (alpha) ---     3a   (alpha)        0.0042768887
    13a   (alpha) ---     2a   (alpha)        0.0006347126
    13a   (alpha) ---     4a   (alpha)       -0.0016326445
    15a   (alpha) ---     2a   (alpha)        0.0029556290
    15a   (alpha) ---     4a   (alpha)       -0.0116735904
    16a   (alpha) ---     5a   (alpha)        0.0154814227
    17a   (alpha) ---     3a   (alpha)        0.0006602964
    18a   (alpha) ---     2a   (alpha)       -0.0009639780
    18a   (alpha) ---     4a   (alpha)        0.0005533858
    19a   (alpha) ---     3a   (alpha)        0.0002782873
    20a   (alpha) ---     3a   (alpha)        0.0008497906
    21a   (alpha) ---     2a   (alpha)        0.0005469705
    21a   (alpha) ---     4a   (alpha)       -0.0002194823
    22a   (alpha) ---     5a   (alpha)       -0.0005944383
    23a   (alpha) ---     2a   (alpha)        0.0006002564
    23a   (alpha) ---     4a   (alpha)        0.0012290073
    25a   (alpha) ---     2a   (alpha)       -0.0021851374
    25a   (alpha) ---     4a   (alpha)        0.0014115994
    26a   (alpha) ---     3a   (alpha)       -0.0021108141
    27a   (alpha) ---     5a   (alpha)        0.0004857125
    28a   (alpha) ---     2a   (alpha)       -0.0020693912
    28a   (alpha) ---     4a   (alpha)       -0.0031407378
    29a   (alpha) ---     3a   (alpha)       -0.0014824437
    31a   (alpha) ---     5a   (alpha)        0.0011058517
    32a   (alpha) ---     2a   (alpha)       -0.0005803026
    32a   (alpha) ---     4a   (alpha)        0.0005732138
    33a   (alpha) ---     3a   (alpha)       -0.0075053146
    34a   (alpha) ---     2a   (alpha)       -0.0036187746
    34a   (alpha) ---     4a   (alpha)       -0.0039167432
    35a   (alpha) ---     3a   (alpha)        0.0017614969
    36a   (alpha) ---     2a   (alpha)       -0.0006820450
    36a   (alpha) ---     4a   (alpha)        0.0013722464
    37a   (alpha) ---     5a   (alpha)        0.0001760575
    38a   (alpha) ---     2a   (alpha)       -0.0001215039
    38a   (alpha) ---     4a   (alpha)       -0.0001106007
    40a   (alpha) ---     2a   (alpha)        0.0004104101
    40a   (alpha) ---     4a   (alpha)       -0.0001018749
    41a   (alpha) ---     3a   (alpha)        0.0004527899

 Doubles contributions
     6a   (alpha)     7a   (alpha) ---     2a   (alpha)     3a   (alpha)        0.0009010008
     6a   (alpha)     7a   (alpha) ---     3a   (alpha)     2a   (alpha)       -0.0009010008
     6a   (alpha)     7a   (alpha) ---     3a   (alpha)     4a   (alpha)       -0.0008136587
     6a   (alpha)     7a   (alpha) ---     4a   (alpha)     3a   (alpha)        0.0008136587
     6a   (alpha)     8a   (alpha) ---     2a   (alpha)     4a   (alpha)        0.0015491646
     6a   (alpha)     8a   (alpha) ---     4a   (alpha)     2a   (alpha)       -0.0015491646
     6a   (alpha)     9a   (alpha) ---     2a   (alpha)     5a   (alpha)        0.0025623219
     6a   (alpha)     9a   (alpha) ---     4a   (alpha)     5a   (alpha)        0.0025457412
     6a   (alpha)     9a   (alpha) ---     5a   (alpha)     2a   (alpha)       -0.0025623219
     6a   (alpha)     9a   (alpha) ---     5a   (alpha)     4a   (alpha)       -0.0025457412
     6a   (alpha)    10a   (alpha) ---     2a   (alpha)     4a   (alpha)       -0.0013962758
     6a   (alpha)    10a   (alpha) ---     4a   (alpha)     2a   (alpha)        0.0013962758
     6a   (alpha)    11a   (alpha) ---     2a   (alpha)     3a   (alpha)        0.0017636477
     6a   (alpha)    11a   (alpha) ---     3a   (alpha)     2a   (alpha)       -0.0017636477
     6a   (alpha)    11a   (alpha) ---     3a   (alpha)     4a   (alpha)       -0.0015801062
     6a   (alpha)    11a   (alpha) ---     4a   (alpha)     3a   (alpha)        0.0015801062
     6a   (alpha)    12a   (alpha) ---     2a   (alpha)     3a   (alpha)        0.0013053251
     6a   (alpha)    12a   (alpha) ---     3a   (alpha)     2a   (alpha)       -0.0013053251
     6a   (alpha)    12a   (alpha) ---     3a   (alpha)     4a   (alpha)       -0.0015875577
     6a   (alpha)    12a   (alpha) ---     4a   (alpha)     3a   (alpha)        0.0015875577
     6a   (alpha)    13a   (alpha) ---     2a   (alpha)     4a   (alpha)       -0.0008432664
     6a   (alpha)    13a   (alpha) ---     4a   (alpha)     2a   (alpha)        0.0008432664
     6a   (alpha)    14a   (alpha) ---     3a   (alpha)     5a   (alpha)       -0.0006583778
     6a   (alpha)    14a   (alpha) ---     5a   (alpha)     3a   (alpha)        0.0006583778
     6a   (alpha)    15a   (alpha) ---     2a   (alpha)     4a   (alpha)       -0.0015111138
     6a   (alpha)    15a   (alpha) ---     4a   (alpha)     2a   (alpha)        0.0015111138
     6a   (alpha)    16a   (alpha) ---     2a   (alpha)     5a   (alpha)        0.0015525215
     6a   (alpha)    16a   (alpha) ---     4a   (alpha)     5a   (alpha)        0.0022607496
     6a   (alpha)    16a   (alpha) ---     5a   (alpha)     2a   (alpha)       -0.0015525215
     6a   (alpha)    16a   (alpha) ---     5a   (alpha)     4a   (alpha)       -0.0022607496
     6a   (alpha)    17a   (alpha) ---     2a   (alpha)     3a   (alpha)        0.0008024503
     6a   (alpha)    17a   (alpha) ---     3a   (alpha)     2a   (alpha)       -0.0008024503
     6a   (alpha)    17a   (alpha) ---     3a   (alpha)     4a   (alpha)       -0.0005624064
     6a   (alpha)    17a   (alpha) ---     4a   (alpha)     3a   (alpha)        0.0005624064
     6a   (alpha)    18a   (alpha) ---     2a   (alpha)     4a   (alpha)        0.0005350284
     6a   (alpha)    18a   (alpha) ---     4a   (alpha)     2a   (alpha)       -0.0005350284
     6a   (alpha)    19a   (alpha) ---     2a   (alpha)     3a   (alpha)       -0.0018102890
     6a   (alpha)    19a   (alpha) ---     3a   (alpha)     2a   (alpha)        0.0018102890
     6a   (alpha)    19a   (alpha) ---     3a   (alpha)     4a   (alpha)        0.0018820001
     6a   (alpha)    19a   (alpha) ---     4a   (alpha)     3a   (alpha)       -0.0018820001
     6a   (alpha)    20a   (alpha) ---     2a   (alpha)     3a   (alpha)        0.0002238913
     6a   (alpha)    20a   (alpha) ---     3a   (alpha)     2a   (alpha)       -0.0002238913
     6a   (alpha)    20a   (alpha) ---     3a   (alpha)     4a   (alpha)        0.0009682202
     6a   (alpha)    20a   (alpha) ---     4a   (alpha)     3a   (alpha)       -0.0009682202
     6a   (alpha)    21a   (alpha) ---     2a   (alpha)     4a   (alpha)       -0.0002184134
     6a   (alpha)    21a   (alpha) ---     4a   (alpha)     2a   (alpha)        0.0002184134
     6a   (alpha)    22a   (alpha) ---     2a   (alpha)     5a   (alpha)        0.0018020893
     6a   (alpha)    22a   (alpha) ---     4a   (alpha)     5a   (alpha)        0.0001938520
     6a   (alpha)    22a   (alpha) ---     5a   (alpha)     2a   (alpha)       -0.0018020893
     6a   (alpha)    22a   (alpha) ---     5a   (alpha)     4a   (alpha)       -0.0001938520
     6a   (alpha)    23a   (alpha) ---     2a   (alpha)     4a   (alpha)       -0.0017034430
     6a   (alpha)    23a   (alpha) ---     4a   (alpha)     2a   (alpha)        0.0017034430
     7a   (alpha)     6a   (alpha) ---     2a   (alpha)     3a   (alpha)       -0.0009010008
     7a   (alpha)     6a   (alpha) ---     3a   (alpha)     2a   (alpha)        0.0009010008
     7a   (alpha)     6a   (alpha) ---     3a   (alpha)     4a   (alpha)        0.0008136587
     7a   (alpha)     6a   (alpha) ---     4a   (alpha)     3a   (alpha)       -0.0008136587
     7a   (alpha)     8a   (alpha) ---     2a   (alpha)     3a   (alpha)        0.0007005885
     7a   (alpha)     8a   (alpha) ---     3a   (alpha)     2a   (alpha)       -0.0007005885
     7a   (alpha)     8a   (alpha) ---     3a   (alpha)     4a   (alpha)       -0.0027705298
     7a   (alpha)     8a   (alpha) ---     4a   (alpha)     3a   (alpha)        0.0027705298
     7a   (alpha)     9a   (alpha) ---     3a   (alpha)     5a   (alpha)       -0.0034710643
     7a   (alpha)     9a   (alpha) ---     5a   (alpha)     3a   (alpha)        0.0034710643
     7a   (alpha)    10a   (alpha) ---     2a   (alpha)     3a   (alpha)        0.0016566711
     7a   (alpha)    10a   (alpha) ---     3a   (alpha)     2a   (alpha)       -0.0016566711
     7a   (alpha)    10a   (alpha) ---     3a   (alpha)     4a   (alpha)        0.0005440330
     7a   (alpha)    10a   (alpha) ---     4a   (alpha)     3a   (alpha)       -0.0005440330
     7a   (alpha)    11a   (alpha) ---     2a   (alpha)     4a   (alpha)       -0.0000478066
     7a   (alpha)    11a   (alpha) ---     4a   (alpha)     2a   (alpha)        0.0000478066
     7a   (alpha)    12a   (alpha) ---     2a   (alpha)     4a   (alpha)        0.0004347186
     7a   (alpha)    12a   (alpha) ---     4a   (alpha)     2a   (alpha)       -0.0004347186
     7a   (alpha)    13a   (alpha) ---     2a   (alpha)     3a   (alpha)       -0.0005460726
     7a   (alpha)    13a   (alpha) ---     3a   (alpha)     2a   (alpha)        0.0005460726
     7a   (alpha)    13a   (alpha) ---     3a   (alpha)     4a   (alpha)        0.0004384443
     7a   (alpha)    13a   (alpha) ---     4a   (alpha)     3a   (alpha)       -0.0004384443
     7a   (alpha)    14a   (alpha) ---     2a   (alpha)     5a   (alpha)       -0.0002554475
     7a   (alpha)    14a   (alpha) ---     4a   (alpha)     5a   (alpha)        0.0005505120
     7a   (alpha)    14a   (alpha) ---     5a   (alpha)     2a   (alpha)        0.0002554475
     7a   (alpha)    14a   (alpha) ---     5a   (alpha)     4a   (alpha)       -0.0005505120
     7a   (alpha)    15a   (alpha) ---     2a   (alpha)     3a   (alpha)       -0.0001229358
     7a   (alpha)    15a   (alpha) ---     3a   (alpha)     2a   (alpha)        0.0001229358
     7a   (alpha)    15a   (alpha) ---     3a   (alpha)     4a   (alpha)        0.0029178504
     7a   (alpha)    15a   (alpha) ---     4a   (alpha)     3a   (alpha)       -0.0029178504
     7a   (alpha)    16a   (alpha) ---     3a   (alpha)     5a   (alpha)       -0.0026727916
     7a   (alpha)    16a   (alpha) ---     5a   (alpha)     3a   (alpha)        0.0026727916
     7a   (alpha)    17a   (alpha) ---     2a   (alpha)     4a   (alpha)       -0.0000156770
     7a   (alpha)    17a   (alpha) ---     4a   (alpha)     2a   (alpha)        0.0000156770
     7a   (alpha)    18a   (alpha) ---     2a   (alpha)     3a   (alpha)       -0.0018879527
     7a   (alpha)    18a   (alpha) ---     3a   (alpha)     2a   (alpha)        0.0018879527
     7a   (alpha)    18a   (alpha) ---     3a   (alpha)     4a   (alpha)        0.0007842997
     7a   (alpha)    18a   (alpha) ---     4a   (alpha)     3a   (alpha)       -0.0007842997
     7a   (alpha)    19a   (alpha) ---     2a   (alpha)     4a   (alpha)       -0.0001737794
     7a   (alpha)    19a   (alpha) ---     4a   (alpha)     2a   (alpha)        0.0001737794
     7a   (alpha)    20a   (alpha) ---     2a   (alpha)     4a   (alpha)       -0.0010610594
     7a   (alpha)    20a   (alpha) ---     4a   (alpha)     2a   (alpha)        0.0010610594
     7a   (alpha)    21a   (alpha) ---     2a   (alpha)     3a   (alpha)        0.0009898752
     7a   (alpha)    21a   (alpha) ---     3a   (alpha)     2a   (alpha)       -0.0009898752
     7a   (alpha)    21a   (alpha) ---     3a   (alpha)     4a   (alpha)        0.0003072646
     7a   (alpha)    21a   (alpha) ---     4a   (alpha)     3a   (alpha)       -0.0003072646
     7a   (alpha)    22a   (alpha) ---     3a   (alpha)     5a   (alpha)       -0.0009865148
     7a   (alpha)    22a   (alpha) ---     5a   (alpha)     3a   (alpha)        0.0009865148
     7a   (alpha)    23a   (alpha) ---     2a   (alpha)     3a   (alpha)       -0.0004590741
     7a   (alpha)    23a   (alpha) ---     3a   (alpha)     2a   (alpha)        0.0004590741
     7a   (alpha)    23a   (alpha) ---     3a   (alpha)     4a   (alpha)        0.0003123890
     7a   (alpha)    23a   (alpha) ---     4a   (alpha)     3a   (alpha)       -0.0003123890
     8a   (alpha)     6a   (alpha) ---     2a   (alpha)     4a   (alpha)       -0.0015491646
     8a   (alpha)     6a   (alpha) ---     4a   (alpha)     2a   (alpha)        0.0015491646
     8a   (alpha)     7a   (alpha) ---     2a   (alpha)     3a   (alpha)       -0.0007005885
     8a   (alpha)     7a   (alpha) ---     3a   (alpha)     2a   (alpha)        0.0007005885
     8a   (alpha)     7a   (alpha) ---     3a   (alpha)     4a   (alpha)        0.0027705298
     8a   (alpha)     7a   (alpha) ---     4a   (alpha)     3a   (alpha)       -0.0027705298
     8a   (alpha)     9a   (alpha) ---     2a   (alpha)     5a   (alpha)       -0.0021960205
     8a   (alpha)     9a   (alpha) ---     4a   (alpha)     5a   (alpha)       -0.0081361142
     8a   (alpha)     9a   (alpha) ---     5a   (alpha)     2a   (alpha)        0.0021960205
     8a   (alpha)     9a   (alpha) ---     5a   (alpha)     4a   (alpha)        0.0081361142
     8a   (alpha)    10a   (alpha) ---     2a   (alpha)     4a   (alpha)        0.0038983382
     8a   (alpha)    10a   (alpha) ---     4a   (alpha)     2a   (alpha)       -0.0038983382
     8a   (alpha)    11a   (alpha) ---     2a   (alpha)     3a   (alpha)       -0.0014655179
     8a   (alpha)    11a   (alpha) ---     3a   (alpha)     2a   (alpha)        0.0014655179
     8a   (alpha)    11a   (alpha) ---     3a   (alpha)     4a   (alpha)        0.0051289096
     8a   (alpha)    11a   (alpha) ---     4a   (alpha)     3a   (alpha)       -0.0051289096
     8a   (alpha)    12a   (alpha) ---     2a   (alpha)     3a   (alpha)       -0.0005159221
     8a   (alpha)    12a   (alpha) ---     3a   (alpha)     2a   (alpha)        0.0005159221
     8a   (alpha)    12a   (alpha) ---     3a   (alpha)     4a   (alpha)        0.0058895890
     8a   (alpha)    12a   (alpha) ---     4a   (alpha)     3a   (alpha)       -0.0058895890
     8a   (alpha)    13a   (alpha) ---     2a   (alpha)     4a   (alpha)        0.0004929255
     8a   (alpha)    13a   (alpha) ---     4a   (alpha)     2a   (alpha)       -0.0004929255
     8a   (alpha)    14a   (alpha) ---     3a   (alpha)     5a   (alpha)        0.0001492351
     8a   (alpha)    14a   (alpha) ---     5a   (alpha)     3a   (alpha)       -0.0001492351
     8a   (alpha)    15a   (alpha) ---     2a   (alpha)     4a   (alpha)        0.0005955464
     8a   (alpha)    15a   (alpha) ---     4a   (alpha)     2a   (alpha)       -0.0005955464
     8a   (alpha)    16a   (alpha) ---     2a   (alpha)     5a   (alpha)       -0.0009644875
     8a   (alpha)    16a   (alpha) ---     4a   (alpha)     5a   (alpha)       -0.0059219147
     8a   (alpha)    16a   (alpha) ---     5a   (alpha)     2a   (alpha)        0.0009644875
     8a   (alpha)    16a   (alpha) ---     5a   (alpha)     4a   (alpha)        0.0059219147
     8a   (alpha)    17a   (alpha) ---     2a   (alpha)     3a   (alpha)       -0.0007483778
     8a   (alpha)    17a   (alpha) ---     3a   (alpha)     2a   (alpha)        0.0007483778
     8a   (alpha)    17a   (alpha) ---     3a   (alpha)     4a   (alpha)        0.0019587123
     8a   (alpha)    17a   (alpha) ---     4a   (alpha)     3a   (alpha)       -0.0019587123
     8a   (alpha)    18a   (alpha) ---     2a   (alpha)     4a   (alpha)       -0.0034612798
     8a   (alpha)    18a   (alpha) ---     4a   (alpha)     2a   (alpha)        0.0034612798
     8a   (alpha)    19a   (alpha) ---     2a   (alpha)     3a   (alpha)        0.0013581771
     8a   (alpha)    19a   (alpha) ---     3a   (alpha)     2a   (alpha)       -0.0013581771
     8a   (alpha)    19a   (alpha) ---     3a   (alpha)     4a   (alpha)       -0.0061566979
     8a   (alpha)    19a   (alpha) ---     4a   (alpha)     3a   (alpha)        0.0061566979
     8a   (alpha)    20a   (alpha) ---     2a   (alpha)     3a   (alpha)       -0.0014039985
     8a   (alpha)    20a   (alpha) ---     3a   (alpha)     2a   (alpha)        0.0014039985
     8a   (alpha)    20a   (alpha) ---     3a   (alpha)     4a   (alpha)       -0.0036494843
     8a   (alpha)    20a   (alpha) ---     4a   (alpha)     3a   (alpha)        0.0036494843
     8a   (alpha)    21a   (alpha) ---     2a   (alpha)     4a   (alpha)        0.0008317321
     8a   (alpha)    21a   (alpha) ---     4a   (alpha)     2a   (alpha)       -0.0008317321
     8a   (alpha)    22a   (alpha) ---     2a   (alpha)     5a   (alpha)       -0.0026589059
     8a   (alpha)    22a   (alpha) ---     4a   (alpha)     5a   (alpha)       -0.0025016237
     8a   (alpha)    22a   (alpha) ---     5a   (alpha)     2a   (alpha)        0.0026589059
     8a   (alpha)    22a   (alpha) ---     5a   (alpha)     4a   (alpha)        0.0025016237
     8a   (alpha)    23a   (alpha) ---     2a   (alpha)     4a   (alpha)        0.0027260606
     8a   (alpha)    23a   (alpha) ---     4a   (alpha)     2a   (alpha)       -0.0027260606
     9a   (alpha)     6a   (alpha) ---     2a   (alpha)     5a   (alpha)       -0.0025623219
     9a   (alpha)     6a   (alpha) ---     4a   (alpha)     5a   (alpha)       -0.0025457412
     9a   (alpha)     6a   (alpha) ---     5a   (alpha)     2a   (alpha)        0.0025623219
     9a   (alpha)     6a   (alpha) ---     5a   (alpha)     4a   (alpha)        0.0025457412
     9a   (alpha)     7a   (alpha) ---     3a   (alpha)     5a   (alpha)        0.0034710643
     9a   (alpha)     7a   (alpha) ---     5a   (alpha)     3a   (alpha)       -0.0034710643
     9a   (alpha)     8a   (alpha) ---     2a   (alpha)     5a   (alpha)        0.0021960205
     9a   (alpha)     8a   (alpha) ---     4a   (alpha)     5a   (alpha)        0.0081361142
     9a   (alpha)     8a   (alpha) ---     5a   (alpha)     2a   (alpha)       -0.0021960205
     9a   (alpha)     8a   (alpha) ---     5a   (alpha)     4a   (alpha)       -0.0081361142
     9a   (alpha)    10a   (alpha) ---     2a   (alpha)     5a   (alpha)        0.0041925114
     9a   (alpha)    10a   (alpha) ---     4a   (alpha)     5a   (alpha)       -0.0009125369
     9a   (alpha)    10a   (alpha) ---     5a   (alpha)     2a   (alpha)       -0.0041925114
     9a   (alpha)    10a   (alpha) ---     5a   (alpha)     4a   (alpha)        0.0009125369
     9a   (alpha)    11a   (alpha) ---     3a   (alpha)     5a   (alpha)        0.0064888971
     9a   (alpha)    11a   (alpha) ---     5a   (alpha)     3a   (alpha)       -0.0064888971
     9a   (alpha)    12a   (alpha) ---     3a   (alpha)     5a   (alpha)        0.0066892881
     9a   (alpha)    12a   (alpha) ---     5a   (alpha)     3a   (alpha)       -0.0066892881
     9a   (alpha)    13a   (alpha) ---     2a   (alpha)     5a   (alpha)       -0.0000833483
     9a   (alpha)    13a   (alpha) ---     4a   (alpha)     5a   (alpha)       -0.0036264504
     9a   (alpha)    13a   (alpha) ---     5a   (alpha)     2a   (alpha)        0.0000833483
     9a   (alpha)    13a   (alpha) ---     5a   (alpha)     4a   (alpha)        0.0036264504
     9a   (alpha)    14a   (alpha) ---     2a   (alpha)     3a   (alpha)       -0.0005882916
     9a   (alpha)    14a   (alpha) ---     3a   (alpha)     2a   (alpha)        0.0005882916
     9a   (alpha)    14a   (alpha) ---     3a   (alpha)     4a   (alpha)       -0.0000713650
     9a   (alpha)    14a   (alpha) ---     4a   (alpha)     3a   (alpha)        0.0000713650
     9a   (alpha)    15a   (alpha) ---     2a   (alpha)     5a   (alpha)        0.0000048668
     9a   (alpha)    15a   (alpha) ---     4a   (alpha)     5a   (alpha)       -0.0074853927
     9a   (alpha)    15a   (alpha) ---     5a   (alpha)     2a   (alpha)       -0.0000048668
     9a   (alpha)    15a   (alpha) ---     5a   (alpha)     4a   (alpha)        0.0074853927
     9a   (alpha)    16a   (alpha) ---     2a   (alpha)     4a   (alpha)        0.0006042481
     9a   (alpha)    16a   (alpha) ---     4a   (alpha)     2a   (alpha)       -0.0006042481
     9a   (alpha)    17a   (alpha) ---     3a   (alpha)     5a   (alpha)        0.0025718871
     9a   (alpha)    17a   (alpha) ---     5a   (alpha)     3a   (alpha)       -0.0025718871
     9a   (alpha)    18a   (alpha) ---     2a   (alpha)     5a   (alpha)       -0.0047996517
     9a   (alpha)    18a   (alpha) ---     4a   (alpha)     5a   (alpha)       -0.0031643292
     9a   (alpha)    18a   (alpha) ---     5a   (alpha)     2a   (alpha)        0.0047996517
     9a   (alpha)    18a   (alpha) ---     5a   (alpha)     4a   (alpha)        0.0031643292
     9a   (alpha)    19a   (alpha) ---     3a   (alpha)     5a   (alpha)       -0.0075223714
     9a   (alpha)    19a   (alpha) ---     5a   (alpha)     3a   (alpha)        0.0075223714
     9a   (alpha)    20a   (alpha) ---     3a   (alpha)     5a   (alpha)       -0.0030626861
     9a   (alpha)    20a   (alpha) ---     5a   (alpha)     3a   (alpha)        0.0030626861
     9a   (alpha)    21a   (alpha) ---     2a   (alpha)     5a   (alpha)       -0.0014334555
     9a   (alpha)    21a   (alpha) ---     4a   (alpha)     5a   (alpha)        0.0012314052
     9a   (alpha)    21a   (alpha) ---     5a   (alpha)     2a   (alpha)        0.0014334555
     9a   (alpha)    21a   (alpha) ---     5a   (alpha)     4a   (alpha)       -0.0012314052
     9a   (alpha)    22a   (alpha) ---     2a   (alpha)     4a   (alpha)       -0.0017233531
     9a   (alpha)    22a   (alpha) ---     4a   (alpha)     2a   (alpha)        0.0017233531
     9a   (alpha)    23a   (alpha) ---     2a   (alpha)     5a   (alpha)       -0.0008234022
     9a   (alpha)    23a   (alpha) ---     4a   (alpha)     5a   (alpha)       -0.0030444457
     9a   (alpha)    23a   (alpha) ---     5a   (alpha)     2a   (alpha)        0.0008234022
     9a   (alpha)    23a   (alpha) ---     5a   (alpha)     4a   (alpha)        0.0030444457
    10a   (alpha)     6a   (alpha) ---     2a   (alpha)     4a   (alpha)        0.0013962758
    10a   (alpha)     6a   (alpha) ---     4a   (alpha)     2a   (alpha)       -0.0013962758
    10a   (alpha)     7a   (alpha) ---     2a   (alpha)     3a   (alpha)       -0.0016566711
    10a   (alpha)     7a   (alpha) ---     3a   (alpha)     2a   (alpha)        0.0016566711
    10a   (alpha)     7a   (alpha) ---     3a   (alpha)     4a   (alpha)       -0.0005440330
    10a   (alpha)     7a   (alpha) ---     4a   (alpha)     3a   (alpha)        0.0005440330
    10a   (alpha)     8a   (alpha) ---     2a   (alpha)     4a   (alpha)       -0.0038983382
    10a   (alpha)     8a   (alpha) ---     4a   (alpha)     2a   (alpha)        0.0038983382
    10a   (alpha)     9a   (alpha) ---     2a   (alpha)     5a   (alpha)       -0.0041925114
    10a   (alpha)     9a   (alpha) ---     4a   (alpha)     5a   (alpha)        0.0009125369
    10a   (alpha)     9a   (alpha) ---     5a   (alpha)     2a   (alpha)        0.0041925114
    10a   (alpha)     9a   (alpha) ---     5a   (alpha)     4a   (alpha)       -0.0009125369
    10a   (alpha)    11a   (alpha) ---     2a   (alpha)     3a   (alpha)       -0.0032195376
    10a   (alpha)    11a   (alpha) ---     3a   (alpha)     2a   (alpha)        0.0032195376
    10a   (alpha)    11a   (alpha) ---     3a   (alpha)     4a   (alpha)       -0.0006785836
    10a   (alpha)    11a   (alpha) ---     4a   (alpha)     3a   (alpha)        0.0006785836
    10a   (alpha)    12a   (alpha) ---     2a   (alpha)     3a   (alpha)       -0.0029193132
    10a   (alpha)    12a   (alpha) ---     3a   (alpha)     2a   (alpha)        0.0029193132
    10a   (alpha)    12a   (alpha) ---     3a   (alpha)     4a   (alpha)       -0.0018111060
    10a   (alpha)    12a   (alpha) ---     4a   (alpha)     3a   (alpha)        0.0018111060
    10a   (alpha)    13a   (alpha) ---     2a   (alpha)     4a   (alpha)        0.0015018226
    10a   (alpha)    13a   (alpha) ---     4a   (alpha)     2a   (alpha)       -0.0015018226
    10a   (alpha)    14a   (alpha) ---     3a   (alpha)     5a   (alpha)        0.0025423481
    10a   (alpha)    14a   (alpha) ---     5a   (alpha)     3a   (alpha)       -0.0025423481
    10a   (alpha)    15a   (alpha) ---     2a   (alpha)     4a   (alpha)        0.0035071583
    10a   (alpha)    15a   (alpha) ---     4a   (alpha)     2a   (alpha)       -0.0035071583
    10a   (alpha)    16a   (alpha) ---     2a   (alpha)     5a   (alpha)       -0.0032520441
    10a   (alpha)    16a   (alpha) ---     4a   (alpha)     5a   (alpha)       -0.0010560391
    10a   (alpha)    16a   (alpha) ---     5a   (alpha)     2a   (alpha)        0.0032520441
    10a   (alpha)    16a   (alpha) ---     5a   (alpha)     4a   (alpha)        0.0010560391
    10a   (alpha)    17a   (alpha) ---     2a   (alpha)     3a   (alpha)       -0.0014815769
    10a   (alpha)    17a   (alpha) ---     3a   (alpha)     2a   (alpha)        0.0014815769
    10a   (alpha)    17a   (alpha) ---     3a   (alpha)     4a   (alpha)       -0.0000141935
    10a   (alpha)    17a   (alpha) ---     4a   (alpha)     3a   (alpha)        0.0000141935
    10a   (alpha)    18a   (alpha) ---     2a   (alpha)     4a   (alpha)        0.0017076767
    10a   (alpha)    18a   (alpha) ---     4a   (alpha)     2a   (alpha)       -0.0017076767
    10a   (alpha)    19a   (alpha) ---     2a   (alpha)     3a   (alpha)        0.0035282978
    10a   (alpha)    19a   (alpha) ---     3a   (alpha)     2a   (alpha)       -0.0035282978
    10a   (alpha)    19a   (alpha) ---     3a   (alpha)     4a   (alpha)        0.0007626825
    10a   (alpha)    19a   (alpha) ---     4a   (alpha)     3a   (alpha)       -0.0007626825
    10a   (alpha)    20a   (alpha) ---     2a   (alpha)     3a   (alpha)        0.0007387447
    10a   (alpha)    20a   (alpha) ---     3a   (alpha)     2a   (alpha)       -0.0007387447
    10a   (alpha)    20a   (alpha) ---     3a   (alpha)     4a   (alpha)        0.0012173758
    10a   (alpha)    20a   (alpha) ---     4a   (alpha)     3a   (alpha)       -0.0012173758
    10a   (alpha)    21a   (alpha) ---     2a   (alpha)     4a   (alpha)       -0.0000622067
    10a   (alpha)    21a   (alpha) ---     4a   (alpha)     2a   (alpha)        0.0000622067
    10a   (alpha)    22a   (alpha) ---     2a   (alpha)     5a   (alpha)       -0.0018951808
    10a   (alpha)    22a   (alpha) ---     4a   (alpha)     5a   (alpha)        0.0024897920
    10a   (alpha)    22a   (alpha) ---     5a   (alpha)     2a   (alpha)        0.0018951808
    10a   (alpha)    22a   (alpha) ---     5a   (alpha)     4a   (alpha)       -0.0024897920
    10a   (alpha)    23a   (alpha) ---     2a   (alpha)     4a   (alpha)        0.0016622998
    10a   (alpha)    23a   (alpha) ---     4a   (alpha)     2a   (alpha)       -0.0016622998
    11a   (alpha)     6a   (alpha) ---     2a   (alpha)     3a   (alpha)       -0.0017636477
    11a   (alpha)     6a   (alpha) ---     3a   (alpha)     2a   (alpha)        0.0017636477
    11a   (alpha)     6a   (alpha) ---     3a   (alpha)     4a   (alpha)        0.0015801062
    11a   (alpha)     6a   (alpha) ---     4a   (alpha)     3a   (alpha)       -0.0015801062
    11a   (alpha)     7a   (alpha) ---     2a   (alpha)     4a   (alpha)        0.0000478066
    11a   (alpha)     7a   (alpha) ---     4a   (alpha)     2a   (alpha)       -0.0000478066
    11a   (alpha)     8a   (alpha) ---     2a   (alpha)     3a   (alpha)        0.0014655179
    11a   (alpha)     8a   (alpha) ---     3a   (alpha)     2a   (alpha)       -0.0014655179
    11a   (alpha)     8a   (alpha) ---     3a   (alpha)     4a   (alpha)       -0.0051289096
    11a   (alpha)     8a   (alpha) ---     4a   (alpha)     3a   (alpha)        0.0051289096
    11a   (alpha)     9a   (alpha) ---     3a   (alpha)     5a   (alpha)       -0.0064888971
    11a   (alpha)     9a   (alpha) ---     5a   (alpha)     3a   (alpha)        0.0064888971
    11a   (alpha)    10a   (alpha) ---     2a   (alpha)     3a   (alpha)        0.0032195376
    11a   (alpha)    10a   (alpha) ---     3a   (alpha)     2a   (alpha)       -0.0032195376
    11a   (alpha)    10a   (alpha) ---     3a   (alpha)     4a   (alpha)        0.0006785836
    11a   (alpha)    10a   (alpha) ---     4a   (alpha)     3a   (alpha)       -0.0006785836
    11a   (alpha)    12a   (alpha) ---     2a   (alpha)     4a   (alpha)        0.0008423938
    11a   (alpha)    12a   (alpha) ---     4a   (alpha)     2a   (alpha)       -0.0008423938
    11a   (alpha)    13a   (alpha) ---     2a   (alpha)     3a   (alpha)       -0.0010996178
    11a   (alpha)    13a   (alpha) ---     3a   (alpha)     2a   (alpha)        0.0010996178
    11a   (alpha)    13a   (alpha) ---     3a   (alpha)     4a   (alpha)        0.0021801119
    11a   (alpha)    13a   (alpha) ---     4a   (alpha)     3a   (alpha)       -0.0021801119
    11a   (alpha)    14a   (alpha) ---     2a   (alpha)     5a   (alpha)       -0.0004276967
    11a   (alpha)    14a   (alpha) ---     4a   (alpha)     5a   (alpha)        0.0001013230
    11a   (alpha)    14a   (alpha) ---     5a   (alpha)     2a   (alpha)        0.0004276967
    11a   (alpha)    14a   (alpha) ---     5a   (alpha)     4a   (alpha)       -0.0001013230
    11a   (alpha)    15a   (alpha) ---     2a   (alpha)     3a   (alpha)       -0.0003431059
    11a   (alpha)    15a   (alpha) ---     3a   (alpha)     2a   (alpha)        0.0003431059
    11a   (alpha)    15a   (alpha) ---     3a   (alpha)     4a   (alpha)        0.0047230361
    11a   (alpha)    15a   (alpha) ---     4a   (alpha)     3a   (alpha)       -0.0047230361
    11a   (alpha)    16a   (alpha) ---     3a   (alpha)     5a   (alpha)       -0.0044544078
    11a   (alpha)    16a   (alpha) ---     5a   (alpha)     3a   (alpha)        0.0044544078
    11a   (alpha)    17a   (alpha) ---     2a   (alpha)     4a   (alpha)       -0.0001280118
    11a   (alpha)    17a   (alpha) ---     4a   (alpha)     2a   (alpha)        0.0001280118
    11a   (alpha)    18a   (alpha) ---     2a   (alpha)     3a   (alpha)       -0.0037234423
    11a   (alpha)    18a   (alpha) ---     3a   (alpha)     2a   (alpha)        0.0037234423
    11a   (alpha)    18a   (alpha) ---     3a   (alpha)     4a   (alpha)        0.0018744915
    11a   (alpha)    18a   (alpha) ---     4a   (alpha)     3a   (alpha)       -0.0018744915
    11a   (alpha)    19a   (alpha) ---     2a   (alpha)     4a   (alpha)       -0.0003108424
    11a   (alpha)    19a   (alpha) ---     4a   (alpha)     2a   (alpha)        0.0003108424
    11a   (alpha)    20a   (alpha) ---     2a   (alpha)     4a   (alpha)       -0.0018866062
    11a   (alpha)    20a   (alpha) ---     4a   (alpha)     2a   (alpha)        0.0018866062
    11a   (alpha)    21a   (alpha) ---     2a   (alpha)     3a   (alpha)        0.0019689244
    11a   (alpha)    21a   (alpha) ---     3a   (alpha)     2a   (alpha)       -0.0019689244
    11a   (alpha)    21a   (alpha) ---     3a   (alpha)     4a   (alpha)       -0.0003548831
    11a   (alpha)    21a   (alpha) ---     4a   (alpha)     3a   (alpha)        0.0003548831
    11a   (alpha)    22a   (alpha) ---     3a   (alpha)     5a   (alpha)       -0.0028859631
    11a   (alpha)    22a   (alpha) ---     5a   (alpha)     3a   (alpha)        0.0028859631
    11a   (alpha)    23a   (alpha) ---     2a   (alpha)     3a   (alpha)       -0.0009374879
    11a   (alpha)    23a   (alpha) ---     3a   (alpha)     2a   (alpha)        0.0009374879
    11a   (alpha)    23a   (alpha) ---     3a   (alpha)     4a   (alpha)        0.0023205897
    11a   (alpha)    23a   (alpha) ---     4a   (alpha)     3a   (alpha)       -0.0023205897
    12a   (alpha)     6a   (alpha) ---     2a   (alpha)     3a   (alpha)       -0.0013053251
    12a   (alpha)     6a   (alpha) ---     3a   (alpha)     2a   (alpha)        0.0013053251
    12a   (alpha)     6a   (alpha) ---     3a   (alpha)     4a   (alpha)        0.0015875577
    12a   (alpha)     6a   (alpha) ---     4a   (alpha)     3a   (alpha)       -0.0015875577
    12a   (alpha)     7a   (alpha) ---     2a   (alpha)     4a   (alpha)       -0.0004347186
    12a   (alpha)     7a   (alpha) ---     4a   (alpha)     2a   (alpha)        0.0004347186
    12a   (alpha)     8a   (alpha) ---     2a   (alpha)     3a   (alpha)        0.0005159221
    12a   (alpha)     8a   (alpha) ---     3a   (alpha)     2a   (alpha)       -0.0005159221
    12a   (alpha)     8a   (alpha) ---     3a   (alpha)     4a   (alpha)       -0.0058895890
    12a   (alpha)     8a   (alpha) ---     4a   (alpha)     3a   (alpha)        0.0058895890
    12a   (alpha)     9a   (alpha) ---     3a   (alpha)     5a   (alpha)       -0.0066892881
    12a   (alpha)     9a   (alpha) ---     5a   (alpha)     3a   (alpha)        0.0066892881
    12a   (alpha)    10a   (alpha) ---     2a   (alpha)     3a   (alpha)        0.0029193132
    12a   (alpha)    10a   (alpha) ---     3a   (alpha)     2a   (alpha)       -0.0029193132
    12a   (alpha)    10a   (alpha) ---     3a   (alpha)     4a   (alpha)        0.0018111060
    12a   (alpha)    10a   (alpha) ---     4a   (alpha)     3a   (alpha)       -0.0018111060
    12a   (alpha)    11a   (alpha) ---     2a   (alpha)     4a   (alpha)       -0.0008423938
    12a   (alpha)    11a   (alpha) ---     4a   (alpha)     2a   (alpha)        0.0008423938
    12a   (alpha)    13a   (alpha) ---     2a   (alpha)     3a   (alpha)       -0.0001729303
    12a   (alpha)    13a   (alpha) ---     3a   (alpha)     2a   (alpha)        0.0001729303
    12a   (alpha)    13a   (alpha) ---     3a   (alpha)     4a   (alpha)       -0.0038208587
    12a   (alpha)    13a   (alpha) ---     4a   (alpha)     3a   (alpha)        0.0038208587
    12a   (alpha)    14a   (alpha) ---     2a   (alpha)     5a   (alpha)        0.0002284101
    12a   (alpha)    14a   (alpha) ---     4a   (alpha)     5a   (alpha)        0.0043376948
    12a   (alpha)    14a   (alpha) ---     5a   (alpha)     2a   (alpha)       -0.0002284101
    12a   (alpha)    14a   (alpha) ---     5a   (alpha)     4a   (alpha)       -0.0043376948
    12a   (alpha)    15a   (alpha) ---     2a   (alpha)     3a   (alpha)        0.0001693520
    12a   (alpha)    15a   (alpha) ---     3a   (alpha)     2a   (alpha)       -0.0001693520
    12a   (alpha)    15a   (alpha) ---     3a   (alpha)     4a   (alpha)        0.0091763021
    12a   (alpha)    15a   (alpha) ---     4a   (alpha)     3a   (alpha)       -0.0091763021
    12a   (alpha)    16a   (alpha) ---     3a   (alpha)     5a   (alpha)       -0.0083273159
    12a   (alpha)    16a   (alpha) ---     5a   (alpha)     3a   (alpha)        0.0083273159
    12a   (alpha)    17a   (alpha) ---     2a   (alpha)     4a   (alpha)        0.0001953742
    12a   (alpha)    17a   (alpha) ---     4a   (alpha)     2a   (alpha)       -0.0001953742
    12a   (alpha)    18a   (alpha) ---     2a   (alpha)     3a   (alpha)       -0.0036240513
    12a   (alpha)    18a   (alpha) ---     3a   (alpha)     2a   (alpha)        0.0036240513
    12a   (alpha)    18a   (alpha) ---     3a   (alpha)     4a   (alpha)        0.0009459272
    12a   (alpha)    18a   (alpha) ---     4a   (alpha)     3a   (alpha)       -0.0009459272
    12a   (alpha)    19a   (alpha) ---     2a   (alpha)     4a   (alpha)        0.0001229228
    12a   (alpha)    19a   (alpha) ---     4a   (alpha)     2a   (alpha)       -0.0001229228
    12a   (alpha)    20a   (alpha) ---     2a   (alpha)     4a   (alpha)       -0.0023114300
    12a   (alpha)    20a   (alpha) ---     4a   (alpha)     2a   (alpha)        0.0023114300
    12a   (alpha)    21a   (alpha) ---     2a   (alpha)     3a   (alpha)        0.0015257632
    12a   (alpha)    21a   (alpha) ---     3a   (alpha)     2a   (alpha)       -0.0015257632
    12a   (alpha)    21a   (alpha) ---     3a   (alpha)     4a   (alpha)        0.0040437423
    12a   (alpha)    21a   (alpha) ---     4a   (alpha)     3a   (alpha)       -0.0040437423
    12a   (alpha)    22a   (alpha) ---     3a   (alpha)     5a   (alpha)        0.0018838929
    12a   (alpha)    22a   (alpha) ---     5a   (alpha)     3a   (alpha)       -0.0018838929
    12a   (alpha)    23a   (alpha) ---     2a   (alpha)     3a   (alpha)        0.0001618047
    12a   (alpha)    23a   (alpha) ---     3a   (alpha)     2a   (alpha)       -0.0001618047
    12a   (alpha)    23a   (alpha) ---     3a   (alpha)     4a   (alpha)       -0.0060362581
    12a   (alpha)    23a   (alpha) ---     4a   (alpha)     3a   (alpha)        0.0060362581
    13a   (alpha)     6a   (alpha) ---     2a   (alpha)     4a   (alpha)        0.0008432664
    13a   (alpha)     6a   (alpha) ---     4a   (alpha)     2a   (alpha)       -0.0008432664
    13a   (alpha)     7a   (alpha) ---     2a   (alpha)     3a   (alpha)        0.0005460726
    13a   (alpha)     7a   (alpha) ---     3a   (alpha)     2a   (alpha)       -0.0005460726
    13a   (alpha)     7a   (alpha) ---     3a   (alpha)     4a   (alpha)       -0.0004384443
    13a   (alpha)     7a   (alpha) ---     4a   (alpha)     3a   (alpha)        0.0004384443
    13a   (alpha)     8a   (alpha) ---     2a   (alpha)     4a   (alpha)       -0.0004929255
    13a   (alpha)     8a   (alpha) ---     4a   (alpha)     2a   (alpha)        0.0004929255
    13a   (alpha)     9a   (alpha) ---     2a   (alpha)     5a   (alpha)        0.0000833483
    13a   (alpha)     9a   (alpha) ---     4a   (alpha)     5a   (alpha)        0.0036264504
    13a   (alpha)     9a   (alpha) ---     5a   (alpha)     2a   (alpha)       -0.0000833483
    13a   (alpha)     9a   (alpha) ---     5a   (alpha)     4a   (alpha)       -0.0036264504
    13a   (alpha)    10a   (alpha) ---     2a   (alpha)     4a   (alpha)       -0.0015018226
    13a   (alpha)    10a   (alpha) ---     4a   (alpha)     2a   (alpha)        0.0015018226
    13a   (alpha)    11a   (alpha) ---     2a   (alpha)     3a   (alpha)        0.0010996178
    13a   (alpha)    11a   (alpha) ---     3a   (alpha)     2a   (alpha)       -0.0010996178
    13a   (alpha)    11a   (alpha) ---     3a   (alpha)     4a   (alpha)       -0.0021801119
    13a   (alpha)    11a   (alpha) ---     4a   (alpha)     3a   (alpha)        0.0021801119
    13a   (alpha)    12a   (alpha) ---     2a   (alpha)     3a   (alpha)        0.0001729303
    13a   (alpha)    12a   (alpha) ---     3a   (alpha)     2a   (alpha)       -0.0001729303
    13a   (alpha)    12a   (alpha) ---     3a   (alpha)     4a   (alpha)        0.0038208587
    13a   (alpha)    12a   (alpha) ---     4a   (alpha)     3a   (alpha)       -0.0038208587
    13a   (alpha)    14a   (alpha) ---     3a   (alpha)     5a   (alpha)       -0.0052688050
    13a   (alpha)    14a   (alpha) ---     5a   (alpha)     3a   (alpha)        0.0052688050
    13a   (alpha)    15a   (alpha) ---     2a   (alpha)     4a   (alpha)       -0.0001093910
    13a   (alpha)    15a   (alpha) ---     4a   (alpha)     2a   (alpha)        0.0001093910
    13a   (alpha)    16a   (alpha) ---     2a   (alpha)     5a   (alpha)        0.0003059714
    13a   (alpha)    16a   (alpha) ---     4a   (alpha)     5a   (alpha)        0.0033342566
    13a   (alpha)    16a   (alpha) ---     5a   (alpha)     2a   (alpha)       -0.0003059714
    13a   (alpha)    16a   (alpha) ---     5a   (alpha)     4a   (alpha)       -0.0033342566
    13a   (alpha)    17a   (alpha) ---     2a   (alpha)     3a   (alpha)        0.0009989039
    13a   (alpha)    17a   (alpha) ---     3a   (alpha)     2a   (alpha)       -0.0009989039
    13a   (alpha)    17a   (alpha) ---     3a   (alpha)     4a   (alpha)       -0.0020303892
    13a   (alpha)    17a   (alpha) ---     4a   (alpha)     3a   (alpha)        0.0020303892
    13a   (alpha)    18a   (alpha) ---     2a   (alpha)     4a   (alpha)        0.0017352577
    13a   (alpha)    18a   (alpha) ---     4a   (alpha)     2a   (alpha)       -0.0017352577
    13a   (alpha)    19a   (alpha) ---     2a   (alpha)     3a   (alpha)       -0.0006570863
    13a   (alpha)    19a   (alpha) ---     3a   (alpha)     2a   (alpha)        0.0006570863
    13a   (alpha)    19a   (alpha) ---     3a   (alpha)     4a   (alpha)        0.0016224274
    13a   (alpha)    19a   (alpha) ---     4a   (alpha)     3a   (alpha)       -0.0016224274
    13a   (alpha)    20a   (alpha) ---     2a   (alpha)     3a   (alpha)        0.0012991392
    13a   (alpha)    20a   (alpha) ---     3a   (alpha)     2a   (alpha)       -0.0012991392
    13a   (alpha)    20a   (alpha) ---     3a   (alpha)     4a   (alpha)       -0.0059867445
    13a   (alpha)    20a   (alpha) ---     4a   (alpha)     3a   (alpha)        0.0059867445
    13a   (alpha)    21a   (alpha) ---     2a   (alpha)     4a   (alpha)       -0.0003443356
    13a   (alpha)    21a   (alpha) ---     4a   (alpha)     2a   (alpha)        0.0003443356
    13a   (alpha)    22a   (alpha) ---     2a   (alpha)     5a   (alpha)        0.0008040436
    13a   (alpha)    22a   (alpha) ---     4a   (alpha)     5a   (alpha)        0.0003300427
    13a   (alpha)    22a   (alpha) ---     5a   (alpha)     2a   (alpha)       -0.0008040436
    13a   (alpha)    22a   (alpha) ---     5a   (alpha)     4a   (alpha)       -0.0003300427
    13a   (alpha)    23a   (alpha) ---     2a   (alpha)     4a   (alpha)       -0.0006356920
    13a   (alpha)    23a   (alpha) ---     4a   (alpha)     2a   (alpha)        0.0006356920
    14a   (alpha)     6a   (alpha) ---     3a   (alpha)     5a   (alpha)        0.0006583778
    14a   (alpha)     6a   (alpha) ---     5a   (alpha)     3a   (alpha)       -0.0006583778
    14a   (alpha)     7a   (alpha) ---     2a   (alpha)     5a   (alpha)        0.0002554475
    14a   (alpha)     7a   (alpha) ---     4a   (alpha)     5a   (alpha)       -0.0005505120
    14a   (alpha)     7a   (alpha) ---     5a   (alpha)     2a   (alpha)       -0.0002554475
    14a   (alpha)     7a   (alpha) ---     5a   (alpha)     4a   (alpha)        0.0005505120
    14a   (alpha)     8a   (alpha) ---     3a   (alpha)     5a   (alpha)       -0.0001492351
    14a   (alpha)     8a   (alpha) ---     5a   (alpha)     3a   (alpha)        0.0001492351
    14a   (alpha)     9a   (alpha) ---     2a   (alpha)     3a   (alpha)        0.0005882916
    14a   (alpha)     9a   (alpha) ---     3a   (alpha)     2a   (alpha)       -0.0005882916
    14a   (alpha)     9a   (alpha) ---     3a   (alpha)     4a   (alpha)        0.0000713650
    14a   (alpha)     9a   (alpha) ---     4a   (alpha)     3a   (alpha)       -0.0000713650
    14a   (alpha)    10a   (alpha) ---     3a   (alpha)     5a   (alpha)       -0.0025423481
    14a   (alpha)    10a   (alpha) ---     5a   (alpha)     3a   (alpha)        0.0025423481
    14a   (alpha)    11a   (alpha) ---     2a   (alpha)     5a   (alpha)        0.0004276967
    14a   (alpha)    11a   (alpha) ---     4a   (alpha)     5a   (alpha)       -0.0001013230
    14a   (alpha)    11a   (alpha) ---     5a   (alpha)     2a   (alpha)       -0.0004276967
    14a   (alpha)    11a   (alpha) ---     5a   (alpha)     4a   (alpha)        0.0001013230
    14a   (alpha)    12a   (alpha) ---     2a   (alpha)     5a   (alpha)       -0.0002284101
    14a   (alpha)    12a   (alpha) ---     4a   (alpha)     5a   (alpha)       -0.0043376948
    14a   (alpha)    12a   (alpha) ---     5a   (alpha)     2a   (alpha)        0.0002284101
    14a   (alpha)    12a   (alpha) ---     5a   (alpha)     4a   (alpha)        0.0043376948
    14a   (alpha)    13a   (alpha) ---     3a   (alpha)     5a   (alpha)        0.0052688050
    14a   (alpha)    13a   (alpha) ---     5a   (alpha)     3a   (alpha)       -0.0052688050
    14a   (alpha)    15a   (alpha) ---     3a   (alpha)     5a   (alpha)        0.0016638978
    14a   (alpha)    15a   (alpha) ---     5a   (alpha)     3a   (alpha)       -0.0016638978
    14a   (alpha)    16a   (alpha) ---     2a   (alpha)     3a   (alpha)        0.0002176120
    14a   (alpha)    16a   (alpha) ---     3a   (alpha)     2a   (alpha)       -0.0002176120
    14a   (alpha)    16a   (alpha) ---     3a   (alpha)     4a   (alpha)        0.0020390161
    14a   (alpha)    16a   (alpha) ---     4a   (alpha)     3a   (alpha)       -0.0020390161
    14a   (alpha)    17a   (alpha) ---     2a   (alpha)     5a   (alpha)       -0.0000755075
    14a   (alpha)    17a   (alpha) ---     4a   (alpha)     5a   (alpha)        0.0003300128
    14a   (alpha)    17a   (alpha) ---     5a   (alpha)     2a   (alpha)        0.0000755075
    14a   (alpha)    17a   (alpha) ---     5a   (alpha)     4a   (alpha)       -0.0003300128
    14a   (alpha)    18a   (alpha) ---     3a   (alpha)     5a   (alpha)        0.0013943776
    14a   (alpha)    18a   (alpha) ---     5a   (alpha)     3a   (alpha)       -0.0013943776
    14a   (alpha)    19a   (alpha) ---     2a   (alpha)     5a   (alpha)       -0.0003222040
    14a   (alpha)    19a   (alpha) ---     4a   (alpha)     5a   (alpha)        0.0006911074
    14a   (alpha)    19a   (alpha) ---     5a   (alpha)     2a   (alpha)        0.0003222040
    14a   (alpha)    19a   (alpha) ---     5a   (alpha)     4a   (alpha)       -0.0006911074
    14a   (alpha)    20a   (alpha) ---     2a   (alpha)     5a   (alpha)        0.0009952825
    14a   (alpha)    20a   (alpha) ---     4a   (alpha)     5a   (alpha)        0.0050502574
    14a   (alpha)    20a   (alpha) ---     5a   (alpha)     2a   (alpha)       -0.0009952825
    14a   (alpha)    20a   (alpha) ---     5a   (alpha)     4a   (alpha)       -0.0050502574
    14a   (alpha)    21a   (alpha) ---     3a   (alpha)     5a   (alpha)       -0.0081760561
    14a   (alpha)    21a   (alpha) ---     5a   (alpha)     3a   (alpha)        0.0081760561
    14a   (alpha)    22a   (alpha) ---     2a   (alpha)     3a   (alpha)        0.0007153272
    14a   (alpha)    22a   (alpha) ---     3a   (alpha)     2a   (alpha)       -0.0007153272
    14a   (alpha)    22a   (alpha) ---     3a   (alpha)     4a   (alpha)       -0.0029700696
    14a   (alpha)    22a   (alpha) ---     4a   (alpha)     3a   (alpha)        0.0029700696
    14a   (alpha)    23a   (alpha) ---     3a   (alpha)     5a   (alpha)        0.0007776324
    14a   (alpha)    23a   (alpha) ---     5a   (alpha)     3a   (alpha)       -0.0007776324
    15a   (alpha)     6a   (alpha) ---     2a   (alpha)     4a   (alpha)        0.0015111138
    15a   (alpha)     6a   (alpha) ---     4a   (alpha)     2a   (alpha)       -0.0015111138
    15a   (alpha)     7a   (alpha) ---     2a   (alpha)     3a   (alpha)        0.0001229358
    15a   (alpha)     7a   (alpha) ---     3a   (alpha)     2a   (alpha)       -0.0001229358
    15a   (alpha)     7a   (alpha) ---     3a   (alpha)     4a   (alpha)       -0.0029178504
    15a   (alpha)     7a   (alpha) ---     4a   (alpha)     3a   (alpha)        0.0029178504
    15a   (alpha)     8a   (alpha) ---     2a   (alpha)     4a   (alpha)       -0.0005955464
    15a   (alpha)     8a   (alpha) ---     4a   (alpha)     2a   (alpha)        0.0005955464
    15a   (alpha)     9a   (alpha) ---     2a   (alpha)     5a   (alpha)       -0.0000048668
    15a   (alpha)     9a   (alpha) ---     4a   (alpha)     5a   (alpha)        0.0074853927
    15a   (alpha)     9a   (alpha) ---     5a   (alpha)     2a   (alpha)        0.0000048668
    15a   (alpha)     9a   (alpha) ---     5a   (alpha)     4a   (alpha)       -0.0074853927
    15a   (alpha)    10a   (alpha) ---     2a   (alpha)     4a   (alpha)       -0.0035071583
    15a   (alpha)    10a   (alpha) ---     4a   (alpha)     2a   (alpha)        0.0035071583
    15a   (alpha)    11a   (alpha) ---     2a   (alpha)     3a   (alpha)        0.0003431059
    15a   (alpha)    11a   (alpha) ---     3a   (alpha)     2a   (alpha)       -0.0003431059
    15a   (alpha)    11a   (alpha) ---     3a   (alpha)     4a   (alpha)       -0.0047230361
    15a   (alpha)    11a   (alpha) ---     4a   (alpha)     3a   (alpha)        0.0047230361
    15a   (alpha)    12a   (alpha) ---     2a   (alpha)     3a   (alpha)       -0.0001693520
    15a   (alpha)    12a   (alpha) ---     3a   (alpha)     2a   (alpha)        0.0001693520
    15a   (alpha)    12a   (alpha) ---     3a   (alpha)     4a   (alpha)       -0.0091763021
    15a   (alpha)    12a   (alpha) ---     4a   (alpha)     3a   (alpha)        0.0091763021
    15a   (alpha)    13a   (alpha) ---     2a   (alpha)     4a   (alpha)        0.0001093910
    15a   (alpha)    13a   (alpha) ---     4a   (alpha)     2a   (alpha)       -0.0001093910
    15a   (alpha)    14a   (alpha) ---     3a   (alpha)     5a   (alpha)       -0.0016638978
    15a   (alpha)    14a   (alpha) ---     5a   (alpha)     3a   (alpha)        0.0016638978
    15a   (alpha)    16a   (alpha) ---     2a   (alpha)     5a   (alpha)        0.0002823734
    15a   (alpha)    16a   (alpha) ---     4a   (alpha)     5a   (alpha)        0.0098260331
    15a   (alpha)    16a   (alpha) ---     5a   (alpha)     2a   (alpha)       -0.0002823734
    15a   (alpha)    16a   (alpha) ---     5a   (alpha)     4a   (alpha)       -0.0098260331
    15a   (alpha)    17a   (alpha) ---     2a   (alpha)     3a   (alpha)        0.0000820591
    15a   (alpha)    17a   (alpha) ---     3a   (alpha)     2a   (alpha)       -0.0000820591
    15a   (alpha)    17a   (alpha) ---     3a   (alpha)     4a   (alpha)       -0.0014408246
    15a   (alpha)    17a   (alpha) ---     4a   (alpha)     3a   (alpha)        0.0014408246
    15a   (alpha)    18a   (alpha) ---     2a   (alpha)     4a   (alpha)        0.0037233896
    15a   (alpha)    18a   (alpha) ---     4a   (alpha)     2a   (alpha)       -0.0037233896
    15a   (alpha)    19a   (alpha) ---     2a   (alpha)     3a   (alpha)       -0.0001420538
    15a   (alpha)    19a   (alpha) ---     3a   (alpha)     2a   (alpha)        0.0001420538
    15a   (alpha)    19a   (alpha) ---     3a   (alpha)     4a   (alpha)        0.0066564679
    15a   (alpha)    19a   (alpha) ---     4a   (alpha)     3a   (alpha)       -0.0066564679
    15a   (alpha)    20a   (alpha) ---     2a   (alpha)     3a   (alpha)        0.0013507258
    15a   (alpha)    20a   (alpha) ---     3a   (alpha)     2a   (alpha)       -0.0013507258
    15a   (alpha)    20a   (alpha) ---     3a   (alpha)     4a   (alpha)        0.0082759700
    15a   (alpha)    20a   (alpha) ---     4a   (alpha)     3a   (alpha)       -0.0082759700
    15a   (alpha)    21a   (alpha) ---     2a   (alpha)     4a   (alpha)       -0.0011249356
    15a   (alpha)    21a   (alpha) ---     4a   (alpha)     2a   (alpha)        0.0011249356
    15a   (alpha)    22a   (alpha) ---     2a   (alpha)     5a   (alpha)        0.0009406591
    15a   (alpha)    22a   (alpha) ---     4a   (alpha)     5a   (alpha)       -0.0037629433
    15a   (alpha)    22a   (alpha) ---     5a   (alpha)     2a   (alpha)       -0.0009406591
    15a   (alpha)    22a   (alpha) ---     5a   (alpha)     4a   (alpha)        0.0037629433
    15a   (alpha)    23a   (alpha) ---     2a   (alpha)     4a   (alpha)       -0.0021599145
    15a   (alpha)    23a   (alpha) ---     4a   (alpha)     2a   (alpha)        0.0021599145
    16a   (alpha)     6a   (alpha) ---     2a   (alpha)     5a   (alpha)       -0.0015525215
    16a   (alpha)     6a   (alpha) ---     4a   (alpha)     5a   (alpha)       -0.0022607496
[...]
   25          0.0001527373019     0.4     0.5
 MICROCYCLE DIIS UPDATE:                   25                    5
   26          0.0000671151211     0.5     0.5
   27          0.0000460578581     0.4     0.5
   28          0.0000387243139     0.4     0.5
   29          0.0000336431110     0.5     0.5
   30          0.0000296729043     0.4     0.5
 MICROCYCLE DIIS UPDATE:                   30                    5
   31          0.0000110739605     0.4     0.5
   32          0.0000088074467     0.4     0.5
   33          0.0000077011578     0.4     0.5
   34          0.0000068465987     0.4     0.5
   35          0.0000061486339     0.5     0.5
 MICROCYCLE DIIS UPDATE:                   35                    5
   36          0.0000026816459     0.4     0.5
   37          0.0000020035590     0.4     0.5
   38          0.0000016879666     0.5     0.5
   39          0.0000014642818     0.4     0.5
   40          0.0000012891076     0.4     0.5
 MICROCYCLE DIIS UPDATE:                   40                    5
   41          0.0000004016619     0.5     0.5
   42          0.0000002788360     0.5     0.5
   43          0.0000002472375     0.5     0.5
   44          0.0000002210141     0.4     0.5
   45          0.0000001992153     0.5     0.5
 MICROCYCLE DIIS UPDATE:                   45                    5
   46          0.0000000808351     0.4     0.5
 ---------------------------------------------
 Iterations converged
 Saving T1(1) now...
     tr1_restart_save filename: ./tce_save_h2o.temp.tr1_1_copy                                                  
                                                        tr1_restart_save finished
 Saving T2(1) now...
     tr2_restart_save filename: ./tce_save_h2o.temp.tr2_1_copy                                                  
                                                        tr2_restart_save finished

 Frequency =      -0.2000000 / au

 CCSD-LR iterations
 ---------------------------------------------
 Iter          Residuum            Cpu    Wall
 ---------------------------------------------
    1          0.0817219982266     0.4     0.5
    2          0.1911339323300     0.4     0.5
    3          0.1348612809762     0.5     0.5
    4          0.1685343300662     0.4     0.5
    5          0.1990379000651     0.5     0.5
 MICROCYCLE DIIS UPDATE:                    5                    5
    6          0.0038669591337     0.5     0.5
    7          0.0015968562479     0.5     0.5
    8          0.0012035576281     0.5     0.5
    9          0.0010232236326     0.4     0.5
   10          0.0010068783072     0.5     0.5
 MICROCYCLE DIIS UPDATE:                   10                    5
   11          0.0000321452871     0.5     0.5
   12          0.0000273173131     0.5     0.5
   13          0.0000245368775     0.4     0.5
   14          0.0000298554931     0.4     0.5
   15          0.0000358352476     0.4     0.5
 MICROCYCLE DIIS UPDATE:                   15                    5
   16          0.0000006451442     0.5     0.5
   17          0.0000002768869     0.5     0.5
   18          0.0000002007232     0.5     0.5
   19          0.0000001635438     0.5     0.5
   20          0.0000001450888     0.5     0.5
 MICROCYCLE DIIS UPDATE:                   20                    5
   21          0.0000000047234     0.5     0.5
 ---------------------------------------------
 Iterations converged
 Saving T1(1) now...
     tr1_restart_save filename: ./tce_save_h2o.temp.tr1_4_copy                                                  
                                                        tr1_restart_save finished
 Saving T2(1) now...
     tr2_restart_save filename: ./tce_save_h2o.temp.tr2_4_copy                                                  
                                                        tr2_restart_save finished

 Y   axis ( a   symmetry)

 Frequency =       0.2000000 / au

 CCSD-LR iterations
 ---------------------------------------------
 Iter          Residuum            Cpu    Wall
 ---------------------------------------------
    1          0.1150598267000     0.5     0.5
    2          0.1412334017667     0.5     0.5
    3          0.1036397867914     0.5     0.5
    4          0.0744208325267     0.5     0.5
    5          0.0533022306292     0.5     0.5
 MICROCYCLE DIIS UPDATE:                    5                    5
    6          0.0066918101782     0.5     0.5
    7          0.0041342680021     0.5     0.5
    8          0.0030141650835     0.5     0.5
    9          0.0022880252769     0.5     0.5
   10          0.0017542189382     0.5     0.5
 MICROCYCLE DIIS UPDATE:                   10                    5
   11          0.0001980065955     0.5     0.5
   12          0.0000998851408     0.5     0.5
   13          0.0000657485463     0.5     0.5
   14          0.0000452309685     0.5     0.5
   15          0.0000318074744     0.5     0.5
 MICROCYCLE DIIS UPDATE:                   15                    5
   16          0.0000071467947     0.5     0.5
   17          0.0000042624699     0.4     0.5
   18          0.0000030390991     0.5     0.5
   19          0.0000022628640     0.5     0.5
   20          0.0000017137689     0.5     0.5
 MICROCYCLE DIIS UPDATE:                   20                    5
   21          0.0000002833674     0.5     0.5
   22          0.0000001317637     0.5     0.5
   23          0.0000000857860     0.5     0.5
 ---------------------------------------------
 Iterations converged
 Saving T1(1) now...
     tr1_restart_save filename: ./tce_save_h2o.temp.tr1_2_copy                                                  
                                                        tr1_restart_save finished
 Saving T2(1) now...
     tr2_restart_save filename: ./tce_save_h2o.temp.tr2_2_copy                                                  
                                                        tr2_restart_save finished

 Frequency =      -0.2000000 / au

 CCSD-LR iterations
 ---------------------------------------------
 Iter          Residuum            Cpu    Wall
 ---------------------------------------------
    1          0.0826827775591     0.5     0.5
    2          0.1374293929592     0.5     0.5
    3          0.0558698220981     0.4     0.5
    4          0.0467530142896     0.5     0.5
    5          0.0357465293397     0.4     0.5
 MICROCYCLE DIIS UPDATE:                    5                    5
    6          0.0020920922874     0.5     0.5
    7          0.0009456653244     0.5     0.5
    8          0.0007750860796     0.5     0.5
    9          0.0007642006295     0.5     0.5
   10          0.0007906840164     0.5     0.5
 MICROCYCLE DIIS UPDATE:                   10                    5
   11          0.0000133886075     0.5     0.5
   12          0.0000072449417     0.5     0.5
   13          0.0000042918746     0.4     0.5
   14          0.0000035503129     0.4     0.5
   15          0.0000029873642     0.4     0.5
 MICROCYCLE DIIS UPDATE:                   15                    5
   16          0.0000001579898     0.5     0.5
   17          0.0000000771061     0.5     0.5
 ---------------------------------------------
 Iterations converged
 Saving T1(1) now...
     tr1_restart_save filename: ./tce_save_h2o.temp.tr1_5_copy                                                  
                                                        tr1_restart_save finished
 Saving T2(1) now...
     tr2_restart_save filename: ./tce_save_h2o.temp.tr2_5_copy                                                  
                                                        tr2_restart_save finished

 Z   axis ( a   symmetry)

 Frequency =       0.2000000 / au

 CCSD-LR iterations
 ---------------------------------------------
 Iter          Residuum            Cpu    Wall
 ---------------------------------------------
    1          0.1207883655646     0.5     0.5
    2          0.1648982208224     0.4     0.5
    3          0.1356085734683     0.4     0.5
    4          0.1109496038945     0.5     0.5
    5          0.0911885458446     0.5     0.5
 MICROCYCLE DIIS UPDATE:                    5                    5
    6          0.0173998880146     0.5     0.5
    7          0.0095831200045     0.4     0.5
    8          0.0067044766667     0.4     0.5
    9          0.0050804970083     0.5     0.5
   10          0.0039725534275     0.4     0.5
 MICROCYCLE DIIS UPDATE:                   10                    5
   11          0.0009800562772     0.5     0.5
   12          0.0006562398415     0.5     0.5
   13          0.0005102507906     0.5     0.5
   14          0.0004078418949     0.5     0.5
   15          0.0003303069595     0.5     0.5
 MICROCYCLE DIIS UPDATE:                   15                    5
   16          0.0000841751434     0.5     0.5
   17          0.0000524833492     0.4     0.5
   18          0.0000382197560     0.5     0.5
   19          0.0000291972798     0.4     0.5
   20          0.0000228251404     0.5     0.5
 MICROCYCLE DIIS UPDATE:                   20                    5
   21          0.0000056782526     0.4     0.5
   22          0.0000038066316     0.4     0.5
   23          0.0000030152791     0.5     0.5
   24          0.0000024195652     0.5     0.5
   25          0.0000019661520     0.4     0.5
 MICROCYCLE DIIS UPDATE:                   25                    5
   26          0.0000005248134     0.4     0.5
   27          0.0000003450063     0.4     0.5
   28          0.0000002538629     0.4     0.5
   29          0.0000001950356     0.4     0.5
   30          0.0000001531713     0.5     0.5
 MICROCYCLE DIIS UPDATE:                   30                    5
   31          0.0000000385698     0.5     0.5
 ---------------------------------------------
 Iterations converged
 Saving T1(1) now...
     tr1_restart_save filename: ./tce_save_h2o.temp.tr1_3_copy                                                  
                                                        tr1_restart_save finished
 Saving T2(1) now...
     tr2_restart_save filename: ./tce_save_h2o.temp.tr2_3_copy                                                  
                                                        tr2_restart_save finished

 Frequency =      -0.2000000 / au

 CCSD-LR iterations
 ---------------------------------------------
 Iter          Residuum            Cpu    Wall
 ---------------------------------------------
    1          0.0804308717213     0.5     0.5
    2          0.1557953016030     0.5     0.5
    3          0.0837178221934     0.4     0.5
    4          0.0875961362658     0.5     0.5
    5          0.0848123242867     0.4     0.5
 MICROCYCLE DIIS UPDATE:                    5                    5
    6          0.0029506943808     0.4     0.5
    7          0.0011456365779     0.4     0.5
    8          0.0007635210928     0.4     0.5
    9          0.0006240389938     0.5     0.5
   10          0.0005864853161     0.4     0.5
 MICROCYCLE DIIS UPDATE:                   10                    5
   11          0.0000176223566     0.5     0.5
   12          0.0000139633940     0.5     0.5
   13          0.0000096677926     0.5     0.5
   14          0.0000096813914     0.5     0.5
   15          0.0000094833891     0.5     0.5
 MICROCYCLE DIIS UPDATE:                   15                    5
   16          0.0000003064640     0.5     0.5
   17          0.0000001177384     0.4     0.5
   18          0.0000000784332     0.5     0.5
 ---------------------------------------------
 Iterations converged
 Saving T1(1) now...
     tr1_restart_save filename: ./tce_save_h2o.temp.tr1_6_copy                                                  
                                                        tr1_restart_save finished
 Saving T2(1) now...
     tr2_restart_save filename: ./tce_save_h2o.temp.tr2_6_copy                                                  
                                                        tr2_restart_save finished

 CCSD-LR dipole moments / hartree & Debye
 --------------------------------
 X       0.0000000      0.0000000
 Y      -0.0000000     -0.0000000
 Z      -0.7288015     -1.8524427
 --------------------------------

 CCSD Linear Response polarizability / au 
 Frequency  =      -0.2000000 / au
 Wavelength =    -227.8167650 / nm
 -------------------------------------------------------|-----------------------------------------------
                     atomic units (bohr^3)              |                   angstroms^3           
                  X              Y              Z       |             X              Y              Z
 -------------------------------------------------------|-----------------------------------------------
 X           11.8351855     -0.0000000     -0.0000000   |      1.7537939     -0.0000000     -0.0000000
 Y           -0.0000000     10.9933768     -0.0000000   |     -0.0000000      1.6290507     -0.0000000
 Z           -0.0000000     -0.0000000     10.5779974   |     -0.0000000     -0.0000000      1.5674978
 -------------------------------------------------------|-----------------------------------------------
 Eigs =      11.8351855     10.9933768     10.5779974   |      1.7537939      1.6290507      1.5674978
 Isotropic   =              11.1355199                  |                     1.6501142
 Anisotropic =               1.1094376                  |                     0.1644017
 -------------------------------------------------------|-----------------------------------------------
 Cpu & wall time / sec            7.3            7.4

 X   axis ( a   symmetry)

 Frequency =       0.3000000 / au

 CCSD-LR iterations
 ---------------------------------------------
 Iter          Residuum            Cpu    Wall
 ---------------------------------------------
    1          0.2861060177561     0.4     0.5
    2          0.4411654038491     0.5     0.5
    3          0.4847728539091     0.4     0.5
    4          0.5018341629100     0.5     0.5
    5          0.5153442971347     0.4     0.5
 MICROCYCLE DIIS UPDATE:                    5                    5
    6          0.2592519210252     0.5     0.5
    7          0.2508054638973     0.5     0.5
    8          0.2474267524055     0.4     0.5
    9          0.2404961377200     0.4     0.5
   10          0.2368817155928     0.5     0.5
 MICROCYCLE DIIS UPDATE:                   10                    5
   11          0.1290225424303     0.5     0.5
   12          0.1769683657016     0.5     0.5
   13          0.1905126127022     0.4     0.5
   14          0.1955314755717     0.5     0.5
   15          0.1996564882238     0.5     0.5
 MICROCYCLE DIIS UPDATE:                   15                    5
   16          0.1366103294154     0.5     0.5
   17          0.1539792812265     0.4     0.5
   18          0.1577236847039     0.5     0.5
   19          0.1576707701048     0.5     0.5
   20          0.1581546718106     0.5     0.5
 MICROCYCLE DIIS UPDATE:                   20                    5
   21          0.1040464276136     0.5     0.5
   22          0.1094128104331     0.5     0.5
   23          0.1129705577606     0.4     0.5
   24          0.1145503981086     0.5     0.5
   25          0.1161629811485     0.5     0.5
 MICROCYCLE DIIS UPDATE:                   25                    5
   26          0.0937556514269     0.4     0.5
   27          0.1019223644388     0.5     0.5
   28          0.1045006583698     0.5     0.5
   29          0.1051727507074     0.5     0.5
   30          0.1060151436206     0.4     0.5
 MICROCYCLE DIIS UPDATE:                   30                    5
   31          0.0707786636124     0.4     0.5
   32          0.0612560276473     0.4     0.5
   33          0.0604095754594     0.5     0.5
   34          0.0605397363950     0.5     0.5
   35          0.0611830840560     0.5     0.5
 MICROCYCLE DIIS UPDATE:                   35                    5
   36          0.0519733801068     0.5     0.5
   37          0.0552360260571     0.5     0.5
   38          0.0563343110778     0.4     0.5
   39          0.0566537579556     0.5     0.5
   40          0.0570776336655     0.4     0.5
 MICROCYCLE DIIS UPDATE:                   40                    5
   41          0.0333866051914     0.5     0.5
   42          0.0241483865495     0.4     0.5
   43          0.0218620465634     0.5     0.5
   44          0.0210689130021     0.5     0.5
   45          0.0208757738189     0.5     0.5
 MICROCYCLE DIIS UPDATE:                   45                    5
   46          0.0188096134973     0.5     0.5
   47          0.0195948128558     0.4     0.5
   48          0.0200460302910     0.5     0.5
   49          0.0202731936636     0.5     0.5
   50          0.0205282770412     0.5     0.5
 MICROCYCLE DIIS UPDATE:                   50                    5
   51          0.0130294143719     0.5     0.5
   52          0.0106513925575     0.5     0.5
   53          0.0099563428627     0.4     0.5
   54          0.0095797549026     0.5     0.5
   55          0.0093796404548     0.5     0.5
 MICROCYCLE DIIS UPDATE:                   55                    5
   56          0.0083960752160     0.5     0.5
   57          0.0087432409708     0.5     0.5
   58          0.0089770424202     0.5     0.5
   59          0.0091135891724     0.4     0.5
   60          0.0092582557312     0.5     0.5
 MICROCYCLE DIIS UPDATE:                   60                    5
   61          0.0061619308066     0.5     0.5
   62          0.0047440142814     0.5     0.5
   63          0.0044516480915     0.5     0.5
   64          0.0043365261271     0.4     0.5
   65          0.0043011606925     0.5     0.5
 MICROCYCLE DIIS UPDATE:                   65                    5
   66          0.0041243795839     0.5     0.5
   67          0.0040726915597     0.5     0.5
   68          0.0041100092263     0.4     0.5
   69          0.0041424278691     0.5     0.5
   70          0.0041917043899     0.5     0.5
 MICROCYCLE DIIS UPDATE:                   70                    5
   71          0.0035669963938     0.5     0.5
   72          0.0037010827466     0.4     0.5
   73          0.0038189155338     0.5     0.5
   74          0.0039347433294     0.5     0.5
   75          0.0040701324416     0.5     0.5
 MICROCYCLE DIIS UPDATE:                   75                    5
   76          0.0032874540074     0.5     0.5
   77          0.0033924975710     0.5     0.5
   78          0.0034610327558     0.5     0.5
   79          0.0035267376215     0.5     0.5
   80          0.0036059647982     0.5     0.5
 MICROCYCLE DIIS UPDATE:                   80                    5
   81          0.0030941574608     0.5     0.5
   82          0.0032002847643     0.5     0.5
   83          0.0032778562945     0.4     0.5
   84          0.0033551795722     0.5     0.5
   85          0.0034476625831     0.5     0.5
 MICROCYCLE DIIS UPDATE:                   85                    5
   86          0.0028275478488     0.5     0.5
   87          0.0029189802118     0.5     0.5
   88          0.0029841530615     0.4     0.5
   89          0.0030501518007     0.4     0.5
   90          0.0031311262768     0.5     0.5
 MICROCYCLE DIIS UPDATE:                   90                    5
   91          0.0026711755039     0.5     0.5
   92          0.0027539118751     0.5     0.5
   93          0.0028125371234     0.5     0.5
   94          0.0028698050812     0.4     0.5
   95          0.0029376801180     0.4     0.5
 MICROCYCLE DIIS UPDATE:                   95                    5
   96          0.0024135425838     0.5     0.5
   97          0.0024927241200     0.4     0.5
   98          0.0025561520475     0.5     0.5
   99          0.0026243335940     0.5     0.5
  100          0.0027095562404     0.5     0.5
 MICROCYCLE DIIS UPDATE:                  100                    5
 ------------------------------------------------------------------------
 ccsd_lr_iter: maxiter exceeded      101
 ------------------------------------------------------------------------
