 argument  1 = ptatom.nw
 


============================== echo of input deck ==============================
echo
start ptatom

memory global 40 mb stack 23 mb heap 5 mb

geometry units au
 symmetry oh
 Pt 0       0        0
end

BASIS "ao basis" PRINT
#BASIS SET: (8s,7p,6d) -> [6s,5p,3d]
Pt    S
     16.5595630             -0.8849447
     13.8924400              1.5011228
      5.8536080             -1.5529012
Pt    S
      1.2873200              1.0000000
Pt    S
      0.6047320              1.0000000
Pt    S
      0.1427830              1.0000000
Pt    S
      0.0509690              1.0000000
Pt    S
      0.0150000              1.0000000
Pt    P
      7.9251750              4.9530757
      7.3415380             -5.8982100
Pt    P
      1.9125150              0.3047425
      1.0715450              0.7164894
Pt    P
      0.4379170              1.0000000
Pt    P
      0.0936210              1.0000000
Pt    P
      0.0278020              1.0000000
Pt    D
      3.9395310             -0.5826439
      3.5877770              0.5922576
      1.2862310              0.4736921
      0.5198140              0.5765202
Pt    D
      0.1747150              1.0000000
Pt    D
      0.0500000              1.0000000
END
# ELEMENTS                      REFERENCES
#  ---------                       ----------
#


ECP
Pt nelec 60
Pt ul
2      1.000000000            0.000000000
Pt S
2     13.428651000          579.223861000
2      6.714326000           29.669491000
Pt P
2     10.365944000          280.860774000
2      5.182972000           26.745382000
Pt D
2      7.600479000          120.396444000
2      3.800240000           15.810921000
Pt F
2      3.309569000           24.314376000
Pt G
2      5.277289000          -24.218675000
END

dft
 max_ovl
 mult 3
 odft
 xc xpbe96 cpbe96
 iterations 1000
end

task dft
================================================================================


                                         
                                         
 
 
              Northwest Computational Chemistry Package (NWChem) 6.0
              ------------------------------------------------------
 
 
                    Environmental Molecular Sciences Laboratory
                       Pacific Northwest National Laboratory
                                Richland, WA 99352
 
                                         
                                         
 
 
                  COPYRIGHT (C) 1994, 1995, 1996, 1997, 1998, 1999,
                2000, 2001, 2002, 2003, 2004, 2005, 2006, 2007, 2008,
                                     2009, 2010
                        Pacific Northwest National Laboratory,
                             Battelle Memorial Institute.
 
                            >>> All Rights Reserved <<<
 
 
                                    DISCLAIMER
                                    ----------

            This material was prepared as an account of work sponsored
            by an agency of the United States Government.  Neither the
            United States Government nor the United States Department
            of Energy, nor Battelle, nor any of their employees, MAKES
            ANY WARRANTY, EXPRESS OR IMPLIED, OR ASSUMES ANY LEGAL
            LIABILITY OR RESPONSIBILITY FOR THE ACCURACY, COMPLETENESS,
            OR USEFULNESS OF ANY INFORMATION, APPARATUS, PRODUCT,
            SOFTWARE, OR PROCESS DISCLOSED, OR REPRESENTS THAT ITS USE
            WOULD NOT INFRINGE PRIVATELY OWNED RIGHTS.


                                    LIMITED USE
                                    -----------

            This software (including any documentation) is being made
            available to you for your internal use only, solely for use
            in performance of work directly for the U.S. Federal
            Government or work under contracts with the U.S. Department
            of Energy or other U.S. Federal Government agencies.  This
            software is a version which has not yet been evaluated and
            cleared for commercialization.  Adherence to this notice
            may be necessary for the author, Battelle Memorial
            Institute, to successfully assert copyright in and
            commercialize this software. This software is not intended
            for duplication or distribution to third parties without
            the permission of the Manager of Software Products at
            Pacific Northwest National Laboratory, Richland,
            Washington, 99352.


                                  ACKNOWLEDGMENT
                                  --------------

            This software and its documentation were produced with
            Government support under Contract Number DE-AC05-76RL01830
            awarded by the United States Department of Energy.  The
            Government retains a paid-up non-exclusive, irrevocable
            worldwide license to reproduce, prepare derivative works,
            perform publicly and display publicly by or for the
            Government, including the right to distribute to other
            Government contractors.


           Job information
           ---------------

    hostname      = curie
    program       = ../../../bin/LINUX64/nwchem
    date          = Mon Mar 15 14:58:29 2010

    compiled      = Fri_Mar_12_14:59:26_2010
    source        = /home/niri/nwchem/nwchem-6.0
    nwchem branch = 6.0
    input         = ptatom.nw
    prefix        = ptatom.
    data base     = ./ptatom.db
    status        = startup
    nproc         =        2
    time left     =     -1s



           Memory information
           ------------------

    heap      =     655361 doubles =      5.0 Mbytes
    stack     =    3014657 doubles =     23.0 Mbytes
    global    =    5242880 doubles =     40.0 Mbytes (distinct from heap & stack)
    total     =    8912898 doubles =     68.0 Mbytes
    verify    = yes
    hardfail  = no 


           Directory information
           ---------------------
 
  0 permanent = .
  0 scratch   = .
 
 
 
 
                                NWChem Input Module
                                -------------------
 
 
 
 
                             Geometry "geometry" -> ""
                             -------------------------
 
 Output coordinates in a.u. (scale by  1.000000000 to convert to a.u.)
 
  No.       Tag          Charge          X              Y              Z
 ---- ---------------- ---------- -------------- -------------- --------------
    1 Pt                  78.0000     0.00000000     0.00000000     0.00000000
 
      Atomic Mass 
      ----------- 
 
      Pt               194.964800
 

 Effective nuclear repulsion energy (a.u.)       0.0000000000

            Nuclear Dipole moment (a.u.) 
            ----------------------------
        X                 Y               Z
 ---------------- ---------------- ----------------
     0.0000000000     0.0000000000     0.0000000000
 
      Symmetry information
      --------------------
 
 Group name              Oh       
 Group number             44
 Group order              48
 No. of unique centers     1
 
      Symmetry unique atoms
 
     1
 
 
            XYZ format geometry
            -------------------
     1
 geometry
 Pt                    0.00000000     0.00000000     0.00000000
 
  library name resolved from: environment
  library file name is: </home/niri/nwchem/nwchem-6.0/src/basis/libraries/>
  
                      Basis "ao basis" -> "" (cartesian)
                      -----
  Pt (Platinum)
  -------------
            Exponent  Coefficients 
       -------------- ---------------------------------------------------------
  1 S  1.65595630E+01 -0.884945
  1 S  1.38924400E+01  1.501123
  1 S  5.85360800E+00 -1.552901
 
  2 S  1.28732000E+00  1.000000
 
  3 S  6.04732000E-01  1.000000
 
  4 S  1.42783000E-01  1.000000
 
  5 S  5.09690000E-02  1.000000
 
  6 S  1.50000000E-02  1.000000
 
  7 P  7.92517500E+00  4.953076
  7 P  7.34153800E+00 -5.898210
 
  8 P  1.91251500E+00  0.304742
  8 P  1.07154500E+00  0.716489
 
  9 P  4.37917000E-01  1.000000
 
 10 P  9.36210000E-02  1.000000
 
 11 P  2.78020000E-02  1.000000
 
 12 D  3.93953100E+00 -0.582644
 12 D  3.58777700E+00  0.592258
 12 D  1.28623100E+00  0.473692
 12 D  5.19814000E-01  0.576520
 
 13 D  1.74715000E-01  1.000000
 
 14 D  5.00000000E-02  1.000000
 


 Summary of "ao basis" -> "" (cartesian)
 ------------------------------------------------------------------------------
       Tag                 Description            Shells   Functions and Types
 ---------------- ------------------------------  ------  ---------------------
 Pt                      user specified             14       39   6s5p3d


  library name resolved from: environment
  library file name is: </home/niri/nwchem/nwchem-6.0/src/basis/libraries/>
  

 **** WARNING Zero Coefficient **** on atom "              Pt"
 angular momentum value:-1  standard basis set name: "user specified"
 input line that generated warning:
    57: 2      1.000000000            0.000000000
  
 Local ECP potential is zero and ignored
  
                 ECP       "ecp basis" -> "" (cartesian)
                -----
  Pt (Platinum) Replaces    60 electrons
  --------------------------------------
          R-exponent    Exponent     Coefficients 
         ------------ ---------------------------------------------------------
  1 U-s      2.00       13.428651     579.223861
  1 U-s      2.00        6.714326      29.669491
 
  2 U-p      2.00       10.365944     280.860774
  2 U-p      2.00        5.182972      26.745382
 
  3 U-d      2.00        7.600479     120.396444
  3 U-d      2.00        3.800240      15.810921
 
  4 U-f      2.00        3.309569      24.314376
 
  5 U-g      2.00        5.277289     -24.218675
 
  pbe96 is a nonlocal functional; adding pw91lda local functional. 
 
                                 NWChem DFT Module
                                 -----------------
 
 
  Caching 1-el integrals 
 
            General Information
            -------------------
          SCF calculation type: DFT
          Wavefunction type:  spin polarized.
          No. of atoms     :     1
          No. of electrons :    18
           Alpha electrons :    10
            Beta electrons :     8
          Charge           :     0
          Spin multiplicity:     3
          Use of symmetry is: on ; symmetry adaption is: on 
          Maximum number of iterations: ***
          AO basis - number of functions:    39
                     number of shells:    14
          Convergence on energy requested: 1.00D-06
          Convergence on density requested: 1.00D-05
          Convergence on gradient requested: 5.00D-04
 
              XC Information
              --------------
          PerdewBurkeErnzerhof Exchange Functional  1.000          
            Perdew 1991 LDA Correlation Functional  1.000 local    
           PerdewBurkeErnz. Correlation Functional  1.000 non-local
 
             Grid Information
             ----------------
          Grid used for XC integration:  medium    
          Radial quadrature: Mura-Knowles        
          Angular quadrature: Lebedev. 
          Tag              B.-S. Rad. Rad. Pts. Rad. Cut. Ang. Pts.
          ---              ---------- --------- --------- ---------
          Pt                  1.35      123          13.0       590
          Grid pruning is: on 
          Number of quadrature shells:   123
          Spatial weights used:  Erf1
 
          Convergence Information
          -----------------------
          Convergence aids based upon iterative change in 
          total energy or number of iterations. 
          Levelshifting, if invoked, occurs when the 
          HOMO/LUMO gap drops below (HL_TOL): 1.00D-02
          DIIS, if invoked, will attempt to extrapolate 
          using up to (NFOCK): 10 stored Fock matrices.

                    Damping( 0%)  Levelshifting(0.5)       DIIS
                  --------------- ------------------- ---------------
          dE  on:    start            ASAP                start   
          dE off:    2 iters        *** iters           *** iters 

 
      Screening Tolerance Information
      -------------------------------
          Density screening/tol_rho: 1.00D-10
          AO Gaussian exp screening on grid/accAOfunc:  14
          CD Gaussian exp screening on grid/accCDfunc:  20
          XC Gaussian exp screening on grid/accXCfunc:  20
          Schwarz screening/accCoul: 1.00D-08

 
      Superposition of Atomic Density Guess
      -------------------------------------
 
 Sum of atomic energies:        -215.51935882
 
      Non-variational initial energy
      ------------------------------

 Total energy =     166.383694
 1-e energy   =      77.163327
 2-e energy   =      89.220368
 HOMO         =      -0.748423
 LUMO         =      -0.575774
 
 
   Symmetry analysis of molecular orbitals - initial alpha
   -------------------------------------------------------
 

 !! scf_movecs_sym_adapt:   14 vectors were symmetry contaminated

  Symmetry fudging

 !! scf_movecs_sym_adapt:    3 vectors were symmetry contaminated

  Numbering of irreducible representations: 
 
     1 a1g         2 a1u         3 a2g         4 a2u         5 eg      
     6 eu          7 t1g         8 t1u         9 t2g        10 t2u     
 
  Orbital symmetries:
 
     1 a1g         2 t1u         3 t1u         4 t1u         5 t2g     
     6 t2g         7 t2g         8 eg          9 eg         10 a1g     
    11 t1u        12 t1u        13 t1u        14 a1g        15 t2g     
    16 t2g        17 t2g        18 eg         19 eg         20 a1g     
 
 
   Symmetry analysis of molecular orbitals - initial beta
   ------------------------------------------------------
 

 !! scf_movecs_sym_adapt:   14 vectors were symmetry contaminated

  Symmetry fudging

 !! scf_movecs_sym_adapt:    3 vectors were symmetry contaminated

  Numbering of irreducible representations: 
 
     1 a1g         2 a1u         3 a2g         4 a2u         5 eg      
     6 eu          7 t1g         8 t1u         9 t2g        10 t2u     
 
  Orbital symmetries:
 
     1 a1g         2 t1u         3 t1u         4 t1u         5 t2g     
     6 t2g         7 t2g         8 eg          9 eg         10 a1g     
    11 t1u        12 t1u        13 t1u        14 a1g        15 t2g     
    16 t2g        17 t2g        18 eg         19 eg         20 a1g     
 
   Time after variat. SCF:      0.2
   Time prior to 1st pass:      0.2

 #quartets = 5.565D+03 #integrals = 5.176D+04 #direct =  0.0% #cached =100.0%


 Integral file          = ./ptatom.aoints.0
 Record size in doubles =  65536        No. of integs per rec  =  43688
 Max. records in memory =      2        Max. records in file   =  34387
 No. of bits per label  =      8        No. of bits per value  =     64


File balance: exchanges=     0  moved=     0  time=   0.0


 Grid_pts file          = ./ptatom.gridpts.0
 Record size in doubles =  12289        No. of grid_pts per rec  =   3070
 Max. records in memory =     14        Max. recs in file   =    183388

 Warning: spatial symmetry breaking in UKS:  beta =  2.47D-01

           Memory utilization after 1st SCF pass: 
           Heap Space remaining (MW):        0.34              338295
          Stack Space remaining (MW):        3.01             3014242

   convergence    iter        energy       DeltaE   RMS-Dens  Diis-err    time
 ---------------- ----- ----------------- --------- --------- ---------  ------
 d= 0,ls=0.0,diis     1   -118.8004648000 -1.19D+02  1.17D-01  2.01D+00     0.4
                                                     7.29D-02  1.82D+00
 Warning: spatial symmetry breaking in UKS:  beta =  3.49D-01
 d= 0,ls=0.5,diis     2   -118.7682899781  3.22D-02  3.84D-02  1.20D+00     0.4
                                                     3.33D-02  8.52D-01
 Warning: spatial symmetry breaking in UKS:  beta =  3.48D-01
 d= 0,ls=0.5,diis     3   -119.2688714047 -5.01D-01  9.50D-03  5.36D-02     0.5
                                                     7.82D-03  4.55D-02
 Warning: spatial symmetry breaking in UKS:  beta =  3.44D-01
 d= 0,ls=0.5,diis     4   -119.2909040139 -2.20D-02  4.60D-03  5.63D-03     0.5
                                                     3.91D-03  3.73D-03
 Warning: spatial symmetry breaking in UKS:  beta =  3.43D-01
 d= 0,ls=0.5,diis     5   -119.2948626806 -3.96D-03  2.21D-03  6.95D-04     0.6
                                                     1.83D-03  4.02D-04
 Warning: spatial symmetry breaking in UKS:  beta =  3.43D-01
 d= 0,ls=0.5,diis     6   -119.2957075954 -8.45D-04  1.14D-03  1.88D-04     0.7
                                                     9.44D-04  1.14D-04
 Warning: spatial symmetry breaking in UKS:  beta =  3.43D-01
 d= 0,ls=0.5,diis     7   -119.2959688277 -2.61D-04  6.56D-04  7.73D-05     0.7
                                                     5.25D-04  4.81D-05
 Warning: spatial symmetry breaking in UKS:  beta =  3.43D-01
 d= 0,ls=0.5,diis     8   -119.2960628942 -9.41D-05  3.75D-04  3.52D-05     0.8
                                                     2.97D-04  2.18D-05
 Warning: spatial symmetry breaking in UKS:  beta =  3.43D-01
 d= 0,ls=0.5,diis     9   -119.2960986728 -3.58D-05  2.19D-04  1.61D-05     0.8
                                                     1.71D-04  9.91D-06
 Warning: spatial symmetry breaking in UKS:  beta =  3.43D-01
 d= 0,ls=0.5,diis    10   -119.2961128772 -1.42D-05  1.31D-04  7.14D-06     0.9
                                                     1.00D-04  4.28D-06
 Warning: spatial symmetry breaking in UKS:  beta =  3.43D-01
 d= 0,ls=0.5,diis    11   -119.2961185814 -5.70D-06  8.13D-05  3.10D-06     0.9
                                                     5.96D-05  1.79D-06
 Warning: spatial symmetry breaking in UKS:  beta =  3.43D-01
 d= 0,ls=0.5,diis    12   -119.2961209424 -2.36D-06  5.16D-05  1.25D-06     1.0
                                                     3.58D-05  6.90D-07
 Warning: spatial symmetry breaking in UKS:  beta =  3.43D-01
 d= 0,ls=0.5,diis    13   -119.2961218938 -9.51D-07  3.34D-05  5.06D-07     1.1
                                                     2.16D-05  2.64D-07
 Warning: spatial symmetry breaking in UKS:  beta =  3.43D-01
 d= 0,ls=0.5,diis    14   -119.2961222814 -3.88D-07  2.19D-05  2.05D-07     1.1
                                                     1.30D-05  1.01D-07
 Warning: spatial symmetry breaking in UKS:  beta =  3.43D-01
 d= 0,ls=0.5,diis    15   -119.2961224407 -1.59D-07  1.46D-05  8.49D-08     1.2
                                                     7.90D-06  3.86D-08
 Warning: spatial symmetry breaking in UKS:  beta =  3.43D-01
 d= 0,ls=0.5,diis    16   -119.2961225076 -6.69D-08  9.77D-06  3.54D-08     1.2
                                                     4.79D-06  1.48D-08


         Total DFT energy =     -119.296122536014
      One electron energy =     -208.342104303820
           Coulomb energy =      100.710272298638
    Exchange-Corr. energy =      -11.664290530832
 Nuclear repulsion energy =        0.000000000000

 Numeric. integr. density =       18.000000000071

     Total iterative time =      1.0s


 
                    DFT Final Alpha Molecular Orbital Analysis
                    ------------------------------------------
 
 Vector    1  Occ=1.000000D+00  E=-3.776030D+00  Symmetry=a1g
              MO Center= -9.4D-19,  3.5D-18, -2.6D-18, r^2= 2.9D-01
   Bfn.  Coefficient  Atom+Function         Bfn.  Coefficient  Atom+Function  
  ----- ------------  ---------------      ----- ------------  ---------------
     2     -1.007361  1 Pt s                  1     -0.629688  1 Pt s          
     3     -0.328717  1 Pt s          
 
 Vector    2  Occ=1.000000D+00  E=-2.059559D+00  Symmetry=t1u
              MO Center=  2.1D-18, -4.1D-17, -7.7D-17, r^2= 4.0D-01
   Bfn.  Coefficient  Atom+Function         Bfn.  Coefficient  Atom+Function  
  ----- ------------  ---------------      ----- ------------  ---------------
    10      0.895899  1 Pt px                13      0.260536  1 Pt px         
     7      0.247102  1 Pt px         
 
 Vector    3  Occ=1.000000D+00  E=-2.059559D+00  Symmetry=t1u
              MO Center=  1.4D-29,  2.0D-28,  6.1D-27, r^2= 4.0D-01
   Bfn.  Coefficient  Atom+Function         Bfn.  Coefficient  Atom+Function  
  ----- ------------  ---------------      ----- ------------  ---------------
    12     -0.895424  1 Pt pz                15     -0.260398  1 Pt pz         
     9     -0.246971  1 Pt pz         
 
 Vector    4  Occ=1.000000D+00  E=-2.059559D+00  Symmetry=t1u
              MO Center= -2.3D-19, -5.0D-16, -1.1D-17, r^2= 4.0D-01
   Bfn.  Coefficient  Atom+Function         Bfn.  Coefficient  Atom+Function  
  ----- ------------  ---------------      ----- ------------  ---------------
    11     -0.895426  1 Pt py                14     -0.260398  1 Pt py         
     8     -0.246971  1 Pt py         
 
 Vector    5  Occ=1.000000D+00  E=-2.517043D-01  Symmetry=eg
              MO Center= -1.6D-18, -8.2D-17,  1.3D-18, r^2= 9.8D-01
   Bfn.  Coefficient  Atom+Function         Bfn.  Coefficient  Atom+Function  
  ----- ------------  ---------------      ----- ------------  ---------------
    22      0.812015  1 Pt dxx               25     -0.545745  1 Pt dyy        
    28      0.281233  1 Pt dxx               27     -0.266269  1 Pt dzz        
    31     -0.189013  1 Pt dyy        
 
 Vector    6  Occ=1.000000D+00  E=-2.517043D-01  Symmetry=eg
              MO Center= -8.7D-19,  3.2D-16,  3.8D-17, r^2= 9.8D-01
   Bfn.  Coefficient  Atom+Function         Bfn.  Coefficient  Atom+Function  
  ----- ------------  ---------------      ----- ------------  ---------------
    27      0.783903  1 Pt dzz               25     -0.622548  1 Pt dyy        
    33      0.271497  1 Pt dzz               31     -0.215613  1 Pt dyy        
    22     -0.161355  1 Pt dxx        
 
 Vector    7  Occ=1.000000D+00  E=-2.369652D-01  Symmetry=t2g
              MO Center=  8.5D-17,  1.3D-16, -1.1D-19, r^2= 1.0D+00
   Bfn.  Coefficient  Atom+Function         Bfn.  Coefficient  Atom+Function  
  ----- ------------  ---------------      ----- ------------  ---------------
    23     -1.422389  1 Pt dxy               29     -0.509133  1 Pt dxy        
 
 Vector    8  Occ=1.000000D+00  E=-2.369652D-01  Symmetry=t2g
              MO Center= -4.1D-19, -7.3D-20,  1.8D-16, r^2= 1.0D+00
   Bfn.  Coefficient  Atom+Function         Bfn.  Coefficient  Atom+Function  
  ----- ------------  ---------------      ----- ------------  ---------------
    24      1.184312  1 Pt dxz               26      0.788330  1 Pt dyz        
    30      0.423915  1 Pt dxz               32      0.282177  1 Pt dyz        
 
 Vector    9  Occ=1.000000D+00  E=-2.369652D-01  Symmetry=t2g
              MO Center= -6.9D-17,  1.0D-16, -2.6D-16, r^2= 1.0D+00
   Bfn.  Coefficient  Atom+Function         Bfn.  Coefficient  Atom+Function  
  ----- ------------  ---------------      ----- ------------  ---------------
    26      1.184043  1 Pt dyz               24     -0.788184  1 Pt dxz        
    32      0.423819  1 Pt dyz               30     -0.282124  1 Pt dxz        
 
 Vector   10  Occ=1.000000D+00  E=-2.220448D-01  Symmetry=a1g
              MO Center=  1.1D-18,  2.2D-16, -6.4D-18, r^2= 2.8D+00
   Bfn.  Coefficient  Atom+Function         Bfn.  Coefficient  Atom+Function  
  ----- ------------  ---------------      ----- ------------  ---------------
     4     -0.697878  1 Pt s                  5     -0.579855  1 Pt s          
     3      0.480813  1 Pt s                  2      0.416251  1 Pt s          
     1      0.260838  1 Pt s          
 
 Vector   11  Occ=0.000000D+00  E=-3.935382D-02  Symmetry=t1u
              MO Center=  1.1D-16, -1.9D-16, -4.4D-17, r^2= 7.4D+00
   Bfn.  Coefficient  Atom+Function         Bfn.  Coefficient  Atom+Function  
  ----- ------------  ---------------      ----- ------------  ---------------
    21      0.523138  1 Pt pz                18      0.508975  1 Pt pz         
    12     -0.225017  1 Pt pz                19     -0.205310  1 Pt px         
    16     -0.199751  1 Pt px         
 
 Vector   12  Occ=0.000000D+00  E=-3.935382D-02  Symmetry=t1u
              MO Center=  1.1D-17, -9.5D-18,  1.9D-16, r^2= 7.4D+00
   Bfn.  Coefficient  Atom+Function         Bfn.  Coefficient  Atom+Function  
  ----- ------------  ---------------      ----- ------------  ---------------
    20     -0.561611  1 Pt py                17     -0.546406  1 Pt py         
    11      0.241565  1 Pt py         
 
 Vector   13  Occ=0.000000D+00  E=-3.935382D-02  Symmetry=t1u
              MO Center= -5.1D-16,  1.9D-15, -2.0D-16, r^2= 7.4D+00
   Bfn.  Coefficient  Atom+Function         Bfn.  Coefficient  Atom+Function  
  ----- ------------  ---------------      ----- ------------  ---------------
    19     -0.522792  1 Pt px                16     -0.508638  1 Pt px         
    10      0.224868  1 Pt px                21     -0.205172  1 Pt pz         
    18     -0.199617  1 Pt pz         
 
 Vector   14  Occ=0.000000D+00  E= 4.454509D-03  Symmetry=a1g
              MO Center= -9.0D-19,  2.5D-17, -6.7D-19, r^2= 2.3D+01
   Bfn.  Coefficient  Atom+Function         Bfn.  Coefficient  Atom+Function  
  ----- ------------  ---------------      ----- ------------  ---------------
     6     -1.763394  1 Pt s                  4      0.463032  1 Pt s          
    39      0.259048  1 Pt dzz               34      0.259048  1 Pt dxx        
    37      0.259048  1 Pt dyy                5      0.252407  1 Pt s          
 
 Vector   15  Occ=0.000000D+00  E= 9.290723D-02  Symmetry=t2g
              MO Center=  1.6D-16, -2.0D-15,  2.0D-16, r^2= 1.0D+01
   Bfn.  Coefficient  Atom+Function         Bfn.  Coefficient  Atom+Function  
  ----- ------------  ---------------      ----- ------------  ---------------
    35     -1.793164  1 Pt dxy               23      0.345108  1 Pt dxy        
    29      0.212165  1 Pt dxy               38      0.208559  1 Pt dyz        
    36      0.183571  1 Pt dxz        
 
 Vector   16  Occ=0.000000D+00  E= 9.290723D-02  Symmetry=t2g
              MO Center=  3.5D-13,  1.5D-13, -2.2D-13, r^2= 1.0D+01
   Bfn.  Coefficient  Atom+Function         Bfn.  Coefficient  Atom+Function  
  ----- ------------  ---------------      ----- ------------  ---------------
    36     -1.596545  1 Pt dxz               38     -0.822520  1 Pt dyz        
    24      0.307267  1 Pt dxz               35     -0.259108  1 Pt dxy        
    30      0.188901  1 Pt dxz               26      0.158300  1 Pt dyz        
 
 Vector   17  Occ=0.000000D+00  E= 9.290723D-02  Symmetry=t2g
              MO Center= -5.3D-14,  9.9D-14,  9.4D-14, r^2= 1.0D+01
   Bfn.  Coefficient  Atom+Function         Bfn.  Coefficient  Atom+Function  
  ----- ------------  ---------------      ----- ------------  ---------------
    38      1.603932  1 Pt dyz               36     -0.842602  1 Pt dxz        
    26     -0.308689  1 Pt dyz               32     -0.189775  1 Pt dyz        
    24      0.162165  1 Pt dxz        
 
 Vector   18  Occ=0.000000D+00  E= 9.217272D-02  Symmetry=eg
              MO Center= -2.8D-13,  4.0D-13,  2.2D-14, r^2= 1.0D+01
   Bfn.  Coefficient  Atom+Function         Bfn.  Coefficient  Atom+Function  
  ----- ------------  ---------------      ----- ------------  ---------------
    37      1.044172  1 Pt dyy               39     -0.573814  1 Pt dzz        
    34     -0.470358  1 Pt dxx               25     -0.197327  1 Pt dyy        
 
 Vector   19  Occ=0.000000D+00  E= 9.217272D-02  Symmetry=eg
              MO Center=  6.2D-17, -5.7D-19, -2.2D-17, r^2= 1.0D+01
   Bfn.  Coefficient  Atom+Function         Bfn.  Coefficient  Atom+Function  
  ----- ------------  ---------------      ----- ------------  ---------------
    34     -0.934144  1 Pt dxx               39      0.874414  1 Pt dzz        
    22      0.176534  1 Pt dxx               27     -0.165246  1 Pt dzz        
 
 Vector   20  Occ=0.000000D+00  E= 9.199598D-02  Symmetry=t1u
              MO Center=  2.1D-13, -3.2D-13,  1.9D-13, r^2= 1.3D+01
   Bfn.  Coefficient  Atom+Function         Bfn.  Coefficient  Atom+Function  
  ----- ------------  ---------------      ----- ------------  ---------------
    16      1.062099  1 Pt px                19     -1.025047  1 Pt px         
    17      0.499640  1 Pt py                20     -0.482210  1 Pt py         
    18     -0.419784  1 Pt pz                21      0.405140  1 Pt pz         
    10     -0.222199  1 Pt px         
 
 Vector   21  Occ=0.000000D+00  E= 9.199598D-02  Symmetry=t1u
              MO Center= -2.4D-14, -4.3D-14, -8.1D-14, r^2= 1.3D+01
   Bfn.  Coefficient  Atom+Function         Bfn.  Coefficient  Atom+Function  
  ----- ------------  ---------------      ----- ------------  ---------------
    17      1.090492  1 Pt py                20     -1.052450  1 Pt py         
    16     -0.579802  1 Pt px                19      0.559575  1 Pt px         
    11     -0.228139  1 Pt py                18     -0.169023  1 Pt pz         
    21      0.163127  1 Pt pz         
 
 Vector   22  Occ=0.000000D+00  E= 9.199598D-02  Symmetry=t1u
              MO Center= -2.1D-13, -2.9D-13, -5.5D-15, r^2= 1.3D+01
   Bfn.  Coefficient  Atom+Function         Bfn.  Coefficient  Atom+Function  
  ----- ------------  ---------------      ----- ------------  ---------------
    18     -1.161518  1 Pt pz                21      1.120998  1 Pt pz         
    17     -0.339263  1 Pt py                20      0.327427  1 Pt py         
    16     -0.299481  1 Pt px                19      0.289033  1 Pt px         
    12      0.242999  1 Pt pz         
 
 Vector   23  Occ=0.000000D+00  E= 9.827317D-02  Symmetry=a1g
              MO Center=  4.2D-18,  7.0D-18, -3.7D-19, r^2= 2.3D+01
   Bfn.  Coefficient  Atom+Function         Bfn.  Coefficient  Atom+Function  
  ----- ------------  ---------------      ----- ------------  ---------------
     6      2.540344  1 Pt s                  5      2.381571  1 Pt s          
    39     -1.785960  1 Pt dzz               34     -1.785960  1 Pt dxx        
    37     -1.785960  1 Pt dyy                4     -0.596345  1 Pt s          
     3     -0.539337  1 Pt s                 31     -0.399970  1 Pt dyy        
    28     -0.399970  1 Pt dxx               33     -0.399970  1 Pt dzz        
 
 Vector   24  Occ=0.000000D+00  E= 3.557829D-01  Symmetry=a1g
              MO Center= -3.8D-18,  3.2D-17, -1.0D-18, r^2= 1.3D+01
   Bfn.  Coefficient  Atom+Function         Bfn.  Coefficient  Atom+Function  
  ----- ------------  ---------------      ----- ------------  ---------------
     5      9.809661  1 Pt s                  4     -4.638215  1 Pt s          
    39     -2.713172  1 Pt dzz               34     -2.713172  1 Pt dxx        
    37     -2.713172  1 Pt dyy                6      1.719046  1 Pt s          
    31     -1.193448  1 Pt dyy               28     -1.193448  1 Pt dxx        
    33     -1.193448  1 Pt dzz                2      0.574867  1 Pt s          
 
 Vector   25  Occ=0.000000D+00  E= 5.659216D-01  Symmetry=eg
              MO Center= -2.5D-15,  1.3D-15, -2.7D-16, r^2= 4.0D+00
   Bfn.  Coefficient  Atom+Function         Bfn.  Coefficient  Atom+Function  
  ----- ------------  ---------------      ----- ------------  ---------------
    28      1.269993  1 Pt dxx               31     -0.899325  1 Pt dyy        
    22     -0.748573  1 Pt dxx               34     -0.566524  1 Pt dxx        
    25      0.530090  1 Pt dyy               37      0.401175  1 Pt dyy        
    33     -0.370668  1 Pt dzz               27      0.218483  1 Pt dzz        
    39      0.165349  1 Pt dzz        
 
 
                     DFT Final Beta Molecular Orbital Analysis
                     -----------------------------------------
 
 Vector    1  Occ=1.000000D+00  E=-3.754385D+00  Symmetry=a1g
              MO Center=  0.0D+00,  0.0D+00,  0.0D+00, r^2= 2.9D-01
   Bfn.  Coefficient  Atom+Function         Bfn.  Coefficient  Atom+Function  
  ----- ------------  ---------------      ----- ------------  ---------------
     2     -1.011047  1 Pt s                  1     -0.630652  1 Pt s          
     3     -0.326404  1 Pt s          
 
 Vector    2  Occ=1.000000D+00  E=-2.034648D+00  Symmetry=t1u
              MO Center= -1.4D-17, -5.7D-17,  1.4D-16, r^2= 4.0D-01
   Bfn.  Coefficient  Atom+Function         Bfn.  Coefficient  Atom+Function  
  ----- ------------  ---------------      ----- ------------  ---------------
    10     -0.847623  1 Pt px                11      0.294068  1 Pt py         
    13     -0.241393  1 Pt px                 7     -0.233443  1 Pt px         
 
 Vector    3  Occ=1.000000D+00  E=-2.034648D+00  Symmetry=t1u
              MO Center=  2.1D-17, -3.5D-16, -6.6D-17, r^2= 4.0D-01
   Bfn.  Coefficient  Atom+Function         Bfn.  Coefficient  Atom+Function  
  ----- ------------  ---------------      ----- ------------  ---------------
    11     -0.850639  1 Pt py                10     -0.293305  1 Pt px         
    14     -0.242252  1 Pt py                 8     -0.234274  1 Pt py         
 
 Vector    4  Occ=1.000000D+00  E=-2.034648D+00  Symmetry=t1u
              MO Center= -5.7D-17,  2.4D-17, -4.3D-16, r^2= 4.0D-01
   Bfn.  Coefficient  Atom+Function         Bfn.  Coefficient  Atom+Function  
  ----- ------------  ---------------      ----- ------------  ---------------
    12     -0.896930  1 Pt pz                15     -0.255435  1 Pt pz         
     9     -0.247023  1 Pt pz         
 
 Vector    5  Occ=1.000000D+00  E=-2.130745D-01  Symmetry=t2g
              MO Center= -1.5D-16,  2.9D-17,  7.3D-17, r^2= 9.9D-01
   Bfn.  Coefficient  Atom+Function         Bfn.  Coefficient  Atom+Function  
  ----- ------------  ---------------      ----- ------------  ---------------
    24      1.312264  1 Pt dxz               23      0.498698  1 Pt dxy        
    30      0.446040  1 Pt dxz               26     -0.302700  1 Pt dyz        
    29      0.169508  1 Pt dxy        
 
 Vector    6  Occ=1.000000D+00  E=-2.130745D-01  Symmetry=t2g
              MO Center= -6.9D-17,  5.3D-17,  1.5D-16, r^2= 9.9D-01
   Bfn.  Coefficient  Atom+Function         Bfn.  Coefficient  Atom+Function  
  ----- ------------  ---------------      ----- ------------  ---------------
    26      1.176461  1 Pt dyz               23     -0.642330  1 Pt dxy        
    24      0.515478  1 Pt dxz               32      0.399881  1 Pt dyz        
    29     -0.218329  1 Pt dxy               30      0.175212  1 Pt dxz        
 
 Vector    7  Occ=1.000000D+00  E=-2.130745D-01  Symmetry=t2g
              MO Center=  1.5D-16, -7.6D-17,  8.5D-17, r^2= 9.9D-01
   Bfn.  Coefficient  Atom+Function         Bfn.  Coefficient  Atom+Function  
  ----- ------------  ---------------      ----- ------------  ---------------
    23     -1.183671  1 Pt dxy               26     -0.765949  1 Pt dyz        
    29     -0.402331  1 Pt dxy               24      0.273147  1 Pt dxz        
    32     -0.260347  1 Pt dyz        
 
 Vector    8  Occ=1.000000D+00  E=-2.019728D-01  Symmetry=eg
              MO Center= -1.6D-18,  2.3D-17,  2.5D-18, r^2= 1.0D+00
   Bfn.  Coefficient  Atom+Function         Bfn.  Coefficient  Atom+Function  
  ----- ------------  ---------------      ----- ------------  ---------------
    27      0.722447  1 Pt dzz               25     -0.713101  1 Pt dyy        
    33      0.244713  1 Pt dzz               31     -0.241547  1 Pt dyy        
 
 Vector    9  Occ=0.000000D+00  E=-2.019728D-01  Symmetry=eg
              MO Center=  5.5D-17,  1.4D-16,  1.4D-16, r^2= 1.0D+00
   Bfn.  Coefficient  Atom+Function         Bfn.  Coefficient  Atom+Function  
  ----- ------------  ---------------      ----- ------------  ---------------
    22      0.828824  1 Pt dxx               25     -0.422506  1 Pt dyy        
    27     -0.406318  1 Pt dzz               28      0.280749  1 Pt dxx        
 
 Vector   10  Occ=0.000000D+00  E=-1.843913D-01  Symmetry=a1g
              MO Center= -1.8D-17,  6.8D-17,  5.1D-17, r^2= 2.9D+00
   Bfn.  Coefficient  Atom+Function         Bfn.  Coefficient  Atom+Function  
  ----- ------------  ---------------      ----- ------------  ---------------
     4     -0.632326  1 Pt s                  5     -0.628591  1 Pt s          
     3      0.449018  1 Pt s                  2      0.417441  1 Pt s          
     1      0.256013  1 Pt s          
 
 Vector   11  Occ=0.000000D+00  E=-1.468901D-02  Symmetry=t1u
              MO Center=  4.0D-15,  2.0D-17, -3.0D-16, r^2= 8.2D+00
   Bfn.  Coefficient  Atom+Function         Bfn.  Coefficient  Atom+Function  
  ----- ------------  ---------------      ----- ------------  ---------------
    20     -0.605623  1 Pt py                17     -0.435175  1 Pt py         
    11      0.205693  1 Pt py                21     -0.178895  1 Pt pz         
 
 Vector   12  Occ=0.000000D+00  E=-1.468901D-02  Symmetry=t1u
              MO Center= -2.2D-20,  8.3D-17, -1.0D-16, r^2= 8.2D+00
   Bfn.  Coefficient  Atom+Function         Bfn.  Coefficient  Atom+Function  
  ----- ------------  ---------------      ----- ------------  ---------------
    19     -0.625039  1 Pt px                16     -0.449126  1 Pt px         
    10      0.212288  1 Pt px         
 
 Vector   13  Occ=0.000000D+00  E=-1.468901D-02  Symmetry=t1u
              MO Center=  6.6D-16,  2.1D-16,  1.7D-16, r^2= 8.2D+00
   Bfn.  Coefficient  Atom+Function         Bfn.  Coefficient  Atom+Function  
  ----- ------------  ---------------      ----- ------------  ---------------
    21     -0.605254  1 Pt pz                18     -0.434909  1 Pt pz         
    12      0.205568  1 Pt pz                20      0.196565  1 Pt py         
 
 Vector   14  Occ=0.000000D+00  E= 1.482184D-02  Symmetry=a1g
              MO Center= -2.4D-16, -5.0D-16,  8.5D-16, r^2= 2.5D+01
   Bfn.  Coefficient  Atom+Function         Bfn.  Coefficient  Atom+Function  
  ----- ------------  ---------------      ----- ------------  ---------------
     6     -1.971815  1 Pt s                  4      0.508974  1 Pt s          
    34      0.404634  1 Pt dxx               37      0.404634  1 Pt dyy        
    39      0.404634  1 Pt dzz        
 
 Vector   15  Occ=0.000000D+00  E= 1.110102D-01  Symmetry=t2g
              MO Center=  1.9D-14, -5.2D-14,  6.1D-15, r^2= 1.0D+01
   Bfn.  Coefficient  Atom+Function         Bfn.  Coefficient  Atom+Function  
  ----- ------------  ---------------      ----- ------------  ---------------
    35     -1.532558  1 Pt dxy               38      0.769480  1 Pt dyz        
    36      0.602337  1 Pt dxz               23      0.288872  1 Pt dxy        
    29      0.185776  1 Pt dxy        
 
 Vector   16  Occ=0.000000D+00  E= 1.110102D-01  Symmetry=t2g
              MO Center=  5.3D-15,  1.3D-14,  3.7D-14, r^2= 1.0D+01
   Bfn.  Coefficient  Atom+Function         Bfn.  Coefficient  Atom+Function  
  ----- ------------  ---------------      ----- ------------  ---------------
    36      1.535709  1 Pt dxz               35      0.845002  1 Pt dxy        
    38      0.480846  1 Pt dyz               24     -0.289466  1 Pt dxz        
    30     -0.186158  1 Pt dxz               23     -0.159274  1 Pt dxy        
 
 Vector   17  Occ=0.000000D+00  E= 1.110102D-01  Symmetry=t2g
              MO Center=  2.4D-16,  7.6D-16,  1.6D-15, r^2= 1.0D+01
   Bfn.  Coefficient  Atom+Function         Bfn.  Coefficient  Atom+Function  
  ----- ------------  ---------------      ----- ------------  ---------------
    38     -1.574907  1 Pt dyz               36      0.763173  1 Pt dxz        
    35     -0.490795  1 Pt dxy               26      0.296854  1 Pt dyz        
    32      0.190910  1 Pt dyz        
 
 Vector   18  Occ=0.000000D+00  E= 1.135790D-01  Symmetry=eg
              MO Center= -4.5D-15,  3.7D-13,  9.9D-14, r^2= 1.0D+01
   Bfn.  Coefficient  Atom+Function         Bfn.  Coefficient  Atom+Function  
  ----- ------------  ---------------      ----- ------------  ---------------
    39      0.915978  1 Pt dzz               37     -0.904129  1 Pt dyy        
    27     -0.172822  1 Pt dzz               25      0.170587  1 Pt dyy        
 
 Vector   19  Occ=0.000000D+00  E= 1.147259D-01  Symmetry=t1u
              MO Center=  2.2D-12,  1.0D-13, -2.1D-13, r^2= 1.2D+01
   Bfn.  Coefficient  Atom+Function         Bfn.  Coefficient  Atom+Function  
  ----- ------------  ---------------      ----- ------------  ---------------
    16      1.271666  1 Pt px                19     -1.149829  1 Pt px         
    10     -0.263099  1 Pt px                18      0.152249  1 Pt pz         
 
 Vector   20  Occ=0.000000D+00  E= 1.147259D-01  Symmetry=t1u
              MO Center= -1.2D-13,  5.2D-13,  4.2D-13, r^2= 1.2D+01
   Bfn.  Coefficient  Atom+Function         Bfn.  Coefficient  Atom+Function  
  ----- ------------  ---------------      ----- ------------  ---------------
    17      1.193074  1 Pt py                20     -1.078766  1 Pt py         
    18      0.478605  1 Pt pz                21     -0.432751  1 Pt pz         
    11     -0.246838  1 Pt py         
 
 Vector   21  Occ=0.000000D+00  E= 1.147259D-01  Symmetry=t1u
              MO Center=  2.2D-14, -5.2D-14, -1.7D-13, r^2= 1.2D+01
   Bfn.  Coefficient  Atom+Function         Bfn.  Coefficient  Atom+Function  
  ----- ------------  ---------------      ----- ------------  ---------------
    18      1.184889  1 Pt pz                21     -1.071366  1 Pt pz         
    17     -0.465715  1 Pt py                20      0.421095  1 Pt py         
    12     -0.245145  1 Pt pz                16     -0.188023  1 Pt px         
    19      0.170009  1 Pt px         
 
 Vector   22  Occ=0.000000D+00  E= 1.135790D-01  Symmetry=eg
              MO Center= -2.1D-12, -9.0D-13, -1.8D-13, r^2= 1.0D+01
   Bfn.  Coefficient  Atom+Function         Bfn.  Coefficient  Atom+Function  
  ----- ------------  ---------------      ----- ------------  ---------------
    34     -1.050841  1 Pt dxx               37      0.535682  1 Pt dyy        
    39      0.515159  1 Pt dzz               22      0.198225  1 Pt dxx        
 
 Vector   23  Occ=0.000000D+00  E= 1.137026D-01  Symmetry=a1g
              MO Center= -3.8D-17,  1.3D-16,  1.0D-16, r^2= 2.1D+01
   Bfn.  Coefficient  Atom+Function         Bfn.  Coefficient  Atom+Function  
  ----- ------------  ---------------      ----- ------------  ---------------
     5     -2.624455  1 Pt s                  6     -2.416005  1 Pt s          
    39      1.817704  1 Pt dzz               37      1.817704  1 Pt dyy        
    34      1.817704  1 Pt dxx                4      0.649253  1 Pt s          
     3      0.556947  1 Pt s                 28      0.418207  1 Pt dxx        
    31      0.418207  1 Pt dyy               33      0.418207  1 Pt dzz        
 
 Vector   24  Occ=0.000000D+00  E= 3.752962D-01  Symmetry=a1g
              MO Center= -6.7D-17, -1.7D-16, -4.2D-16, r^2= 1.2D+01
   Bfn.  Coefficient  Atom+Function         Bfn.  Coefficient  Atom+Function  
  ----- ------------  ---------------      ----- ------------  ---------------
     5     -9.854106  1 Pt s                  4      4.605824  1 Pt s          
    34      2.696437  1 Pt dxx               37      2.696437  1 Pt dyy        
    39      2.696437  1 Pt dzz                6     -1.681561  1 Pt s          
    33      1.226559  1 Pt dzz               31      1.226559  1 Pt dyy        
    28      1.226559  1 Pt dxx                2     -0.593260  1 Pt s          
 
 Vector   25  Occ=0.000000D+00  E= 5.981594D-01  Symmetry=t2g
              MO Center= -2.9D-17, -4.8D-17,  2.9D-16, r^2= 4.0D+00
   Bfn.  Coefficient  Atom+Function         Bfn.  Coefficient  Atom+Function  
  ----- ------------  ---------------      ----- ------------  ---------------
    32      2.240851  1 Pt dyz               26     -1.318349  1 Pt dyz        
    38     -0.987816  1 Pt dyz               30      0.303776  1 Pt dxz        
    24     -0.178719  1 Pt dxz        
 

   alpha - beta orbital overlaps 
   ----------------------------- 


   alpha      1      2      3      4      5      6      7      8      9     10
    beta      1      2      4      3      9      8      7      6      5     10
 overlap   1.000  0.942  0.996  0.944  0.983  0.983  0.813  0.752  0.674  1.000


   alpha     11     12     13     14     15     16     17     18     19     20
    beta     13     11     12     14     15     16     17     18     22     19
 overlap   0.823  0.949  0.839  0.996  0.915  0.930  0.976  0.888  0.888  0.761


   alpha     21     22     23     24     25     26     27     28     29     30
    beta     20     21     23     24     29     28     27     25     26     30
 overlap   0.737  0.723  0.996  1.000  0.974  0.974  0.978  0.850  0.833  1.000


   alpha     31     32     33     34     35     36     37     38     39
    beta     33     31     32     34     35     38     36     37     39
 overlap   0.997  0.989  0.989  1.000  1.000  0.783  0.831  0.952  1.000

     --------------------------
     Expectation value of S2:  
     --------------------------
      <S2> =      2.0004 (Exact =     2.0000)
 

 Parallel integral file used       2 records with       0 large values


 Task  times  cpu:        1.3s     wall:        1.8s
 
 
                                NWChem Input Module
                                -------------------
 
 
 Summary of allocated global arrays
-----------------------------------
  No active global arrays



                         GA Statistics for process    0
                         ------------------------------

       create   destroy   get      put      acc     scatter   gather  read&inc
calls:  688      688     2.80e+04 1.12e+04 2348        0        0        0     
number of processes/call 1.00e+00 1.01e+00 1.00e+00 0.00e+00 0.00e+00
bytes total:             3.46e+07 1.10e+07 2.86e+07 0.00e+00 0.00e+00 0.00e+00
bytes remote:            3.64e+06 1.73e+06 0.00e+00 0.00e+00 0.00e+00 0.00e+00
Max memory consumed for GA by this process: 766584 bytes
 
MA_summarize_allocated_blocks: starting scan ...
MA_summarize_allocated_blocks: scan completed: 0 heap blocks, 0 stack blocks
MA usage statistics:

	allocation statistics:
					      heap	     stack
					      ----	     -----
	current number of blocks	         0	         0
	maximum number of blocks	        43	        52
	current total bytes		         0	         0
	maximum total bytes		   2536528	  22511912
	maximum total K-bytes		      2537	     22512
	maximum total M-bytes		         3	        23



                                  ACKNOWLEDGEMENT
                                  ---------------

            Please use the following acknowledgement where appropriate 
            for results obtained with NWChem:

            High Performance Computational Chemistry Group, "NWChem, A
            Computational Chemistry Package for Parallel Computers, 
            Version 5.1.1" (2008), Pacific Northwest National Laboratory,
            Richland, Washington 99352-0999, USA.


                                     CITATION
                                     --------

          Please use the following citation when publishing results
          obtained with NWChem:

          E. J. Bylaska, W. A. de Jong, N. Govind, K. Kowalski, T. P. Straatsma,
          M. Valiev, D. Wang, E. Apra, T. L. Windus, J. Hammond, J. Autschbach,
          P. Nichols, S. Hirata, M. T. Hackler, Y. Zhao, P.-D. Fan, R. J. Harrison,
          M. Dupuis, D. M. A. Smith, J. Nieplocha, V. Tipparaju, M. Krishnan,
          A. Vazquez-Mayagoitia, L. Jensen, M. Swart, Q. Wu, T. Van Voorhis,
          A. A. Auer, M. Nooijen, L. D. Crosby, E. Brown, 
          G. Cisneros, G. I. Fann, H. Fruchtl, J. Garza,
          K. Hirao, R. Kendall, J. A. Nichols, K. Tsemekhman
          K. Wolinski, J. Anchell, D. Bernholdt, P. Borowski, T. Clark,
          D. Clerc, H. Dachsel, M. Deegan, K. Dyall, D. Elwood, E. Glendening
          M. Gutowski, A. Hess, J. Jaffe, B. Johnson, J. Ju, R. Kobayashi,
          R. Kutteh, Z. Lin, R. Littlefield, X. Long, B. Meng, T. Nakajima,
          S. Niu, L. Pollack, M. Rosing, G. Sandrone, M. Stave, H. Taylor,
          G. Thomas, J. van Lenthe, A. Wong, and Z. Zhang,
          "NWChem, A Computational Chemistry Package for Parallel Computers, 
          Version 5.1.1" (2008),
                      Pacific Northwest National Laboratory,
                      Richland, Washington 99352-0999, USA.



 Total times  cpu:        1.3s     wall:        1.9s
