 argument  1 = metagga_li4h4_0_m062x_m06.nw
All connections between all procs tested: SUCCESS
 


============================== echo of input deck ==============================
echo
start metagga_dat
geometry noautosym
   li           -0.86951255    -0.86951258    -0.86951257
   h            -0.94323913    -0.94323915     0.94323910
   h            -0.94323915     0.94323911    -0.94323918
   h             0.94323909    -0.94323917    -0.94323918
   li            0.86951263     0.86951263    -0.86951264
   li            0.86951266    -0.86951265     0.86951266
   li           -0.86951267     0.86951268     0.86951268
   h             0.94323913     0.94323913     0.94323914
end

basis
  * library "6-311++G(2d,2p)"
end

dft
  direct
  xc xm06-2x cm06
  maxiter 1000
end

driver
  clear
  maxiter 100
end

task dft optimize
task dft frequencies numerical
================================================================================


                                         
                                         
 
 
              Northwest Computational Chemistry Package (NWChem) 6.5
              ------------------------------------------------------
 
 
                    Environmental Molecular Sciences Laboratory
                       Pacific Northwest National Laboratory
                                Richland, WA 99352
 
                              Copyright (c) 1994-2013
                       Pacific Northwest National Laboratory
                            Battelle Memorial Institute
 
             NWChem is an open-source computational chemistry package
                        distributed under the terms of the
                      Educational Community License (ECL) 2.0
             A copy of the license is included with this distribution
                              in the LICENSE.TXT file
 
                                  ACKNOWLEDGMENT
                                  --------------

            This software and its documentation were developed at the
            EMSL at Pacific Northwest National Laboratory, a multiprogram
            national laboratory, operated for the U.S. Department of Energy
            by Battelle under Contract Number DE-AC05-76RL01830. Support
            for this work was provided by the Department of Energy Office
            of Biological and Environmental Research, Office of Basic
            Energy Sciences, and the Office of Advanced Scientific Computing.


           Job information
           ---------------

    hostname        = arcen
    program         = /home/d3y133/nwchem-dev/nwchem-dev-2015-01-16/bin/LINUX64/nwchem
    date            = Mon Feb  2 21:58:14 2015

    compiled        = Mon_Feb_02_10:11:44_2015
    source          = /home/d3y133/nwchem-dev/nwchem-dev-2015-01-16
    nwchem branch   = Development
    nwchem revision = 26704
    ga revision     = 10514
    input           = metagga_li4h4_0_m062x_m06.nw
    prefix          = metagga_dat.
    data base       = /home/d3y133/nwchem-dev/nwchem-trunk-nonwad/QA/scratchdir/metagga_dat.db
    status          = startup
    nproc           =        4
    time left       =     -1s



           Memory information
           ------------------

    heap     =   13107196 doubles =    100.0 Mbytes
    stack    =   13107201 doubles =    100.0 Mbytes
    global   =   26214400 doubles =    200.0 Mbytes (distinct from heap & stack)
    total    =   52428797 doubles =    400.0 Mbytes
    verify   = yes
    hardfail = no 


           Directory information
           ---------------------
 
  0 permanent = /home/d3y133/nwchem-dev/nwchem-trunk-nonwad/QA/scratchdir
  0 scratch   = /home/d3y133/nwchem-dev/nwchem-trunk-nonwad/QA/scratchdir
 
 
 
 
                                NWChem Input Module
                                -------------------
 
 

 Scaling coordinates for geometry "geometry" by  1.889725989
 (inverse scale =  0.529177249)


          ------
          auto-z
          ------
  autoz: excessive number of variables                    312
                    18

 AUTOZ failed to generate good internal coordinates.
 Cartesian coordinates will be used in optimizations.

 
 
                             Geometry "geometry" -> ""
                             -------------------------
 
 Output coordinates in angstroms (scale by  1.889725989 to convert to a.u.)
 
  No.       Tag          Charge          X              Y              Z
 ---- ---------------- ---------- -------------- -------------- --------------
    1 li                   3.0000    -0.86951256    -0.86951259    -0.86951259
    2 h                    1.0000    -0.94323914    -0.94323916     0.94323908
    3 h                    1.0000    -0.94323916     0.94323910    -0.94323920
    4 h                    1.0000     0.94323908    -0.94323918    -0.94323920
    5 li                   3.0000     0.86951262     0.86951262    -0.86951266
    6 li                   3.0000     0.86951265    -0.86951266     0.86951264
    7 li                   3.0000    -0.86951268     0.86951267     0.86951266
    8 h                    1.0000     0.94323912     0.94323912     0.94323912
 
      Atomic Mass 
      ----------- 
 
      li                 7.016000
      h                  1.007825
 

 Effective nuclear repulsion energy (a.u.)      25.3234783205

            Nuclear Dipole moment (a.u.) 
            ----------------------------
        X                 Y               Z
 ---------------- ---------------- ----------------
    -0.0000000000    -0.0000000000     0.0000000000
 
 
            XYZ format geometry
            -------------------
     8
 geometry
 li                   -0.86951256    -0.86951259    -0.86951259
 h                    -0.94323914    -0.94323916     0.94323908
 h                    -0.94323916     0.94323910    -0.94323920
 h                     0.94323908    -0.94323918    -0.94323920
 li                    0.86951262     0.86951262    -0.86951266
 li                    0.86951265    -0.86951266     0.86951264
 li                   -0.86951268     0.86951267     0.86951266
 h                     0.94323912     0.94323912     0.94323912
 
 ==============================================================================
                                internuclear distances
 ------------------------------------------------------------------------------
       center one      |      center two      | atomic units |  angstroms
 ------------------------------------------------------------------------------
    5 li               |   1 li               |     4.64750  |     2.45935
    6 li               |   1 li               |     4.64750  |     2.45935
    6 li               |   5 li               |     4.64750  |     2.45935
    7 li               |   1 li               |     4.64750  |     2.45935
    7 li               |   5 li               |     4.64750  |     2.45935
    7 li               |   6 li               |     4.64750  |     2.45935
 ------------------------------------------------------------------------------
                         number of included internuclear distances:          6
 ==============================================================================



 ==============================================================================
                                 internuclear angles
 ------------------------------------------------------------------------------
        center 1       |       center 2       |       center 3       |  degrees
 ------------------------------------------------------------------------------
    5 li               |   1 li               |   6 li               |    60.00
    5 li               |   1 li               |   7 li               |    60.00
    6 li               |   1 li               |   7 li               |    60.00
    5 li               |   1 li               |   6 li               |    60.00
    5 li               |   1 li               |   7 li               |    60.00
    6 li               |   5 li               |   7 li               |    60.00
    6 li               |   1 li               |   5 li               |    60.00
    6 li               |   1 li               |   7 li               |    60.00
    6 li               |   5 li               |   7 li               |    60.00
    7 li               |   1 li               |   5 li               |    60.00
    7 li               |   1 li               |   6 li               |    60.00
    7 li               |   5 li               |   6 li               |    60.00
 ------------------------------------------------------------------------------
                            number of included internuclear angles:         12
 ==============================================================================



  library name resolved from: environment
  library file name is: <
 /home/d3y133/nwchem-dev/nwchem-trunk-nonwad/QA/../src/basis/libraries/>
  


 Summary of "ao basis" -> "" (cartesian)
 ------------------------------------------------------------------------------
       Tag                 Description            Shells   Functions and Types
 ---------------- ------------------------------  ------  ---------------------
 *                      6-311++G(2d,2p)               on all atoms 


 cm06 uses PW91LDA as defaults.These defaults cannot be changed 
 
  Deleted DRIVER restart files 
 
 
 
                           NWChem Geometry Optimization
                           ----------------------------
 
 
 maximum gradient threshold         (gmax) =   0.000450
 rms gradient threshold             (grms) =   0.000300
 maximum cartesian step threshold   (xmax) =   0.001800
 rms cartesian step threshold       (xrms) =   0.001200
 fixed trust radius                (trust) =   0.300000
 maximum step size to saddle      (sadstp) =   0.100000
 energy precision                  (eprec) =   5.0D-06
 maximum number of steps          (nptopt) =  100
 initial hessian option           (inhess) =    0
 line search option               (linopt) =    1
 hessian update option            (modupd) =    1
 saddle point option              (modsad) =    0
 initial eigen-mode to follow     (moddir) =    0
 initial variable to follow       (vardir) =    0
 follow first negative mode     (firstneg) =    T
 apply conjugacy                    (opcg) =    F
 source of zmatrix                         =           


          -------------------
          Energy Minimization
          -------------------

 
 Using diagonal initial Hessian 

          --------
          Step   0
          --------
 
 
                         Geometry "geometry" -> "geometry"
                         ---------------------------------
 
 Output coordinates in angstroms (scale by  1.889725989 to convert to a.u.)
 
  No.       Tag          Charge          X              Y              Z
 ---- ---------------- ---------- -------------- -------------- --------------
    1 li                   3.0000    -0.86951256    -0.86951259    -0.86951259
    2 h                    1.0000    -0.94323914    -0.94323916     0.94323908
    3 h                    1.0000    -0.94323916     0.94323910    -0.94323920
    4 h                    1.0000     0.94323908    -0.94323918    -0.94323920
    5 li                   3.0000     0.86951262     0.86951262    -0.86951266
    6 li                   3.0000     0.86951265    -0.86951266     0.86951264
    7 li                   3.0000    -0.86951268     0.86951267     0.86951266
    8 h                    1.0000     0.94323912     0.94323912     0.94323912
 
      Atomic Mass 
      ----------- 
 
      li                 7.016000
      h                  1.007825
 

 Effective nuclear repulsion energy (a.u.)      25.3234783205

            Nuclear Dipole moment (a.u.) 
            ----------------------------
        X                 Y               Z
 ---------------- ---------------- ----------------
    -0.0000000000    -0.0000000000     0.0000000000
 
 
                                 NWChem DFT Module
                                 -----------------
 
 
                      Basis "ao basis" -> "ao basis" (cartesian)
                      -----
  li (Lithium)
  ------------
            Exponent  Coefficients 
       -------------- ---------------------------------------------------------
  1 S  9.00460000E+02  0.002287
  1 S  1.34433000E+02  0.017635
  1 S  3.04365000E+01  0.087343
  1 S  8.62639000E+00  0.280977
  1 S  2.48332000E+00  0.658741
  1 S  3.03179000E-01  0.118712
 
  2 S  4.86890000E+00  0.093329
  2 S  8.56924000E-01  0.943045
  2 S  2.43227000E-01 -0.002798
 
  3 P  4.86890000E+00  0.032766
  3 P  8.56924000E-01  0.159792
  3 P  2.43227000E-01  0.885667
 
  4 S  6.35070000E-02  1.000000
 
  5 P  6.35070000E-02  1.000000
 
  6 S  2.43683000E-02  1.000000
 
  7 P  2.43683000E-02  1.000000
 
  8 S  7.40000000E-03  1.000000
 
  9 P  7.40000000E-03  1.000000
 
 10 D  4.00000000E-01  1.000000
 
 11 D  1.00000000E-01  1.000000
 
  h (Hydrogen)
  ------------
            Exponent  Coefficients 
       -------------- ---------------------------------------------------------
  1 S  3.38650000E+01  0.025494
  1 S  5.09479000E+00  0.190373
  1 S  1.15879000E+00  0.852161
 
  2 S  3.25840000E-01  1.000000
 
  3 S  1.02741000E-01  1.000000
 
  4 S  3.60000000E-02  1.000000
 
  5 P  1.50000000E+00  1.000000
 
  6 P  3.75000000E-01  1.000000
 


 Summary of "ao basis" -> "ao basis" (cartesian)
 ------------------------------------------------------------------------------
       Tag                 Description            Shells   Functions and Types
 ---------------- ------------------------------  ------  ---------------------
 li                     6-311++G(2d,2p)             11       29   5s4p2d
 h                      6-311++G(2d,2p)              6       10   4s2p




 Summary of "ao basis" -> "ao basis" (cartesian)
 ------------------------------------------------------------------------------
       Tag                 Description            Shells   Functions and Types
 ---------------- ------------------------------  ------  ---------------------
 li                     6-311++G(2d,2p)             11       29   5s4p2d
 h                      6-311++G(2d,2p)              6       10   4s2p


  Caching 1-el integrals 
 
            General Information
            -------------------
          SCF calculation type: DFT
          Wavefunction type:  closed shell.
          No. of atoms     :     8
          No. of electrons :    16
           Alpha electrons :     8
            Beta electrons :     8
          Charge           :     0
          Spin multiplicity:     1
          Use of symmetry is: off; symmetry adaption is: off
          Maximum number of iterations: ***
          This is a Direct SCF calculation.
          AO basis - number of functions:   156
                     number of shells:    68
          Convergence on energy requested: 1.00D-06
          Convergence on density requested: 1.00D-05
          Convergence on gradient requested: 5.00D-04
 
              XC Information
              --------------
                     Hartree-Fock (Exact) Exchange  0.540          
                        M06-2X Exchange Functional  1.000          
                         M06 Correlation Potential  1.000 non-local
 
             Grid Information
             ----------------
          Grid used for XC integration:  medium    
          Radial quadrature: Mura-Knowles        
          Angular quadrature: Lebedev. 
          Tag              B.-S. Rad. Rad. Pts. Rad. Cut. Ang. Pts.
          ---              ---------- --------- --------- ---------
          li                  1.45       49          22.0       434
          h                   0.35       45          17.0       434
          Grid pruning is: on 
          Number of quadrature shells:   376
          Spatial weights used:  Erf1
 
          Convergence Information
          -----------------------
          Convergence aids based upon iterative change in 
          total energy or number of iterations. 
          Levelshifting, if invoked, occurs when the 
          HOMO/LUMO gap drops below (HL_TOL): 1.00D-02
          DIIS, if invoked, will attempt to extrapolate 
          using up to (NFOCK): 10 stored Fock matrices.

                    Damping( 0%)  Levelshifting(0.5)       DIIS
                  --------------- ------------------- ---------------
          dE  on:    start            ASAP                start   
          dE off:    2 iters        *** iters           *** iters 

 
      Screening Tolerance Information
      -------------------------------
          Density screening/tol_rho: 1.00D-10
          AO Gaussian exp screening on grid/accAOfunc:  14
          CD Gaussian exp screening on grid/accCDfunc:  20
          XC Gaussian exp screening on grid/accXCfunc:  20
          Schwarz screening/accCoul: 1.00D-08

 
      Superposition of Atomic Density Guess
      -------------------------------------
 
 Sum of atomic energies:         -31.72729480
 
      Non-variational initial energy
      ------------------------------

 Total energy =     -31.934051
 1-e energy   =     -90.491177
 2-e energy   =      33.233648
 HOMO         =      -0.380570
 LUMO         =      -0.044914
 
   Time after variat. SCF:      0.4
   Time prior to 1st pass:      0.4

 Grid_pts file          = /home/d3y133/nwchem-dev/nwchem-trunk-nonwad/QA/scratchdir/metagga_dat.gridpts.0
 Record size in doubles =  12289        No. of grid_pts per rec  =   3070
 Max. records in memory =     16        Max. recs in file   = 253312716

 Grid integrated density:      16.000129732132
 Requested integration accuracy:   0.10E-05

           Memory utilization after 1st SCF pass: 
           Heap Space remaining (MW):       12.88            12882468
          Stack Space remaining (MW):       13.11            13106180

   convergence    iter        energy       DeltaE   RMS-Dens  Diis-err    time
 ---------------- ----- ----------------- --------- --------- ---------  ------
 d= 0,ls=0.0,diis     1    -32.5668651027 -5.79D+01  2.15D-02  1.30D-01     3.6
 Grid integrated density:      16.000100585253
 Requested integration accuracy:   0.10E-05
 d= 0,ls=0.0,diis     2    -32.5981216372 -3.13D-02  4.89D-03  7.80D-03     6.7
 Grid integrated density:      16.000106772045
 Requested integration accuracy:   0.10E-05
 d= 0,ls=0.0,diis     3    -32.6002996454 -2.18D-03  8.82D-04  6.80D-04     9.9
 Grid integrated density:      16.000105432668
 Requested integration accuracy:   0.10E-05
 d= 0,ls=0.0,diis     4    -32.6004721364 -1.72D-04  2.38D-04  5.11D-06    13.1
 Grid integrated density:      16.000105735999
 Requested integration accuracy:   0.10E-05
 d= 0,ls=0.0,diis     5    -32.6004754342 -3.30D-06  1.83D-05  1.33D-07    16.3
 Grid integrated density:      16.000105803184
 Requested integration accuracy:   0.10E-05
 d= 0,ls=0.0,diis     6    -32.6004754980 -6.38D-08  2.16D-06  4.09D-09    19.5


         Total DFT energy =      -32.600475498011
      One electron energy =      -92.926522455160
           Coulomb energy =       44.147245146897
    Exchange-Corr. energy =       -9.144676510235
 Nuclear repulsion energy =       25.323478320486

 Numeric. integr. density =       16.000105803184

     Total iterative time =     19.1s


 
                       DFT Final Molecular Orbital Analysis
                       ------------------------------------
 
 Vector    1  Occ=2.000000D+00  E=-2.106807D+00
              MO Center=  2.7D-06,  2.2D-06,  2.0D-06, r^2= 2.4D+00
   Bfn.  Coefficient  Atom+Function         Bfn.  Coefficient  Atom+Function  
  ----- ------------  ---------------      ----- ------------  ---------------
     1      0.307543  1 Li s                 60      0.307544  5 Li s          
    89      0.307544  6 Li s                118      0.307544  7 Li s          
     2      0.208088  1 Li s                 61      0.208090  5 Li s          
    90      0.208090  6 Li s                119      0.208090  7 Li s          
 
 Vector    2  Occ=2.000000D+00  E=-2.105064D+00
              MO Center=  5.8D-01, -2.9D-01,  5.9D-01, r^2= 1.6D+00
   Bfn.  Coefficient  Atom+Function         Bfn.  Coefficient  Atom+Function  
  ----- ------------  ---------------      ----- ------------  ---------------
    89      0.505012  6 Li s                 90      0.334377  6 Li s          
   118     -0.253729  7 Li s                 60     -0.249070  5 Li s          
   102      0.191125  6 Li s                119     -0.167999  7 Li s          
    61     -0.164913  5 Li s          
 
 Vector    3  Occ=2.000000D+00  E=-2.105064D+00
              MO Center=  2.5D-03,  8.7D-01, -2.5D-03, r^2= 1.6D+00
   Bfn.  Coefficient  Atom+Function         Bfn.  Coefficient  Atom+Function  
  ----- ------------  ---------------      ----- ------------  ---------------
    60      0.437339  5 Li s                118     -0.436091  7 Li s          
    61      0.289570  5 Li s                119     -0.288743  7 Li s          
    73      0.165518  5 Li s                131     -0.165036  7 Li s          
 
 Vector    4  Occ=2.000000D+00  E=-2.105064D+00
              MO Center= -5.8D-01, -5.8D-01, -5.8D-01, r^2= 1.4D+00
   Bfn.  Coefficient  Atom+Function         Bfn.  Coefficient  Atom+Function  
  ----- ------------  ---------------      ----- ------------  ---------------
     1      0.534868  1 Li s                  2      0.354145  1 Li s          
    14      0.202453  1 Li s                 60     -0.181083  5 Li s          
   118     -0.177591  7 Li s                 89     -0.176191  6 Li s          
 
 Vector    5  Occ=2.000000D+00  E=-3.606518D-01
              MO Center=  8.5D-09, -5.7D-09,  3.6D-08, r^2= 3.2D+00
   Bfn.  Coefficient  Atom+Function         Bfn.  Coefficient  Atom+Function  
  ----- ------------  ---------------      ----- ------------  ---------------
     6      0.222946  1 Li s                 65      0.222950  5 Li s          
    94      0.222952  6 Li s                123      0.222954  7 Li s          
    32      0.164877  2 H  s                 42      0.164878  3 H  s          
    52      0.164879  4 H  s                149      0.164875  8 H  s          
 
 Vector    6  Occ=2.000000D+00  E=-2.857658D-01
              MO Center=  7.9D-01,  3.1D-01,  2.6D-01, r^2= 3.1D+00
   Bfn.  Coefficient  Atom+Function         Bfn.  Coefficient  Atom+Function  
  ----- ------------  ---------------      ----- ------------  ---------------
    14      0.439870  1 Li s                149      0.327966  8 H  s          
   131     -0.305868  7 Li s                148      0.257096  8 H  s          
    52     -0.228274  4 H  s                 10      0.198974  1 Li s          
    51     -0.178949  4 H  s                147      0.155772  8 H  s          
 
 Vector    7  Occ=2.000000D+00  E=-2.857658D-01
              MO Center= -2.9D-01, -7.1D-01,  4.4D-01, r^2= 3.1D+00
   Bfn.  Coefficient  Atom+Function         Bfn.  Coefficient  Atom+Function  
  ----- ------------  ---------------      ----- ------------  ---------------
    73      0.447074  5 Li s                 32      0.333587  2 H  s          
   131     -0.269177  7 Li s                 31      0.261505  2 H  s          
    69      0.202312  5 Li s                 52     -0.201018  4 H  s          
    14     -0.159324  1 Li s                 30      0.158443  2 H  s          
    51     -0.157583  4 H  s          
 
 Vector    8  Occ=2.000000D+00  E=-2.857658D-01
              MO Center= -5.0D-01,  4.0D-01, -7.0D-01, r^2= 3.0D+00
   Bfn.  Coefficient  Atom+Function         Bfn.  Coefficient  Atom+Function  
  ----- ------------  ---------------      ----- ------------  ---------------
   102      0.461295  6 Li s                 42      0.344322  3 H  s          
    41      0.269922  3 H  s                131     -0.239368  7 Li s          
    98      0.208788  6 Li s                 52     -0.178779  4 H  s          
    40      0.163543  3 H  s                 73     -0.150582  5 Li s          
 
 Vector    9  Occ=0.000000D+00  E=-3.711366D-02
              MO Center= -4.2D-07, -1.7D-06, -2.4D-06, r^2= 2.0D+01
   Bfn.  Coefficient  Atom+Function         Bfn.  Coefficient  Atom+Function  
  ----- ------------  ---------------      ----- ------------  ---------------
    10      0.326065  1 Li s                 69      0.326526  5 Li s          
    98      0.326692  6 Li s                127      0.326896  7 Li s          
    33     -0.178934  2 H  s                 43     -0.178941  3 H  s          
    53     -0.178950  4 H  s                150     -0.178915  8 H  s          
 
 Vector   10  Occ=0.000000D+00  E=-2.626475D-02
              MO Center= -8.3D-01, -9.6D-01, -1.3D+00, r^2= 1.8D+01
   Bfn.  Coefficient  Atom+Function         Bfn.  Coefficient  Atom+Function  
  ----- ------------  ---------------      ----- ------------  ---------------
    14      3.296919  1 Li s                 73     -1.650774  5 Li s          
   102     -1.001360  6 Li s                131     -0.644778  7 Li s          
   150      0.316059  8 H  s                 11     -0.259810  1 Li px         
    12     -0.252986  1 Li py                13     -0.240384  1 Li pz         
    15      0.228277  1 Li px                16      0.216207  1 Li py         
 
 Vector   11  Occ=0.000000D+00  E=-2.626474D-02
              MO Center=  1.5D+00,  1.7D-01, -1.1D-01, r^2= 1.9D+01
   Bfn.  Coefficient  Atom+Function         Bfn.  Coefficient  Atom+Function  
  ----- ------------  ---------------      ----- ------------  ---------------
    73      2.781508  5 Li s                102     -2.548584  6 Li s          
   131     -0.712519  7 Li s                 14      0.479599  1 Li s          
    33      0.267066  2 H  s                 43     -0.244829  3 H  s          
    72     -0.239392  5 Li pz                76      0.227437  5 Li pz         
   101     -0.224685  6 Li pz               105      0.217546  6 Li pz         
 
 Vector   12  Occ=0.000000D+00  E=-2.626473D-02
              MO Center= -6.6D-01,  7.9D-01,  1.4D+00, r^2= 1.8D+01
   Bfn.  Coefficient  Atom+Function         Bfn.  Coefficient  Atom+Function  
  ----- ------------  ---------------      ----- ------------  ---------------
   131      3.207714  7 Li s                102     -1.930306  6 Li s          
    73     -0.878315  5 Li s                 14     -0.399096  1 Li s          
    53      0.308360  4 H  s                128     -0.257934  7 Li px         
   129      0.248606  7 Li py               132      0.229796  7 Li px         
   130      0.228217  7 Li pz               133     -0.213387  7 Li py         
 
 Vector   13  Occ=0.000000D+00  E=-2.298300D-03
              MO Center=  2.2D-05,  5.2D-05,  2.5D-04, r^2= 3.3D+01
   Bfn.  Coefficient  Atom+Function         Bfn.  Coefficient  Atom+Function  
  ----- ------------  ---------------      ----- ------------  ---------------
   105     -0.497208  6 Li pz               134     -0.497013  7 Li pz         
    17      0.494288  1 Li pz                76      0.493131  5 Li pz         
    13      0.339852  1 Li pz                72      0.339664  5 Li pz         
   101     -0.340502  6 Li pz               130     -0.340471  7 Li pz         
    75      0.295050  5 Li py                16     -0.293215  1 Li py         
 
 Vector   14  Occ=0.000000D+00  E=-2.298299D-03
              MO Center=  3.9D-05,  1.1D-04, -5.8D-06, r^2= 3.3D+01
   Bfn.  Coefficient  Atom+Function         Bfn.  Coefficient  Atom+Function  
  ----- ------------  ---------------      ----- ------------  ---------------
    15      0.455816  1 Li px                74     -0.455452  5 Li px         
   103     -0.455840  6 Li px               132      0.454371  7 Li px         
   133      0.404016  7 Li py                16     -0.401663  1 Li py         
    75      0.403277  5 Li py               104     -0.401867  6 Li py         
    11      0.312691  1 Li px                70     -0.312661  5 Li px         
 
 Vector   15  Occ=0.000000D+00  E= 1.015857D-03
              MO Center=  1.3D+00,  1.5D+00,  2.0D+00, r^2= 4.3D+01
   Bfn.  Coefficient  Atom+Function         Bfn.  Coefficient  Atom+Function  
  ----- ------------  ---------------      ----- ------------  ---------------
    14     25.454657  1 Li s                 73    -12.056532  5 Li s          
   102     -7.873969  6 Li s                131     -5.524083  7 Li s          
    15      2.249672  1 Li px                16      2.120723  1 Li py         
    10      1.880421  1 Li s                 17      1.889447  1 Li pz         
    74      1.647318  5 Li px                75      1.516683  5 Li py         
 
 Vector   16  Occ=0.000000D+00  E= 1.017773D-03
              MO Center= -2.3D+00, -3.7D-01,  2.4D-01, r^2= 4.5D+01
   Bfn.  Coefficient  Atom+Function         Bfn.  Coefficient  Atom+Function  
  ----- ------------  ---------------      ----- ------------  ---------------
    73     21.735798  5 Li s                102    -19.078805  6 Li s          
   131     -5.793124  7 Li s                 14      3.136163  1 Li s          
    76      2.358815  5 Li pz               105      2.236910  6 Li pz         
    75     -1.860105  5 Li py               104     -1.743063  6 Li py         
   134      1.641679  7 Li pz                69      1.606251  5 Li s          
 
 Vector   17  Occ=0.000000D+00  E= 1.018816D-03
              MO Center=  9.2D-01, -1.1D+00, -2.2D+00, r^2= 4.4D+01
   Bfn.  Coefficient  Atom+Function         Bfn.  Coefficient  Atom+Function  
  ----- ------------  ---------------      ----- ------------  ---------------
   131     24.368277  7 Li s                102    -15.278580  6 Li s          
    73     -6.549685  5 Li s                 14     -2.540048  1 Li s          
   132      2.307572  7 Li px               133     -2.082700  7 Li py         
   103      1.898511  6 Li px               127      1.800960  7 Li s          
   104     -1.676352  6 Li py               134     -1.596580  7 Li pz         
 
 Vector   18  Occ=0.000000D+00  E= 7.018074D-03
              MO Center= -2.5D-04, -6.6D-04, -9.9D-04, r^2= 7.5D+01
   Bfn.  Coefficient  Atom+Function         Bfn.  Coefficient  Atom+Function  
  ----- ------------  ---------------      ----- ------------  ---------------
    15      0.638460  1 Li px                16      0.638924  1 Li py         
    17      0.639375  1 Li pz                74     -0.635332  5 Li px         
    75     -0.634816  5 Li py                76      0.636851  5 Li pz         
   103     -0.634398  6 Li px               104      0.635570  6 Li py         
   105     -0.633483  6 Li pz               132      0.633919  7 Li px         
 
 Vector   19  Occ=0.000000D+00  E= 1.313262D-02
              MO Center= -2.0D+00, -2.3D+00, -3.1D+00, r^2= 7.2D+01
   Bfn.  Coefficient  Atom+Function         Bfn.  Coefficient  Atom+Function  
  ----- ------------  ---------------      ----- ------------  ---------------
    14     78.092656  1 Li s                 73    -37.426324  5 Li s          
   102    -24.119763  6 Li s                131    -16.545721  7 Li s          
    15      8.619377  1 Li px                16      8.386749  1 Li py         
    17      7.968748  1 Li pz                74      5.151408  5 Li px         
    75      4.907787  5 Li py               103      4.018509  6 Li px         
 
 Vector   20  Occ=0.000000D+00  E= 1.313398D-02
              MO Center=  3.5D+00,  5.6D-01, -3.6D-01, r^2= 7.8D+01
   Bfn.  Coefficient  Atom+Function         Bfn.  Coefficient  Atom+Function  
  ----- ------------  ---------------      ----- ------------  ---------------
    73     66.754618  5 Li s                102    -58.787642  6 Li s          
   131    -17.990808  7 Li s                 14     10.024219  1 Li s          
    76      8.154396  5 Li pz               105      7.457891  6 Li pz         
    75     -7.244897  5 Li py               104     -6.579845  6 Li py         
    74     -5.952131  5 Li px               103      4.764685  6 Li px         
 
 Vector   21  Occ=0.000000D+00  E= 1.313472D-02
              MO Center= -1.4D+00,  1.7D+00,  3.4D+00, r^2= 7.4D+01
   Bfn.  Coefficient  Atom+Function         Bfn.  Coefficient  Atom+Function  
  ----- ------------  ---------------      ----- ------------  ---------------
   131     75.157344  7 Li s                102    -47.043615  6 Li s          
    73    -19.947203  5 Li s                132      8.561669  7 Li px         
    14     -8.166959  1 Li s                133     -8.173755  7 Li py         
   134     -7.304483  7 Li pz               103      6.151515  6 Li px         
   104     -5.781186  6 Li py                74      3.831454  5 Li px         
 
 Vector   22  Occ=0.000000D+00  E= 2.163978D-02
              MO Center= -3.1D-01,  1.2D-01, -2.0D-01, r^2= 7.8D+01
   Bfn.  Coefficient  Atom+Function         Bfn.  Coefficient  Atom+Function  
  ----- ------------  ---------------      ----- ------------  ---------------
   132     -7.601633  7 Li px                15      7.490447  1 Li px         
    76      6.766007  5 Li pz                17     -6.720312  1 Li pz         
    75      4.190988  5 Li py               133     -4.208701  7 Li py         
   105      3.306936  6 Li pz               134     -3.261237  7 Li pz         
   103     -2.520981  6 Li px                74      2.409797  5 Li px         
 
 Vector   23  Occ=0.000000D+00  E= 2.163983D-02
              MO Center= -3.9D-02, -2.6D-01,  1.4D-01, r^2= 7.8D+01
   Bfn.  Coefficient  Atom+Function         Bfn.  Coefficient  Atom+Function  
  ----- ------------  ---------------      ----- ------------  ---------------
   104     -7.484136  6 Li py                16      7.405404  1 Li py         
   134      6.321105  7 Li pz               105     -6.270223  6 Li pz         
    76      4.629718  5 Li pz                17     -4.578808  1 Li pz         
   133     -3.525536  7 Li py                75      3.446769  5 Li py         
   132      2.854810  7 Li px                15     -2.820069  1 Li px         
 
 Vector   24  Occ=0.000000D+00  E= 2.163993D-02
              MO Center=  3.6D-01,  1.6D-01,  9.7D-02, r^2= 7.8D+01
   Bfn.  Coefficient  Atom+Function         Bfn.  Coefficient  Atom+Function  
  ----- ------------  ---------------      ----- ------------  ---------------
    74      7.839443  5 Li px               103     -7.839072  6 Li px         
    75     -6.218030  5 Li py               133      6.224703  7 Li py         
   105      4.234836  6 Li pz               134     -4.231598  7 Li pz         
    16      3.608022  1 Li py               104     -3.601336  6 Li py         
    15     -1.983695  1 Li px               132      1.984085  7 Li px         
 
 Vector   25  Occ=0.000000D+00  E= 2.500997D-02
              MO Center=  3.0D-06, -5.0D-06, -6.2D-05, r^2= 6.1D+01
   Bfn.  Coefficient  Atom+Function         Bfn.  Coefficient  Atom+Function  
  ----- ------------  ---------------      ----- ------------  ---------------
   105     -1.139167  6 Li pz               134     -1.138830  7 Li pz         
    17      1.127494  1 Li pz                76      1.123677  5 Li pz         
    75      0.596254  5 Li py                16     -0.589758  1 Li py         
   104     -0.585572  6 Li py               133      0.588458  7 Li py         
    74      0.548318  5 Li px                15     -0.542238  1 Li px         
 
 Vector   26  Occ=0.000000D+00  E= 2.500997D-02
              MO Center= -4.7D-06, -3.0D-05, -3.2D-06, r^2= 6.1D+01
   Bfn.  Coefficient  Atom+Function         Bfn.  Coefficient  Atom+Function  
  ----- ------------  ---------------      ----- ------------  ---------------
    15      0.995873  1 Li px                74     -0.994210  5 Li px         
   103     -0.996298  6 Li px               132      0.991112  7 Li px         
    75      0.969612  5 Li py               133      0.971701  7 Li py         
    16     -0.962706  1 Li py               104     -0.963250  6 Li py         
    11     -0.442217  1 Li px                70      0.442654  5 Li px         
 
 Vector   27  Occ=0.000000D+00  E= 2.709947D-02
              MO Center=  6.4D-01,  7.4D-01,  9.8D-01, r^2= 7.3D+01
   Bfn.  Coefficient  Atom+Function         Bfn.  Coefficient  Atom+Function  
  ----- ------------  ---------------      ----- ------------  ---------------
    14    141.031399  1 Li s                 73    -64.987049  5 Li s          
   102    -43.940982  6 Li s                131    -32.030437  7 Li s          
    15     13.337223  1 Li px                16     12.840780  1 Li py         
    17     11.986864  1 Li pz                74      8.413501  5 Li px         
    75      7.944202  5 Li py               103      7.075227  6 Li px         
 
 Vector   28  Occ=0.000000D+00  E= 2.711429D-02
              MO Center= -1.2D+00, -2.1D-01,  8.3D-02, r^2= 7.4D+01
   Bfn.  Coefficient  Atom+Function         Bfn.  Coefficient  Atom+Function  
  ----- ------------  ---------------      ----- ------------  ---------------
    73    121.618487  5 Li s                102   -104.535770  6 Li s          
   131    -32.906389  7 Li s                 14     15.858119  1 Li s          
    76     13.175546  5 Li pz               105     12.086096  6 Li pz         
    75    -11.273972  5 Li py               104    -10.105259  6 Li py         
    74     -8.399202  5 Li px               134      7.536457  7 Li pz         
 
 Vector   29  Occ=0.000000D+00  E= 2.712217D-02
              MO Center=  5.4D-01, -6.6D-01, -1.3D+00, r^2= 7.3D+01
   Bfn.  Coefficient  Atom+Function         Bfn.  Coefficient  Atom+Function  
  ----- ------------  ---------------      ----- ------------  ---------------
   131    134.702132  7 Li s                102    -86.195746  6 Li s          
    73    -35.903180  5 Li s                132     13.331947  7 Li px         
    14    -12.643563  1 Li s                133    -12.436092  7 Li py         
   134    -10.445518  7 Li pz               103     10.347756  6 Li px         
   104     -9.407222  6 Li py                74      7.184256  5 Li px         
 
 Vector   30  Occ=0.000000D+00  E= 2.729122D-02
              MO Center=  3.4D-02,  1.0D-01,  1.6D-01, r^2= 6.0D+01
   Bfn.  Coefficient  Atom+Function         Bfn.  Coefficient  Atom+Function  
  ----- ------------  ---------------      ----- ------------  ---------------
    14      5.596466  1 Li s                131     -5.224942  7 Li s          
   102     -2.238600  6 Li s                134      1.925847  7 Li pz         
   133      1.835268  7 Li py               105      1.737232  6 Li pz         
   132     -1.611804  7 Li px               103      1.527305  6 Li px         
    75      1.504208  5 Li py                74      1.384557  5 Li px         
 
 Vector   31  Occ=0.000000D+00  E= 4.640901D-02
              MO Center= -3.8D-01, -4.3D-01, -5.6D-01, r^2= 6.4D+01
   Bfn.  Coefficient  Atom+Function         Bfn.  Coefficient  Atom+Function  
  ----- ------------  ---------------      ----- ------------  ---------------
    14    141.249912  1 Li s                 73    -66.897942  5 Li s          
   102    -43.678064  6 Li s                131    -30.674132  7 Li s          
    15     14.507042  1 Li px                16     14.104676  1 Li py         
    17     13.388060  1 Li pz                10     12.200959  1 Li s          
    74      8.665409  5 Li px                75      8.265125  5 Li py         
 
 Vector   32  Occ=0.000000D+00  E= 4.643081D-02
              MO Center=  6.4D-01,  1.1D-01, -6.9D-02, r^2= 6.4D+01
   Bfn.  Coefficient  Atom+Function         Bfn.  Coefficient  Atom+Function  
  ----- ------------  ---------------      ----- ------------  ---------------
    73    121.092591  5 Li s                102   -106.307286  6 Li s          
   131    -32.258381  7 Li s                 14     17.472971  1 Li s          
    76     13.782644  5 Li pz               105     12.624682  6 Li pz         
    75    -12.253199  5 Li py               104    -11.089268  6 Li py         
    69     10.440103  5 Li s                 74     -9.969680  5 Li px         
 
 Vector   33  Occ=0.000000D+00  E= 4.644272D-02
              MO Center= -2.7D-01,  3.2D-01,  6.3D-01, r^2= 6.4D+01
   Bfn.  Coefficient  Atom+Function         Bfn.  Coefficient  Atom+Function  
  ----- ------------  ---------------      ----- ------------  ---------------
   131    136.062861  7 Li s                102    -85.302568  6 Li s          
    73    -36.597144  5 Li s                132     14.445449  7 Li px         
    14    -14.163030  1 Li s                133    -13.756382  7 Li py         
   134    -12.256289  7 Li pz               127     11.716435  7 Li s          
   103     10.458631  6 Li px               104     -9.766227  6 Li py         
 
 Vector   34  Occ=0.000000D+00  E= 5.442591D-02
              MO Center=  2.5D-01,  2.8D-01,  3.4D-01, r^2= 4.7D+01
   Bfn.  Coefficient  Atom+Function         Bfn.  Coefficient  Atom+Function  
  ----- ------------  ---------------      ----- ------------  ---------------
   105      5.732537  6 Li pz               134     -5.728381  7 Li pz         
    75     -5.252781  5 Li py               133      5.243119  7 Li py         
    74      4.918739  5 Li px               103     -4.912524  6 Li px         
   101     -3.134282  6 Li pz               130      3.134494  7 Li pz         
    71      2.872050  5 Li py               129     -2.872546  7 Li py         
 
 Vector   35  Occ=0.000000D+00  E= 5.442598D-02
              MO Center= -3.9D-01, -1.1D-01,  7.2D-02, r^2= 4.7D+01
   Bfn.  Coefficient  Atom+Function         Bfn.  Coefficient  Atom+Function  
  ----- ------------  ---------------      ----- ------------  ---------------
    15      6.297917  1 Li px               132     -6.276410  7 Li px         
    16     -4.593364  1 Li py               104      4.588406  6 Li py         
    11     -3.440984  1 Li px               128      3.442094  7 Li px         
    75      3.180723  5 Li py               133     -3.185688  7 Li py         
   105      3.118514  6 Li pz               134     -3.120244  7 Li pz         
 
 Vector   36  Occ=0.000000D+00  E= 5.442602D-02
              MO Center=  1.4D-01, -1.6D-01, -4.1D-01, r^2= 4.7D+01
   Bfn.  Coefficient  Atom+Function         Bfn.  Coefficient  Atom+Function  
  ----- ------------  ---------------      ----- ------------  ---------------
    17      6.308325  1 Li pz                76     -6.294613  5 Li pz         
    16     -4.586447  1 Li py               104      4.573335  6 Li py         
    74     -4.056837  5 Li px               103      4.046894  6 Li px         
    13     -3.450812  1 Li pz                72      3.451520  5 Li pz         
    12      2.506531  1 Li py               100     -2.507217  6 Li py         
 
 Vector   37  Occ=0.000000D+00  E= 5.657192D-02
              MO Center= -2.1D-03, -5.3D-03, -7.9D-03, r^2= 4.2D+01
   Bfn.  Coefficient  Atom+Function         Bfn.  Coefficient  Atom+Function  
  ----- ------------  ---------------      ----- ------------  ---------------
    33      5.961009  2 H  s                 43      5.964085  3 H  s          
    53      5.967853  4 H  s                150      5.952264  8 H  s          
    10     -4.493391  1 Li s                 69     -4.439715  5 Li s          
    98     -4.420702  6 Li s                127     -4.397414  7 Li s          
    11     -2.296690  1 Li px                12     -2.297478  1 Li py         
 
 Vector   38  Occ=0.000000D+00  E= 5.801617D-02
              MO Center= -3.5D-01,  4.3D-01,  8.4D-01, r^2= 3.0D+01
   Bfn.  Coefficient  Atom+Function         Bfn.  Coefficient  Atom+Function  
  ----- ------------  ---------------      ----- ------------  ---------------
   127     32.730606  7 Li s                131     22.124659  7 Li s          
    98    -20.586905  6 Li s                102    -13.916329  6 Li s          
    69     -8.725555  5 Li s                128      6.852894  7 Li px         
   129     -6.614130  7 Li py               130     -6.083708  7 Li pz         
    73     -5.899363  5 Li s                 53      4.846539  4 H  s          
 
 Vector   39  Occ=0.000000D+00  E= 5.801648D-02
              MO Center=  8.5D-01,  1.4D-01, -8.9D-02, r^2= 3.0D+01
   Bfn.  Coefficient  Atom+Function         Bfn.  Coefficient  Atom+Function  
  ----- ------------  ---------------      ----- ------------  ---------------
    69     29.158579  5 Li s                 98    -25.551950  6 Li s          
    73     19.694595  5 Li s                102    -17.251848  6 Li s          
   127     -7.857575  7 Li s                 72      6.428033  5 Li pz         
    71     -5.886321  5 Li py               101      5.818406  6 Li pz         
   100     -5.279398  6 Li py               131     -5.301960  7 Li s          
 
 Vector   40  Occ=0.000000D+00  E= 5.801704D-02
              MO Center= -5.0D-01, -5.6D-01, -7.4D-01, r^2= 3.0D+01
   Bfn.  Coefficient  Atom+Function         Bfn.  Coefficient  Atom+Function  
  ----- ------------  ---------------      ----- ------------  ---------------
    10     34.015065  1 Li s                 14     22.929739  1 Li s          
    69    -16.147583  5 Li s                 73    -10.875455  5 Li s          
    98    -10.514927  6 Li s                127     -7.380844  7 Li s          
   102     -7.089366  6 Li s                 11      6.945721  1 Li px         
    12      6.806369  1 Li py                13      6.555416  1 Li pz         
 
 Vector   41  Occ=0.000000D+00  E= 9.038005D-02
              MO Center=  2.0D-07, -5.2D-06, -8.3D-06, r^2= 2.5D+01
   Bfn.  Coefficient  Atom+Function         Bfn.  Coefficient  Atom+Function  
  ----- ------------  ---------------      ----- ------------  ---------------
    13      0.874010  1 Li pz                72      0.874016  5 Li pz         
   101     -0.874026  6 Li pz               130     -0.874025  7 Li pz         
    12     -0.783285  1 Li py                71      0.783293  5 Li py         
   100     -0.783288  6 Li py               129      0.783294  7 Li py         
    17     -0.558766  1 Li pz                76     -0.558793  5 Li pz         
 
 Vector   42  Occ=0.000000D+00  E= 9.038005D-02
              MO Center= -2.8D-06, -1.7D-06, -2.0D-06, r^2= 2.5D+01
   Bfn.  Coefficient  Atom+Function         Bfn.  Coefficient  Atom+Function  
  ----- ------------  ---------------      ----- ------------  ---------------
    11      0.956840  1 Li px                70     -0.956848  5 Li px         
    99     -0.956852  6 Li px               128      0.956852  7 Li px         
    15     -0.611678  1 Li px                74      0.611676  5 Li px         
   103      0.611676  6 Li px               132     -0.611722  7 Li px         
     7     -0.583381  1 Li px                66      0.583386  5 Li px         
 
 Vector   43  Occ=0.000000D+00  E= 9.685097D-02
              MO Center= -5.0D-01, -5.7D-01, -7.5D-01, r^2= 3.4D+01
   Bfn.  Coefficient  Atom+Function         Bfn.  Coefficient  Atom+Function  
  ----- ------------  ---------------      ----- ------------  ---------------
    14    111.892973  1 Li s                 73    -53.027456  5 Li s          
   102    -34.585829  6 Li s                131    -24.279369  7 Li s          
    15     10.637621  1 Li px                16     10.260162  1 Li py         
    17      9.586503  1 Li pz                74      6.722175  5 Li px         
    75      6.346725  5 Li py               103      5.495281  6 Li px         
 
 Vector   44  Occ=0.000000D+00  E= 9.686574D-02
              MO Center=  8.5D-01,  1.4D-01, -9.1D-02, r^2= 3.4D+01
   Bfn.  Coefficient  Atom+Function         Bfn.  Coefficient  Atom+Function  
  ----- ------------  ---------------      ----- ------------  ---------------
    73     95.927616  5 Li s                102    -84.225482  6 Li s          
   131    -25.579040  7 Li s                 14     13.877056  1 Li s          
    76     10.382383  5 Li pz               105      9.607011  6 Li pz         
    75     -8.946589  5 Li py               104     -8.165410  6 Li py         
    74     -6.806499  5 Li px               134      5.705371  7 Li pz         
 
 Vector   45  Occ=0.000000D+00  E= 9.687384D-02
              MO Center= -3.5D-01,  4.3D-01,  8.4D-01, r^2= 3.4D+01
   Bfn.  Coefficient  Atom+Function         Bfn.  Coefficient  Atom+Function  
  ----- ------------  ---------------      ----- ------------  ---------------
   131    107.804770  7 Li s                102    -67.594126  6 Li s          
    73    -28.977240  5 Li s                 14    -11.233574  1 Li s          
   132     10.689449  7 Li px               133    -10.044695  7 Li py         
   134     -8.637496  7 Li pz               103      8.017188  6 Li px         
   104     -7.369178  6 Li py                74      5.450170  5 Li px         
 
 Vector   46  Occ=0.000000D+00  E= 1.066532D-01
              MO Center=  2.7D-04,  7.2D-04,  1.1D-03, r^2= 3.4D+01
   Bfn.  Coefficient  Atom+Function         Bfn.  Coefficient  Atom+Function  
  ----- ------------  ---------------      ----- ------------  ---------------
    10      4.122886  1 Li s                 69      4.124600  5 Li s          
    98      4.125221  6 Li s                127      4.125989  7 Li s          
    33     -2.285261  2 H  s                 43     -2.285110  3 H  s          
    53     -2.284927  4 H  s                150     -2.285644  8 H  s          
   105      1.056494  6 Li pz               133      1.057182  7 Li py         
 
 Vector   47  Occ=0.000000D+00  E= 1.162101D-01
              MO Center=  3.6D-01,  4.1D-01,  5.4D-01, r^2= 2.5D+01
   Bfn.  Coefficient  Atom+Function         Bfn.  Coefficient  Atom+Function  
  ----- ------------  ---------------      ----- ------------  ---------------
    10     32.983876  1 Li s                 69    -15.592868  5 Li s          
    98    -10.197970  6 Li s                150     -7.817850  8 H  s          
   127     -7.173772  7 Li s                 11      5.397367  1 Li px         
    12      5.074198  1 Li py                13      4.498106  1 Li pz         
    70      4.002507  5 Li px                33      3.688120  2 H  s          
 
 Vector   48  Occ=0.000000D+00  E= 1.162319D-01
              MO Center= -6.2D-01, -1.0D-01,  6.6D-02, r^2= 2.5D+01
   Bfn.  Coefficient  Atom+Function         Bfn.  Coefficient  Atom+Function  
  ----- ------------  ---------------      ----- ------------  ---------------
    69     28.271136  5 Li s                 98    -24.792413  6 Li s          
   127     -7.531652  7 Li s                 33     -6.698685  2 H  s          
    43      5.870025  3 H  s                 72      5.716797  5 Li pz         
   101      5.437855  6 Li pz                71     -4.479654  5 Li py         
   100     -4.199614  6 Li py                10      4.061546  1 Li s          
 
 Vector   49  Occ=0.000000D+00  E= 1.162439D-01
              MO Center=  2.5D-01, -3.1D-01, -6.1D-01, r^2= 2.5D+01
   Bfn.  Coefficient  Atom+Function         Bfn.  Coefficient  Atom+Function  
  ----- ------------  ---------------      ----- ------------  ---------------
   127     31.735085  7 Li s                 98    -19.915637  6 Li s          
    69     -8.537702  5 Li s                 53     -7.514176  4 H  s          
   128      5.579854  7 Li px               129     -5.020158  7 Li py         
    43      4.719852  3 H  s                 99      4.633887  6 Li px         
   100     -4.073574  6 Li py               130     -3.805509  7 Li pz         
 
 Vector   50  Occ=0.000000D+00  E= 1.223250D-01
              MO Center= -2.2D-04, -5.3D-04, -7.9D-04, r^2= 2.5D+01
   Bfn.  Coefficient  Atom+Function         Bfn.  Coefficient  Atom+Function  
  ----- ------------  ---------------      ----- ------------  ---------------
    33     16.279227  2 H  s                 43     16.280685  3 H  s          
    53     16.282467  4 H  s                150     16.275076  8 H  s          
    10    -11.686974  1 Li s                 69    -11.701273  5 Li s          
    98    -11.706365  6 Li s                127    -11.712586  7 Li s          
    11     -3.406923  1 Li px                12     -3.406073  1 Li py         
 
 Vector   51  Occ=0.000000D+00  E= 1.551882D-01
              MO Center=  2.2D-01,  2.5D-01,  3.7D-01, r^2= 1.9D+01
   Bfn.  Coefficient  Atom+Function         Bfn.  Coefficient  Atom+Function  
  ----- ------------  ---------------      ----- ------------  ---------------
   101      3.036809  6 Li pz               130     -3.037048  7 Li pz         
   105     -2.665519  6 Li pz               134      2.665100  7 Li pz         
    71     -2.558967  5 Li py               129      2.559589  7 Li py         
    97     -2.445263  6 Li pz               126      2.445161  7 Li pz         
    70      2.402044  5 Li px                99     -2.402482  6 Li px         
 
 Vector   52  Occ=0.000000D+00  E= 1.551882D-01
              MO Center= -3.8D-01, -5.1D-02,  3.0D-02, r^2= 1.9D+01
   Bfn.  Coefficient  Atom+Function         Bfn.  Coefficient  Atom+Function  
  ----- ------------  ---------------      ----- ------------  ---------------
    11      3.213393  1 Li px               128     -3.214712  7 Li px         
    15     -2.820884  1 Li px               132      2.818814  7 Li px         
     7     -2.587809  1 Li px               124      2.587294  7 Li px         
    12     -2.189361  1 Li py               100      2.189523  6 Li py         
    16      1.920556  1 Li py               104     -1.920199  6 Li py         
 
 Vector   53  Occ=0.000000D+00  E= 1.551882D-01
              MO Center=  1.6D-01, -1.9D-01, -4.0D-01, r^2= 1.9D+01
   Bfn.  Coefficient  Atom+Function         Bfn.  Coefficient  Atom+Function  
  ----- ------------  ---------------      ----- ------------  ---------------
    13      3.166181  1 Li pz                72     -3.167034  5 Li pz         
    17     -2.778283  1 Li pz                76      2.776988  5 Li pz         
     9     -2.549348  1 Li pz                68      2.549019  5 Li pz         
    12     -2.429595  1 Li py               100      2.430330  6 Li py         
    70     -2.146266  5 Li px                99      2.146859  6 Li px         
 
 Vector   54  Occ=0.000000D+00  E= 1.635145D-01
              MO Center=  9.5D-02,  1.1D-01,  1.4D-01, r^2= 2.0D+01
   Bfn.  Coefficient  Atom+Function         Bfn.  Coefficient  Atom+Function  
  ----- ------------  ---------------      ----- ------------  ---------------
    14     50.318443  1 Li s                 73    -23.859625  5 Li s          
   102    -15.544717  6 Li s                131    -10.914153  7 Li s          
    10     -6.621233  1 Li s                 15      5.226904  1 Li px         
    16      5.091725  1 Li py                17      4.849514  1 Li pz         
   150     -4.421639  8 H  s                 69      3.139220  5 Li s          
 
 Vector   55  Occ=0.000000D+00  E= 1.635176D-01
              MO Center= -1.6D-01, -2.7D-02,  1.7D-02, r^2= 2.0D+01
   Bfn.  Coefficient  Atom+Function         Bfn.  Coefficient  Atom+Function  
  ----- ------------  ---------------      ----- ------------  ---------------
    73     43.117038  5 Li s                102    -37.858201  6 Li s          
   131    -11.511546  7 Li s                 14      6.252686  1 Li s          
    69     -5.674365  5 Li s                 98      4.982021  6 Li s          
    76      4.931923  5 Li pz               105      4.506421  6 Li pz         
    75     -4.416071  5 Li py               104     -3.988818  6 Li py         
 
 Vector   56  Occ=0.000000D+00  E= 1.635193D-01
              MO Center=  6.6D-02, -8.1D-02, -1.6D-01, r^2= 2.0D+01
   Bfn.  Coefficient  Atom+Function         Bfn.  Coefficient  Atom+Function  
  ----- ------------  ---------------      ----- ------------  ---------------
   131     48.445620  7 Li s                102    -30.384511  6 Li s          
    73    -13.012287  5 Li s                127     -6.375855  7 Li s          
   132      5.190151  7 Li px                14     -5.048796  1 Li s          
   133     -4.959172  7 Li py               134     -4.454097  7 Li pz         
    53     -4.256546  4 H  s                 98      3.998812  6 Li s          
 
 Vector   57  Occ=0.000000D+00  E= 1.938721D-01
              MO Center= -3.2D-01, -3.6D-01, -4.7D-01, r^2= 1.8D+01
   Bfn.  Coefficient  Atom+Function         Bfn.  Coefficient  Atom+Function  
  ----- ------------  ---------------      ----- ------------  ---------------
    14     47.590566  1 Li s                 73    -22.375049  5 Li s          
    10     17.436914  1 Li s                102    -14.750603  6 Li s          
   131    -10.464977  7 Li s                  6    -10.391752  1 Li s          
    69     -8.198201  5 Li s                 98     -5.404712  6 Li s          
     7     -5.226948  1 Li px                 8     -5.040403  1 Li py         
 
 Vector   58  Occ=0.000000D+00  E= 1.938779D-01
              MO Center=  5.4D-01,  9.3D-02, -6.0D-02, r^2= 1.9D+01
   Bfn.  Coefficient  Atom+Function         Bfn.  Coefficient  Atom+Function  
  ----- ------------  ---------------      ----- ------------  ---------------
    73     40.855032  5 Li s                102    -35.697804  6 Li s          
    69     14.961344  5 Li s                 98    -13.072749  6 Li s          
   131    -10.903593  7 Li s                 65     -8.916114  5 Li s          
    94      7.790531  6 Li s                 14      5.746337  1 Li s          
    68     -5.125403  5 Li pz                97     -4.734244  6 Li pz         
 
 Vector   59  Occ=0.000000D+00  E= 1.938811D-01
              MO Center= -2.2D-01,  2.7D-01,  5.3D-01, r^2= 1.9D+01
   Bfn.  Coefficient  Atom+Function         Bfn.  Coefficient  Atom+Function  
  ----- ------------  ---------------      ----- ------------  ---------------
   131     45.760858  7 Li s                102    -28.806715  6 Li s          
   127     16.753170  7 Li s                 73    -12.303412  5 Li s          
    98    -10.546149  6 Li s                123     -9.983691  7 Li s          
    94      6.284744  6 Li s                124     -5.257078  7 Li px         
   125      4.924334  7 Li py                14     -4.650700  1 Li s          
 
 Vector   60  Occ=0.000000D+00  E= 2.534258D-01
              MO Center= -1.3D-06, -3.0D-06, -4.4D-06, r^2= 1.1D+01
   Bfn.  Coefficient  Atom+Function         Bfn.  Coefficient  Atom+Function  
  ----- ------------  ---------------      ----- ------------  ---------------
    33      5.768283  2 H  s                 43      5.768273  3 H  s          
    53      5.768261  4 H  s                150      5.768305  8 H  s          
    10     -4.065090  1 Li s                 69     -4.064975  5 Li s          
    98     -4.064918  6 Li s                127     -4.064847  7 Li s          
    11     -0.594607  1 Li px                12     -0.594588  1 Li py         
 
 Vector   61  Occ=0.000000D+00  E= 2.729241D-01
              MO Center= -2.7D-06, -6.4D-06, -9.4D-06, r^2= 1.1D+01
   Bfn.  Coefficient  Atom+Function         Bfn.  Coefficient  Atom+Function  
  ----- ------------  ---------------      ----- ------------  ---------------
    33      8.301554  2 H  s                 43      8.301581  3 H  s          
    53      8.301615  4 H  s                150      8.301478  8 H  s          
    10     -5.620893  1 Li s                 69     -5.621630  5 Li s          
    98     -5.621872  6 Li s                127     -5.622168  7 Li s          
    32     -3.857757  2 H  s                 42     -3.857810  3 H  s          
 
 Vector   62  Occ=0.000000D+00  E= 2.890943D-01
              MO Center= -1.7D-07,  7.9D-07,  5.7D-07, r^2= 1.0D+01
   Bfn.  Coefficient  Atom+Function         Bfn.  Coefficient  Atom+Function  
  ----- ------------  ---------------      ----- ------------  ---------------
    28      0.913623  1 Li dyz               87     -0.913640  5 Li dyz        
   116     -0.913619  6 Li dyz              145      0.913631  7 Li dyz        
     7      0.650563  1 Li px                66     -0.650534  5 Li px         
    95     -0.650472  6 Li px               124      0.650392  7 Li px         
    25     -0.593140  1 Li dxy               84     -0.593154  5 Li dxy        
 
 Vector   63  Occ=0.000000D+00  E= 2.890943D-01
              MO Center=  5.2D-07,  8.7D-07,  2.3D-06, r^2= 1.0D+01
   Bfn.  Coefficient  Atom+Function         Bfn.  Coefficient  Atom+Function  
  ----- ------------  ---------------      ----- ------------  ---------------
    26      0.869912  1 Li dxz               85     -0.869947  5 Li dxz        
   114      0.869959  6 Li dxz              143     -0.869938  7 Li dxz        
    25     -0.712515  1 Li dxy               84     -0.712499  5 Li dxy        
   113      0.712515  6 Li dxy              142      0.712518  7 Li dxy        
     8      0.619396  1 Li py                67     -0.619441  5 Li py         
 
 Vector   64  Occ=0.000000D+00  E= 2.975017D-01
              MO Center=  1.2D-01, -1.5D-01, -2.9D-01, r^2= 9.5D+00
   Bfn.  Coefficient  Atom+Function         Bfn.  Coefficient  Atom+Function  
  ----- ------------  ---------------      ----- ------------  ---------------
    29      1.154643  1 Li dzz               88     -1.154822  5 Li dzz        
     9      0.931714  1 Li pz                68     -0.933655  5 Li pz         
    27     -0.896525  1 Li dyy              115      0.896682  6 Li dyy        
    83      0.780277  5 Li dxx              112     -0.780394  6 Li dxx        
     8     -0.722794  1 Li py                96      0.724528  6 Li py         
 
 Vector   65  Occ=0.000000D+00  E= 2.975017D-01
              MO Center= -2.9D-01, -4.6D-02,  2.8D-02, r^2= 9.5D+00
   Bfn.  Coefficient  Atom+Function         Bfn.  Coefficient  Atom+Function  
  ----- ------------  ---------------      ----- ------------  ---------------
    24      1.181991  1 Li dxx              141     -1.182276  7 Li dxx        
     7      0.952577  1 Li px               124     -0.955663  7 Li px         
    27     -0.799774  1 Li dyy              115      0.799818  6 Li dyy        
    86     -0.657100  5 Li dyy              144      0.657065  7 Li dyy        
     8     -0.645953  1 Li py                96      0.646402  6 Li py         
 
 Vector   66  Occ=0.000000D+00  E= 2.975017D-01
              MO Center=  1.7D-01,  1.9D-01,  2.6D-01, r^2= 9.5D+00
   Bfn.  Coefficient  Atom+Function         Bfn.  Coefficient  Atom+Function  
  ----- ------------  ---------------      ----- ------------  ---------------
   117      1.092591  6 Li dzz              146     -1.092640  7 Li dzz        
    86     -0.954473  5 Li dyy              144      0.954599  7 Li dyy        
    83      0.893480  5 Li dxx              112     -0.893573  6 Li dxx        
    97     -0.880591  6 Li pz               126      0.881125  7 Li pz         
    67      0.769669  5 Li py               125     -0.771058  7 Li py         
 
 Vector   67  Occ=0.000000D+00  E= 3.005776D-01
              MO Center= -3.1D-01, -3.5D-01, -4.5D-01, r^2= 1.6D+01
   Bfn.  Coefficient  Atom+Function         Bfn.  Coefficient  Atom+Function  
  ----- ------------  ---------------      ----- ------------  ---------------
    14     50.098546  1 Li s                 73    -23.449628  5 Li s          
   102    -15.546679  6 Li s                  6    -14.544578  1 Li s          
   131    -11.102213  7 Li s                  7     -6.816426  1 Li px         
    65      6.807753  5 Li s                  8     -6.715688  1 Li py         
     9     -6.536325  1 Li pz                15      4.672269  1 Li px         
 
 Vector   68  Occ=0.000000D+00  E= 3.005862D-01
              MO Center=  5.2D-01,  9.2D-02, -5.9D-02, r^2= 1.6D+01
   Bfn.  Coefficient  Atom+Function         Bfn.  Coefficient  Atom+Function  
  ----- ------------  ---------------      ----- ------------  ---------------
    73     43.042068  5 Li s                102    -37.510922  6 Li s          
    65    -12.491460  5 Li s                131    -11.491103  7 Li s          
    94     10.886078  6 Li s                 68     -6.207142  5 Li pz         
    14      5.959968  1 Li s                 67      5.809862  5 Li py         
    97     -5.551834  6 Li pz                66      5.218881  5 Li px         
 
 Vector   69  Occ=0.000000D+00  E= 3.005908D-01
              MO Center= -2.1D-01,  2.6D-01,  5.1D-01, r^2= 1.6D+01
   Bfn.  Coefficient  Atom+Function         Bfn.  Coefficient  Atom+Function  
  ----- ------------  ---------------      ----- ------------  ---------------
   131     48.124760  7 Li s                102    -30.362249  6 Li s          
   123    -13.963640  7 Li s                 73    -12.945549  5 Li s          
    94      8.809565  6 Li s                124     -6.677862  7 Li px         
   125      6.492687  7 Li py               126      6.096794  7 Li pz         
    14     -4.816975  1 Li s                132      4.705205  7 Li px         
 
 Vector   70  Occ=0.000000D+00  E= 3.489974D-01
              MO Center=  2.7D-01,  3.0D-01,  4.4D-01, r^2= 1.5D+01
   Bfn.  Coefficient  Atom+Function         Bfn.  Coefficient  Atom+Function  
  ----- ------------  ---------------      ----- ------------  ---------------
    97      5.682341  6 Li pz               126     -5.683004  7 Li pz         
    67     -4.844719  5 Li py               125      4.846213  7 Li py         
    66      4.507928  5 Li px                95     -4.508928  6 Li px         
   113     -3.047073  6 Li dxy              142      3.046623  7 Li dxy        
   101     -2.753076  6 Li pz               130      2.752938  7 Li pz         
 
 Vector   71  Occ=0.000000D+00  E= 3.489979D-01
              MO Center= -4.8D-01, -5.5D-02,  3.3D-02, r^2= 1.5D+01
   Bfn.  Coefficient  Atom+Function         Bfn.  Coefficient  Atom+Function  
  ----- ------------  ---------------      ----- ------------  ---------------
     7      6.067280  1 Li px               124     -6.070282  7 Li px         
     8     -4.034550  1 Li py                96      4.035065  6 Li py         
    67      3.511003  5 Li py               125     -3.510374  7 Li py         
    28     -3.253985  1 Li dyz              145      3.251802  7 Li dyz        
    11     -2.940014  1 Li px               128      2.939464  7 Li px         
 
 Vector   72  Occ=0.000000D+00  E= 3.489981D-01
              MO Center=  2.1D-01, -2.5D-01, -4.8D-01, r^2= 1.5D+01
   Bfn.  Coefficient  Atom+Function         Bfn.  Coefficient  Atom+Function  
  ----- ------------  ---------------      ----- ------------  ---------------
     9      5.906720  1 Li pz                68     -5.908544  5 Li pz         
     8     -4.634809  1 Li py                96      4.636788  6 Li py         
    66     -4.078357  5 Li px                95      4.079563  6 Li px         
    25     -3.166570  1 Li dxy               84      3.165237  5 Li dxy        
    13     -2.861621  1 Li pz                72      2.861316  5 Li pz         
 
 Vector   73  Occ=0.000000D+00  E= 3.595324D-01
              MO Center= -1.8D-01, -2.0D-01, -2.7D-01, r^2= 1.1D+01
   Bfn.  Coefficient  Atom+Function         Bfn.  Coefficient  Atom+Function  
  ----- ------------  ---------------      ----- ------------  ---------------
    14     15.583475  1 Li s                 10    -10.078711  1 Li s          
    73     -7.307260  5 Li s                  6     -6.347422  1 Li s          
   102     -4.830386  6 Li s                 69      4.725522  5 Li s          
   149      4.236752  8 H  s                  7     -3.549690  1 Li px         
   131     -3.445807  7 Li s                  8     -3.329047  1 Li py         
 
 Vector   74  Occ=0.000000D+00  E= 3.595408D-01
              MO Center=  3.1D-01,  5.3D-02, -3.4D-02, r^2= 1.1D+01
   Bfn.  Coefficient  Atom+Function         Bfn.  Coefficient  Atom+Function  
  ----- ------------  ---------------      ----- ------------  ---------------
    73     13.383591  5 Li s                102    -11.672864  6 Li s          
    69     -8.656290  5 Li s                 98      7.549488  6 Li s          
    65     -5.451392  5 Li s                 94      4.754464  6 Li s          
    68     -3.803147  5 Li pz                32      3.636165  2 H  s          
    97     -3.628245  6 Li pz               131     -3.577142  7 Li s          
 
 Vector   75  Occ=0.000000D+00  E= 3.595455D-01
              MO Center= -1.2D-01,  1.5D-01,  3.0D-01, r^2= 1.1D+01
   Bfn.  Coefficient  Atom+Function         Bfn.  Coefficient  Atom+Function  
  ----- ------------  ---------------      ----- ------------  ---------------
   131     14.971417  7 Li s                127     -9.683195  7 Li s          
   102     -9.443016  6 Li s                 98      6.107266  6 Li s          
   123     -6.098056  7 Li s                 52      4.065890  4 H  s          
    73     -4.024718  5 Li s                 94      3.846053  6 Li s          
   124     -3.689033  7 Li px               125      3.296283  7 Li py         
 
 Vector   76  Occ=0.000000D+00  E= 3.725116D-01
              MO Center= -7.9D-06, -1.8D-05, -2.5D-05, r^2= 9.2D+00
   Bfn.  Coefficient  Atom+Function         Bfn.  Coefficient  Atom+Function  
  ----- ------------  ---------------      ----- ------------  ---------------
    29      1.114979  1 Li dzz               88      1.114914  5 Li dzz        
   117      1.114742  6 Li dzz              146      1.114696  7 Li dzz        
    27     -1.009651  1 Li dyy               86     -1.009558  5 Li dyy        
   115     -1.009606  6 Li dyy              144     -1.009401  7 Li dyy        
     9      0.519773  1 Li pz                68      0.520140  5 Li pz         
 
 Vector   77  Occ=0.000000D+00  E= 3.725117D-01
              MO Center= -6.2D-06, -1.9D-05, -3.0D-05, r^2= 9.2D+00
   Bfn.  Coefficient  Atom+Function         Bfn.  Coefficient  Atom+Function  
  ----- ------------  ---------------      ----- ------------  ---------------
    24      1.226563  1 Li dxx               83      1.226482  5 Li dxx        
   112      1.226482  6 Li dxx              141      1.226534  7 Li dxx        
    27     -0.704415  1 Li dyy               86     -0.704270  5 Li dyy        
   115     -0.704553  6 Li dyy              144     -0.704488  7 Li dyy        
     7      0.571333  1 Li px                66     -0.571350  5 Li px         
 
 Vector   78  Occ=0.000000D+00  E= 3.952470D-01
              MO Center=  2.7D-01, -3.3D-01, -6.5D-01, r^2= 1.2D+01
   Bfn.  Coefficient  Atom+Function         Bfn.  Coefficient  Atom+Function  
  ----- ------------  ---------------      ----- ------------  ---------------
   131     20.573757  7 Li s                102    -12.898227  6 Li s          
   127     10.481150  7 Li s                 52     10.253821  4 H  s          
    98     -6.571355  6 Li s                 42     -6.428609  3 H  s          
    73     -5.531211  5 Li s                 53     -3.835694  4 H  s          
    97      2.907636  6 Li pz                 7     -2.871390  1 Li px         
 
 Vector   79  Occ=0.000000D+00  E= 3.952512D-01
              MO Center= -6.6D-01, -1.1D-01,  7.0D-02, r^2= 1.2D+01
   Bfn.  Coefficient  Atom+Function         Bfn.  Coefficient  Atom+Function  
  ----- ------------  ---------------      ----- ------------  ---------------
    73     18.318206  5 Li s                102    -16.077984  6 Li s          
    69      9.333701  5 Li s                 32      9.129314  2 H  s          
    98     -8.192330  6 Li s                 42     -8.013064  3 H  s          
   131     -4.879795  7 Li s                 33     -3.415464  2 H  s          
    43      2.997633  3 H  s                 14      2.639565  1 Li s          
 
 Vector   80  Occ=0.000000D+00  E= 3.952589D-01
              MO Center=  3.9D-01,  4.4D-01,  5.8D-01, r^2= 1.2D+01
   Bfn.  Coefficient  Atom+Function         Bfn.  Coefficient  Atom+Function  
  ----- ------------  ---------------      ----- ------------  ---------------
    14     21.379121  1 Li s                 10     10.896923  1 Li s          
   149     10.654361  8 H  s                 73    -10.123119  5 Li s          
   102     -6.615323  6 Li s                 69     -5.159773  5 Li s          
    32     -5.045160  2 H  s                131     -4.640696  7 Li s          
   150     -3.986533  8 H  s                 98     -3.370948  6 Li s          
 
 Vector   81  Occ=0.000000D+00  E= 4.361860D-01
              MO Center=  3.7D-07,  1.3D-06,  2.0D-06, r^2= 1.2D+01
   Bfn.  Coefficient  Atom+Function         Bfn.  Coefficient  Atom+Function  
  ----- ------------  ---------------      ----- ------------  ---------------
     6      3.197347  1 Li s                 65      3.197361  5 Li s          
    94      3.197367  6 Li s                123      3.197374  7 Li s          
    24     -1.550542  1 Li dxx               27     -1.550551  1 Li dyy        
    29     -1.550556  1 Li dzz               83     -1.550537  5 Li dxx        
    86     -1.550530  5 Li dyy               88     -1.550563  5 Li dzz        
 
 Vector   82  Occ=0.000000D+00  E= 4.601284D-01
              MO Center= -2.2D-06,  3.0D-06,  1.5D-05, r^2= 9.4D+00
   Bfn.  Coefficient  Atom+Function         Bfn.  Coefficient  Atom+Function  
  ----- ------------  ---------------      ----- ------------  ---------------
     7      1.443108  1 Li px                66     -1.443148  5 Li px         
    95     -1.443173  6 Li px               124      1.443219  7 Li px         
    24      1.203465  1 Li dxx               83      1.203452  5 Li dxx        
   112      1.203450  6 Li dxx              141      1.203400  7 Li dxx        
     8     -0.993256  1 Li py                67      0.993261  5 Li py         
 
 Vector   83  Occ=0.000000D+00  E= 4.601284D-01
              MO Center=  4.3D-06,  1.9D-06, -7.5D-06, r^2= 9.4D+00
   Bfn.  Coefficient  Atom+Function         Bfn.  Coefficient  Atom+Function  
  ----- ------------  ---------------      ----- ------------  ---------------
     9      1.406647  1 Li pz                68      1.406713  5 Li pz         
    97     -1.406661  6 Li pz               126     -1.406679  7 Li pz         
    29      1.173002  1 Li dzz               88      1.172949  5 Li dzz        
   117      1.173064  6 Li dzz              146      1.173047  7 Li dzz        
     8     -1.092930  1 Li py                67      1.092929  5 Li py         
 
 Vector   84  Occ=0.000000D+00  E= 4.818972D-01
              MO Center= -4.0D-03, -4.6D-03, -6.0D-03, r^2= 7.9D+00
   Bfn.  Coefficient  Atom+Function         Bfn.  Coefficient  Atom+Function  
  ----- ------------  ---------------      ----- ------------  ---------------
     6      3.868030  1 Li s                 14     -2.483683  1 Li s          
    65     -1.825587  5 Li s                124      1.509430  7 Li px         
    95      1.416114  6 Li px                66      1.387430  5 Li px         
    96      1.353817  6 Li py                 7      1.294090  1 Li px         
   125      1.260435  7 Li py                67      1.215634  5 Li py         
 
 Vector   85  Occ=0.000000D+00  E= 4.819006D-01
              MO Center=  6.8D-03,  1.1D-03, -7.7D-04, r^2= 7.9D+00
   Bfn.  Coefficient  Atom+Function         Bfn.  Coefficient  Atom+Function  
  ----- ------------  ---------------      ----- ------------  ---------------
    65      3.316221  5 Li s                 94     -2.906278  6 Li s          
    73     -2.126534  5 Li s                102      1.863558  6 Li s          
     9      1.821581  1 Li pz               126      1.802763  7 Li pz         
    97      1.710352  6 Li pz                68      1.691632  5 Li pz         
    25     -1.309064  1 Li dxy              142     -1.262866  7 Li dxy        
 
 Vector   86  Occ=0.000000D+00  E= 4.819024D-01
              MO Center= -2.8D-03,  3.4D-03,  6.6D-03, r^2= 7.9D+00
   Bfn.  Coefficient  Atom+Function         Bfn.  Coefficient  Atom+Function  
  ----- ------------  ---------------      ----- ------------  ---------------
   123      3.720638  7 Li s                131     -2.384047  7 Li s          
    94     -2.335235  6 Li s                  7      1.640949  1 Li px         
    66      1.577645  5 Li px                95      1.516750  6 Li px         
   102      1.496260  6 Li s                124      1.453497  7 Li px         
    67     -1.368305  5 Li py                 8     -1.305090  1 Li py         
 
 Vector   87  Occ=0.000000D+00  E= 5.187600D-01
              MO Center= -1.7D-01,  2.0D-01,  3.9D-01, r^2= 8.4D+00
   Bfn.  Coefficient  Atom+Function         Bfn.  Coefficient  Atom+Function  
  ----- ------------  ---------------      ----- ------------  ---------------
   127      9.986312  7 Li s                 98     -6.206779  6 Li s          
    52     -5.433013  4 H  s                 42      3.376731  3 H  s          
   126      3.320961  7 Li pz               125      3.253500  7 Li py         
   124     -3.223972  7 Li px                53      3.035568  4 H  s          
   146     -3.024153  7 Li dzz              144     -2.833407  7 Li dyy        
 

 center of mass
 --------------
 x =   0.00000001 y =   0.00000001 z =   0.00000001

 moments of inertia (a.u.)
 ------------------
         177.156912183117           0.000005814131           0.000003581878
           0.000005814131         177.156910468633           0.000001253392
           0.000003581878           0.000001253392         177.156909761350
 
     Multipole analysis of the density
     ---------------------------------
 
     L   x y z        total         alpha         beta         nuclear
     -   - - -        -----         -----         ----         -------
     0   0 0 0     -0.000000     -8.000000     -8.000000     16.000000
 
     1   1 0 0      0.000000      0.000000      0.000000     -0.000000
     1   0 1 0      0.000000      0.000000      0.000000     -0.000000
     1   0 0 1      0.000000      0.000000      0.000000      0.000000
 
     2   2 0 0    -12.937211    -29.022424    -29.022424     45.107637
     2   1 1 0      0.000001      0.000002      0.000002     -0.000002
     2   1 0 1      0.000001      0.000001      0.000001     -0.000001
     2   0 2 0    -12.937211    -29.022425    -29.022425     45.107638
     2   0 1 1      0.000000      0.000000      0.000000     -0.000000
     2   0 0 2    -12.937211    -29.022425    -29.022425     45.107639
 
 
 
                            NWChem DFT Gradient Module
                            --------------------------
 
 

  charge          =   0.00
  wavefunction    = closed shell



                         DFT ENERGY GRADIENTS

    atom               coordinates                        gradient
                 x          y          z           x          y          z
   1 li     -1.643140  -1.643141  -1.643141   -0.002577  -0.002577  -0.002577
   2 h      -1.782464  -1.782464   1.782463   -0.000884  -0.000884   0.000884
   3 h      -1.782464   1.782463  -1.782464   -0.000884   0.000884  -0.000884
   4 h       1.782463  -1.782464  -1.782464    0.000884  -0.000884  -0.000884
   5 li      1.643141   1.643141  -1.643141    0.002578   0.002578  -0.002578
   6 li      1.643141  -1.643141   1.643141    0.002578  -0.002577   0.002578
   7 li     -1.643141   1.643141   1.643141   -0.002577   0.002578   0.002578
   8 h       1.782463   1.782463   1.782463    0.000884   0.000884   0.000884
 
                 ----------------------------------------
                 |  Time  |  1-e(secs)   |  2-e(secs)   |
                 ----------------------------------------
                 |  CPU   |       0.01   |       7.04   |
                 ----------------------------------------
[...]


              11           12           13           14           15           16           17           18           19           20
   ----- ----- ----- ----- -----
   11    3.27741D+01
   12    3.11486D+00  3.27741D+01
   13    9.24604D-01 -3.35376D-01  5.81148D+00
   14   -7.14806D+00  5.05398D-01  6.31266D-01  5.81148D+00
   15   -9.32493D-01 -2.47057D+00 -6.35534D-01 -6.35621D-01  5.81216D+00
   16   -3.40180D-01  9.29406D-01  4.13565D-01 -1.38594D-01  1.33148D-01  5.80949D+00
   17   -2.46849D+00 -9.34574D-01  1.41034D-01 -7.69399D-01  1.05995D+00 -6.37454D-01  5.81360D+00
   18    5.03320D-01 -7.14598D+00 -1.46480D-01  1.05403D+00 -7.69399D-01  6.33185D-01 -6.37063D-01  5.81292D+00
   19   -3.78128D-01 -3.79590D-01 -7.70120D-01  1.41754D-01  1.05890D+00 -7.69674D-01  1.05785D+00  1.42806D-01  5.81504D+00
   20   -2.97848D-01  3.69845D-01 -1.37873D-01  4.12845D-01  1.34200D-01  1.05248D+00 -7.69674D-01 -1.44981D-01 -6.38895D-01  5.81093D+00
   21    3.69851D-01 -2.97848D-01  1.05326D+00 -1.45701D-01 -7.68954D-01 -1.37093D-01  1.34918D-01  4.12127D-01 -6.38983D-01  6.35104D-01
   22    1.05250D+00  1.04864D+00 -2.44713D+00  3.46850D-01  5.09121D-01 -2.44595D+00  5.06347D-01  3.49626D-01 -7.15075D+00 -8.98778D-01
   23   -1.98402D+00 -3.88743D+00  3.46849D-01 -2.44713D+00  5.07659D-01 -8.96698D-01 -7.15284D+00 -8.94205D-01  5.04265D-01 -2.44387D+00
   24   -3.88743D+00 -1.98402D+00 -8.91898D-01 -8.92127D-01 -7.15492D+00  3.51650D-01  5.05579D-01 -2.44505D+00  5.02802D-01  3.54429D-01


              21           22           23           24
   ----- ----- ----- ----- -----
   21    5.81093D+00
   22   -8.99008D-01  3.27874D+01
   23    3.54430D-01  3.13149D+00  3.27874D+01
   24   -2.44387D+00  3.12763D+00  3.12377D+00  3.27874D+01

 center of mass
 --------------
 x =  -0.00000006 y =  -0.00000007 z =  -0.00000005

 moments of inertia (a.u.)
 ------------------
         170.031829271842           0.000006714050          -0.000002897310
           0.000006714050         170.031829026300          -0.000003808521
          -0.000002897310          -0.000003808521         170.031828869329

 Rotational Constants
 --------------------
 A=   0.354052 cm-1  (  0.509391 K)
 B=   0.354052 cm-1  (  0.509391 K)
 C=   0.354052 cm-1  (  0.509391 K)


 Temperature                      =   298.15K
 frequency scaling parameter      =   1.0000

 Zero-Point correction to Energy  =   20.049 kcal/mol  (  0.031950 au)
 Thermal correction to Energy     =   23.273 kcal/mol  (  0.037088 au)
 Thermal correction to Enthalpy   =   23.865 kcal/mol  (  0.038031 au)

 Total Entropy                    =   66.248 cal/mol-K
   - Translational                =   36.314 cal/mol-K (mol. weight =  32.0953)
   - Rotational                   =   23.102 cal/mol-K (symmetry #  =        1)
   - Vibrational                  =    6.831 cal/mol-K

 Cv (constant volume heat capacity) =   19.772 cal/mol-K
   - Translational                  =    2.979 cal/mol-K
   - Rotational                     =    2.979 cal/mol-K
   - Vibrational                    =   13.813 cal/mol-K



          -------------------------------------------------
          NORMAL MODE EIGENVECTORS IN CARTESIAN COORDINATES
          -------------------------------------------------
             (Projected Frequencies expressed in cm-1)

                    1           2           3           4           5           6
 
 P.Frequency       -0.00       -0.00       -0.00       -0.00        0.00        0.00
 
           1    -0.06260     0.05365    -0.22888     0.03632     0.02732     0.01709
           2     0.08298    -0.08968     0.01272     0.02519     0.01671    -0.21340
           3    -0.07865    -0.00598     0.04456    -0.22049    -0.06716     0.01450
           4    -0.23100    -0.07134    -0.08764    -0.01793     0.03245     0.01342
           5     0.02447     0.02614     0.03202    -0.03036    -0.19354    -0.16430
           6    -0.08909    -0.00640     0.05195    -0.22554    -0.07659     0.01659
           7     0.10110    -0.08019    -0.19185     0.03558    -0.11188    -0.02104
           8     0.09318    -0.10173     0.01393     0.02759     0.01968    -0.21751
           9    -0.02037    -0.13427     0.03385    -0.16758     0.13663    -0.03662
          10    -0.06237     0.06613    -0.23748     0.03897     0.03378     0.01911
          11    -0.07029     0.04459    -0.03170     0.03099     0.16533    -0.17736
          12     0.07954     0.13106    -0.09789    -0.16864    -0.07526     0.02228
          13     0.08650    -0.07980    -0.18727     0.03322    -0.10553    -0.01953
          14    -0.06613     0.04377    -0.02889     0.02829     0.14956    -0.17678
          15     0.13782     0.00277    -0.10860    -0.11573     0.12853    -0.02884
          16    -0.21640    -0.07173    -0.09222    -0.01557     0.02610     0.01190
          17    -0.12880     0.16040    -0.01239    -0.02457    -0.04492    -0.12826
          18     0.07514     0.11940    -0.09210    -0.16859    -0.06594     0.01969
          19    -0.06729    -0.20518    -0.05061    -0.01867    -0.10675    -0.02472
          20     0.02030     0.02695     0.02922    -0.02767    -0.17777    -0.16487
          21    -0.01598    -0.12261     0.02806    -0.16763     0.12731    -0.03403
          22    -0.06752    -0.21765    -0.04202    -0.02132    -0.11321    -0.02673
          23    -0.13901     0.17246    -0.01360    -0.02696    -0.04789    -0.12415
          24     0.14825     0.00319    -0.11599    -0.11068     0.13796    -0.03093

                    7           8           9          10          11          12
 
 P.Frequency      392.16      392.17      408.43      408.64      408.99      529.12
 
           1     0.06259     0.13863     0.08882     0.09268     0.13447    -0.10953
           2     0.08675    -0.12373     0.08803     0.16112    -0.03373    -0.10963
           3    -0.14928    -0.01489     0.18730     0.00762     0.00407    -0.10972
           4    -0.02471    -0.04906    -0.06475     0.06084     0.00043    -0.00247
           5    -0.03350     0.04326    -0.06454     0.04321     0.04325    -0.00282
           6    -0.05123    -0.00511     0.08803    -0.02334    -0.00938     0.00317
           7    -0.01968    -0.04924     0.02536    -0.07915     0.03517    -0.00311
           8     0.02944    -0.04322     0.02003     0.08159    -0.03513     0.00303
           9     0.05519     0.00484     0.00024    -0.05678     0.06780    -0.00268
          10     0.02182     0.04834     0.02058     0.03399     0.08142     0.00289
          11    -0.03051     0.04423     0.02482    -0.03207    -0.08013    -0.00297
          12     0.05319     0.00597    -0.00049     0.00678    -0.08958    -0.00333
          13    -0.05760    -0.13929     0.10311    -0.15266     0.03438     0.10902
          14    -0.08591     0.12497     0.10233    -0.08554    -0.13065     0.10892
          15    -0.15488    -0.01545    -0.18350    -0.00776    -0.00038    -0.10806
          16    -0.06809    -0.13911    -0.09429     0.15256    -0.04075     0.10906
          17     0.09165    -0.12447    -0.08565    -0.15923     0.03697    -0.10819
          18     0.14968     0.01615    -0.00308     0.07747    -0.17079     0.10905
          19     0.06316     0.13990    -0.08647    -0.08787    -0.13850    -0.10831
          20    -0.09209     0.12315    -0.09345     0.07981     0.13804     0.10918
          21     0.15402     0.01414    -0.00146    -0.06258     0.17316     0.10909
          22     0.02213     0.04903    -0.05893    -0.04846    -0.04465     0.00107
          23     0.03179    -0.04366    -0.05872    -0.06599    -0.00206     0.00072
          24    -0.05395    -0.00538    -0.08257    -0.02934    -0.01099     0.00036

                   13          14          15          16          17          18
 
 P.Frequency      784.27      784.27      784.37      977.95      977.96      989.20
 
           1     0.03096    -0.06572    -0.00006     0.02140     0.00316     0.05909
           2    -0.07241     0.00593    -0.00004    -0.01368     0.01634    -0.04460
           3     0.04143     0.05967     0.00001    -0.00773    -0.01950    -0.01937
           4    -0.23932    -0.11247    -0.37579     0.39411     0.05629    -0.27729
           5    -0.02191    -0.26435     0.37522    -0.24848     0.31187     0.12949
           6    -0.26256    -0.37857    -0.00044     0.15013     0.37930     0.13395
           7     0.23913     0.11360     0.37623     0.38947     0.05963    -0.36493
           8     0.45908    -0.03791     0.00044     0.25861    -0.31889     0.31546
           9     0.21818    -0.15122    -0.37498    -0.15283    -0.37119    -0.05605
          10    -0.19652     0.41654     0.00004    -0.40872    -0.06041    -0.42626
          11     0.02295     0.26463    -0.37552    -0.24122     0.31495     0.40626
          12    -0.21897     0.15063     0.37542    -0.14090    -0.37147     0.30942
          13    -0.03746    -0.01770    -0.05929    -0.01891    -0.00298     0.05074
          14    -0.00353    -0.04141     0.05920     0.01150    -0.01573    -0.05471
          15    -0.04133    -0.05972    -0.00018    -0.00765    -0.01932    -0.01572
          16     0.03750     0.01771     0.05934    -0.01935    -0.00269     0.04008
          17     0.07224    -0.00611    -0.00002    -0.01317     0.01624    -0.03030
          18     0.03436    -0.02356    -0.05897     0.00672     0.01842    -0.03996
          19    -0.03094     0.06541    -0.00010     0.02081     0.00307     0.02952
          20     0.00339     0.04154    -0.05904     0.01218    -0.01545    -0.02120
          21    -0.03424     0.02381     0.05902     0.00784     0.01841     0.00438
          22     0.19630    -0.41557     0.00027    -0.40236    -0.05946    -0.18067
          23    -0.45801     0.03799    -0.00088     0.25317    -0.31771     0.19862
          24     0.26173     0.37776     0.00074     0.14932     0.37724     0.10468

                   19          20          21          22          23          24
 
 P.Frequency      989.43      989.82     1019.85     1020.02     1020.26     1154.11
 
           1     0.01118     0.02405     0.01303     0.03144     0.01395     0.00019
           2     0.04332     0.01841     0.02293     0.02383     0.01613     0.00022
           3    -0.06177     0.00506     0.02158     0.02942     0.00480     0.00024
           4    -0.22351    -0.31115     0.11311    -0.35380     0.31717    -0.28595
           5    -0.34918    -0.28921    -0.44271     0.07451     0.19428    -0.28612
           6     0.44005     0.00220    -0.21829    -0.35576    -0.25467     0.29015
           7     0.14787    -0.26271     0.01804     0.04266    -0.48884    -0.28555
           8    -0.31802    -0.09454    -0.19857    -0.43814    -0.08693     0.29021
           9     0.42543    -0.19042    -0.46242     0.15684     0.02664    -0.28618
          10    -0.08748    -0.13514    -0.34420    -0.32578    -0.11924     0.29027
          11    -0.09167    -0.22059     0.16741    -0.07257    -0.45570    -0.28562
          12     0.31028    -0.16974     0.24273    -0.38655     0.18259    -0.28580
          13    -0.01677     0.03773    -0.00683     0.01139     0.03479    -0.00118
          14     0.01591     0.03200     0.00281     0.00397     0.03690    -0.00115
          15    -0.04256     0.04743     0.00976     0.00263    -0.03512     0.00113
          16     0.02800     0.04349    -0.01214     0.03351    -0.01018    -0.00115
          17     0.01829     0.05519     0.01640    -0.02503     0.02111     0.00112
          18    -0.04561     0.02416    -0.00383     0.03166    -0.01937    -0.00114
          19    -0.00029     0.05846    -0.03280     0.01289     0.01023     0.00111
          20     0.04703     0.04015     0.03689    -0.00428     0.00066    -0.00113
          21    -0.05946     0.02662     0.03555     0.00131    -0.01066    -0.00111
          22     0.00908    -0.43082     0.48278     0.01580    -0.04878     0.28837
          23    -0.10821    -0.41029    -0.07633     0.44663    -0.17239     0.28819
          24     0.28195    -0.36089    -0.00105     0.13283     0.46553     0.28801



 ----------------------------------------------------------------------------
 Normal Eigenvalue ||    Projected Derivative Dipole Moments (debye/angs)
  Mode   [cm**-1]  ||      [d/dqX]             [d/dqY]           [d/dqZ]
 ------ ---------- || ------------------ ------------------ -----------------
    1       -0.000 ||       0.001               0.000            -0.000
    2       -0.000 ||       0.001              -0.000             0.000
    3       -0.000 ||      -0.001               0.000            -0.000
    4       -0.000 ||       0.000               0.000            -0.002
    5        0.000 ||       0.000               0.000            -0.000
    6        0.000 ||      -0.000              -0.002            -0.000
    7      392.159 ||       0.002               0.015            -0.018
    8      392.173 ||       0.005              -0.003            -0.002
    9      408.431 ||       0.490               0.494            -0.031
   10      408.642 ||       0.206              -0.167             0.646
   11      408.991 ||      -0.453               0.464             0.264
   12      529.122 ||       0.005               0.006             0.008
   13      784.274 ||       0.001              -0.007             0.005
   14      784.274 ||      -0.007              -0.001             0.004
   15      784.369 ||      -0.002               0.002            -0.002
   16      977.952 ||       0.090              -0.073            -0.019
   17      977.957 ||       0.013               0.032            -0.045
   18      989.204 ||       4.056              -3.410            -1.598
   19      989.432 ||       0.499               2.815            -4.735
   20      989.816 ||      -3.708              -3.301            -2.340
   21     1019.851 ||      -0.715               1.480             1.182
   22     1020.024 ||       1.673              -0.018             1.223
   23     1020.261 ||       0.915               1.400            -1.121
   24     1154.109 ||      -0.022              -0.021            -0.020
 ----------------------------------------------------------------------------



  
  
 ----------------------------------------------------------------------------
 Normal Eigenvalue ||           Projected Infra Red Intensities
  Mode   [cm**-1]  || [atomic units] [(debye/angs)**2] [(KM/mol)] [arbitrary]
 ------ ---------- || -------------- ----------------- ---------- -----------
    1       -0.000 ||    0.000000           0.000         0.000       0.000
    2       -0.000 ||    0.000000           0.000         0.000       0.000
    3       -0.000 ||    0.000000           0.000         0.000       0.000
    4       -0.000 ||    0.000000           0.000         0.000       0.000
    5        0.000 ||    0.000000           0.000         0.000       0.000
    6        0.000 ||    0.000000           0.000         0.000       0.000
    7      392.159 ||    0.000024           0.001         0.023       0.001
    8      392.173 ||    0.000001           0.000         0.001       0.000
    9      408.431 ||    0.021019           0.485        20.490       1.105
   10      408.642 ||    0.021122           0.487        20.591       1.111
   11      408.991 ||    0.021280           0.491        20.744       1.119
   12      529.122 ||    0.000006           0.000         0.005       0.000
   13      784.274 ||    0.000003           0.000         0.003       0.000
   14      784.274 ||    0.000003           0.000         0.003       0.000
   15      784.369 ||    0.000001           0.000         0.001       0.000
   16      977.952 ||    0.000600           0.014         0.585       0.032
   17      977.957 ||    0.000139           0.003         0.135       0.007
   18      989.204 ||    1.327657          30.630      1294.266      69.828
   19      989.432 ||    1.326242          30.597      1292.886      69.753
   20      989.816 ||    1.305518          30.119      1272.683      68.663
   21     1019.851 ||    0.177646           4.098       173.178       9.343
   22     1020.024 ||    0.186204           4.296       181.521       9.793
   23     1020.261 ||    0.175681           4.053       171.262       9.240
   24     1154.109 ||    0.000057           0.001         0.056       0.003
 ----------------------------------------------------------------------------



 vib:animation  F

 Task  times  cpu:      802.9s     wall:      803.8s
 
 
                                NWChem Input Module
                                -------------------
 
 
 Summary of allocated global arrays
-----------------------------------
  No active global arrays



                         GA Statistics for process    0
                         ------------------------------

       create   destroy   get      put      acc     scatter   gather  read&inc
calls: 5045     5045     1.17e+06 5.39e+04 1.94e+05    0        0     3.64e+04 
number of processes/call 1.10e+00 1.63e+00 1.02e+00 0.00e+00 0.00e+00
bytes total:             4.80e+09 2.31e+08 9.32e+08 0.00e+00 0.00e+00 2.91e+05
bytes remote:            3.20e+09 6.95e+07 6.23e+08 0.00e+00 0.00e+00 0.00e+00
Max memory consumed for GA by this process: 2387456 bytes
 
MA_summarize_allocated_blocks: starting scan ...
MA_summarize_allocated_blocks: scan completed: 0 heap blocks, 0 stack blocks
MA usage statistics:

	allocation statistics:
					      heap	     stack
					      ----	     -----
	current number of blocks	         0	         0
	maximum number of blocks	        24	        54
	current total bytes		         0	         0
	maximum total bytes		   1797624	  33547048
	maximum total K-bytes		      1798	     33548
	maximum total M-bytes		         2	        34
 
 
                                     CITATION
                                     --------
                Please cite the following reference when publishing
                           results obtained with NWChem:
 
                 M. Valiev, E.J. Bylaska, N. Govind, K. Kowalski,
              T.P. Straatsma, H.J.J. van Dam, D. Wang, J. Nieplocha,
                        E. Apra, T.L. Windus, W.A. de Jong
                 "NWChem: a comprehensive and scalable open-source
                  solution for large scale molecular simulations"
                      Comput. Phys. Commun. 181, 1477 (2010)
                           doi:10.1016/j.cpc.2010.04.018
 
                                      AUTHORS
                                      -------
          E. Apra, E. J. Bylaska, W. A. de Jong, N. Govind, K. Kowalski,
       T. P. Straatsma, M. Valiev, H. J. J. van Dam, D. Wang, T. L. Windus,
        J. Hammond, J. Autschbach, K. Bhaskaran-Nair, J. Brabec, K. Lopata,
        S. Krishnamoorthy, W. Ma, M. Klemm, O. Villa, Y. Chen, V. Anisimov,
    F. Aquino, S. Hirata, M. T. Hackler, T. Risthaus, M. Malagoli, A. Marenich,
   A. Otero-de-la-Roza, J. Mullin, P. Nichols, R. Peverati, J. Pittner, Y. Zhao,
         P.-D. Fan, A. Fonari, R. J. Harrison, M. Dupuis, D. Silverstein,
    D. M. A. Smith, J. Nieplocha, V. Tipparaju, M. Krishnan, B. E. Van Kuiken,
        A. Vazquez-Mayagoitia, L. Jensen, M. Swart, Q. Wu, T. Van Voorhis,
     A. A. Auer, M. Nooijen, L. D. Crosby, E. Brown, G. Cisneros, G. I. Fann,
   H. Fruchtl, J. Garza, K. Hirao, R. A. Kendall, J. A. Nichols, K. Tsemekhman,
    K. Wolinski, J. Anchell, D. E. Bernholdt, P. Borowski, T. Clark, D. Clerc,
   H. Dachsel, M. J. O. Deegan, K. Dyall, D. Elwood, E. Glendening, M. Gutowski,
   A. C. Hess, J. Jaffe, B. G. Johnson, J. Ju, R. Kobayashi, R. Kutteh, Z. Lin,
   R. Littlefield, X. Long, B. Meng, T. Nakajima, S. Niu, L. Pollack, M. Rosing,
   K. Glaesemann, G. Sandrone, M. Stave, H. Taylor, G. Thomas, J. H. van Lenthe,
                               A. T. Wong, Z. Zhang.

 Total times  cpu:      966.2s     wall:      968.5s
