 argument  1 = h2o_raman_3.nw
 


============================== echo of input deck ==============================
echo

start h2o_raman_3

title "TDDFT h2o BP86/aug-cc-pVTZ"

geometry
symmetry c1
O     0.00000000     0.00000000     0.12982363
H     0.75933475     0.00000000    -0.46621158
H    -0.75933475     0.00000000    -0.46621158
end

basis  spherical
 O library aug-cc-pVTZ
 H library aug-cc-pVTZ
end

dft
xc becke88 perdew86
convergence energy 1d-8 nolevelshifting
direct
end

hessian
thresh 1d-8
profile
end

property
response  1 8.8559E-2
damping 0.007
end

raman
  normal
end

driver
 clear
end

task dft optimize
task dft raman
================================================================================


                                         
                                         
 
 
              Northwest Computational Chemistry Package (NWChem) 6.5
              ------------------------------------------------------
 
 
                    Environmental Molecular Sciences Laboratory
                       Pacific Northwest National Laboratory
                                Richland, WA 99352
 
                              Copyright (c) 1994-2014
                       Pacific Northwest National Laboratory
                            Battelle Memorial Institute
 
             NWChem is an open-source computational chemistry package
                        distributed under the terms of the
                      Educational Community License (ECL) 2.0
             A copy of the license is included with this distribution
                              in the LICENSE.TXT file
 
                                  ACKNOWLEDGMENT
                                  --------------

            This software and its documentation were developed at the
            EMSL at Pacific Northwest National Laboratory, a multiprogram
            national laboratory, operated for the U.S. Department of Energy
            by Battelle under Contract Number DE-AC05-76RL01830. Support
            for this work was provided by the Department of Energy Office
            of Biological and Environmental Research, Office of Basic
            Energy Sciences, and the Office of Advanced Scientific Computing.


           Job information
           ---------------

    hostname        = g2
    program         = /dtemp/scicons/bin/nwchem.sep04
    date            = Thu Sep  4 15:40:15 2014

    compiled        = Thu_Sep_04_12:56:57_2014
    source          = /home/scicons/cascade/apps/nwchem-6.5
    nwchem branch   = 6.5
    nwchem revision = 26025
    ga revision     = 10502
    input           = h2o_raman_3.nw
    prefix          = h2o_raman_3.
    data base       = /scratch/h2o_raman_3.db
    status          = startup
    nproc           =       16
    time left       =     -1s



           Memory information
           ------------------

    heap     =   13107194 doubles =    100.0 Mbytes
    stack    =   13107199 doubles =    100.0 Mbytes
    global   =   26214400 doubles =    200.0 Mbytes (distinct from heap & stack)
    total    =   52428793 doubles =    400.0 Mbytes
    verify   = yes
    hardfail = no 


           Directory information
           ---------------------
 
  0 permanent = /scratch
  0 scratch   = /scratch
 
 
                     0  ppn                      8
                     0  offload_master 
                     2  offload_master 
                     6  offload_master 
                     4  offload_master 
04: micdev=1 nprocs=59 rank_on_dev=0 ranks_per_device=2 affinity='KMP_PLACE_THREADS=29c,4t,0o' pos=27
08: micdev=0 nprocs=59 rank_on_dev=0 ranks_per_device=2 affinity='KMP_PLACE_THREADS=29c,4t,0o' pos=27
12: micdev=1 nprocs=59 rank_on_dev=0 ranks_per_device=2 affinity='KMP_PLACE_THREADS=29c,4t,0o' pos=27
00: micdev=0 nprocs=59 rank_on_dev=0 ranks_per_device=2 affinity='KMP_PLACE_THREADS=29c,4t,0o' pos=27
 
 
                                NWChem Input Module
                                -------------------
 
 
                            TDDFT h2o BP86/aug-cc-pVTZ
                            --------------------------

 Scaling coordinates for geometry "geometry" by  1.889725989
 (inverse scale =  0.529177249)

 Turning off AUTOSYM since
 SYMMETRY directive was detected!
 

          ------
          auto-z
          ------
 
 
                             Geometry "geometry" -> ""
                             -------------------------
 
 Output coordinates in angstroms (scale by  1.889725989 to convert to a.u.)
 
  No.       Tag          Charge          X              Y              Z
 ---- ---------------- ---------- -------------- -------------- --------------
    1 O                    8.0000     0.00000000     0.00000000     0.11920704
    2 H                    1.0000     0.75933475     0.00000000    -0.47682817
    3 H                    1.0000    -0.75933475     0.00000000    -0.47682817
 
      Atomic Mass 
      ----------- 
 
      O                 15.994910
      H                  1.007825
 

 Effective nuclear repulsion energy (a.u.)       9.1194413826

            Nuclear Dipole moment (a.u.) 
            ----------------------------
        X                 Y               Z
 ---------------- ---------------- ----------------
     0.0000000000     0.0000000000     0.0000000000
 


                                Z-matrix (autoz)
                                -------- 

 Units are Angstrom for bonds and degrees for angles
 
      Type          Name      I     J     K     L     M      Value
      ----------- --------  ----- ----- ----- ----- ----- ----------
    1 Stretch                  1     2                       0.96532
    2 Stretch                  1     3                       0.96532
    3 Bend                     2     1     3               103.74015
 
 
            XYZ format geometry
            -------------------
     3
 geometry
 O                     0.00000000     0.00000000     0.11920704
 H                     0.75933475     0.00000000    -0.47682817
 H                    -0.75933475     0.00000000    -0.47682817
 
 ==============================================================================
                                internuclear distances
 ------------------------------------------------------------------------------
       center one      |      center two      | atomic units |  angstroms
 ------------------------------------------------------------------------------
    2 H                |   1 O                |     1.82419  |     0.96532
    3 H                |   1 O                |     1.82419  |     0.96532
 ------------------------------------------------------------------------------
                         number of included internuclear distances:          2
 ==============================================================================



 ==============================================================================
                                 internuclear angles
 ------------------------------------------------------------------------------
        center 1       |       center 2       |       center 3       |  degrees
 ------------------------------------------------------------------------------
    2 H                |   1 O                |   3 H                |   103.74
 ------------------------------------------------------------------------------
                            number of included internuclear angles:          1
 ==============================================================================



                      Basis "ao basis" -> "" (spherical)
                      -----
  O (Oxygen)
  ----------
            Exponent  Coefficients 
       -------------- ---------------------------------------------------------
  1 S  1.53300000E+04  0.000508
  1 S  2.29900000E+03  0.003929
  1 S  5.22400000E+02  0.020243
  1 S  1.47300000E+02  0.079181
  1 S  4.75500000E+01  0.230687
  1 S  1.67600000E+01  0.433118
  1 S  6.20700000E+00  0.350260
  1 S  6.88200000E-01 -0.008154
 
  2 S  1.53300000E+04 -0.000115
  2 S  2.29900000E+03 -0.000895
  2 S  5.22400000E+02 -0.004636
  2 S  1.47300000E+02 -0.018724
  2 S  4.75500000E+01 -0.058463
  2 S  1.67600000E+01 -0.136463
  2 S  6.20700000E+00 -0.175740
  2 S  6.88200000E-01  0.603418
 
  3 S  1.75200000E+00  1.000000
 
  4 S  2.38400000E-01  1.000000
 
  5 S  7.37600000E-02  1.000000
 
  6 P  3.44600000E+01  0.015928
  6 P  7.74900000E+00  0.099740
  6 P  2.28000000E+00  0.310492
 
  7 P  7.15600000E-01  1.000000
 
  8 P  2.14000000E-01  1.000000
 
  9 P  5.97400000E-02  1.000000
 
 10 D  2.31400000E+00  1.000000
 
 11 D  6.45000000E-01  1.000000
 
 12 D  2.14000000E-01  1.000000
 
 13 F  1.42800000E+00  1.000000
 
 14 F  5.00000000E-01  1.000000
 
  H (Hydrogen)
  ------------
            Exponent  Coefficients 
       -------------- ---------------------------------------------------------
  1 S  3.38700000E+01  0.006068
  1 S  5.09500000E+00  0.045308
  1 S  1.15900000E+00  0.202822
 
  2 S  3.25800000E-01  1.000000
 
  3 S  1.02700000E-01  1.000000
 
  4 S  2.52600000E-02  1.000000
 
  5 P  1.40700000E+00  1.000000
 
  6 P  3.88000000E-01  1.000000
 
  7 P  1.02000000E-01  1.000000
 
  8 D  1.05700000E+00  1.000000
 
  9 D  2.47000000E-01  1.000000
 


 Summary of "ao basis" -> "" (spherical)
 ------------------------------------------------------------------------------
       Tag                 Description            Shells   Functions and Types
 ---------------- ------------------------------  ------  ---------------------
 O                        aug-cc-pVTZ               14       46   5s4p3d2f
 H                        aug-cc-pVTZ                9       23   4s3p2d


  perdew86 is a nonlocal functional; adding perdew81 local functional. 
 
  Deleted DRIVER restart files 
 
06: micdev=1 nprocs=59 rank_on_dev=1 ranks_per_device=2 affinity='KMP_PLACE_THREADS=29c,4t,29o' pos=28
14: micdev=1 nprocs=59 rank_on_dev=1 ranks_per_device=2 affinity='KMP_PLACE_THREADS=29c,4t,29o' pos=28
10: micdev=0 nprocs=59 rank_on_dev=1 ranks_per_device=2 affinity='KMP_PLACE_THREADS=29c,4t,29o' pos=28
02: micdev=0 nprocs=59 rank_on_dev=1 ranks_per_device=2 affinity='KMP_PLACE_THREADS=29c,4t,29o' pos=28
 
 
                           NWChem Geometry Optimization
                           ----------------------------
 
 
 
 
                            TDDFT h2o BP86/aug-cc-pVTZ
 
 
 maximum gradient threshold         (gmax) =   0.000450
 rms gradient threshold             (grms) =   0.000300
 maximum cartesian step threshold   (xmax) =   0.001800
 rms cartesian step threshold       (xrms) =   0.001200
 fixed trust radius                (trust) =   0.300000
 maximum step size to saddle      (sadstp) =   0.100000
 energy precision                  (eprec) =   5.0D-06
 maximum number of steps          (nptopt) =   20
 initial hessian option           (inhess) =    0
 line search option               (linopt) =    1
 hessian update option            (modupd) =    1
 saddle point option              (modsad) =    0
 initial eigen-mode to follow     (moddir) =    0
 initial variable to follow       (vardir) =    0
 follow first negative mode     (firstneg) =    T
 apply conjugacy                    (opcg) =    F
 source of zmatrix                         =   autoz   


          -------------------
          Energy Minimization
          -------------------

 
 Names of Z-matrix variables 
    1              2              3         
 
 Variables with the same non-blank name are constrained to be equal
 
 
 Using diagonal initial Hessian 
 Scaling for Hessian diagonals: bonds = 1.00  angles = 0.25  torsions = 0.10

          --------
          Step   0
          --------
 
 
                         Geometry "geometry" -> "geometry"
                         ---------------------------------
 
 Output coordinates in angstroms (scale by  1.889725989 to convert to a.u.)
 
  No.       Tag          Charge          X              Y              Z
 ---- ---------------- ---------- -------------- -------------- --------------
    1 O                    8.0000     0.00000000     0.00000000     0.11920704
    2 H                    1.0000     0.75933475     0.00000000    -0.47682817
    3 H                    1.0000    -0.75933475     0.00000000    -0.47682817
 
      Atomic Mass 
      ----------- 
 
      O                 15.994910
      H                  1.007825
 

 Effective nuclear repulsion energy (a.u.)       9.1194413826

            Nuclear Dipole moment (a.u.) 
            ----------------------------
        X                 Y               Z
 ---------------- ---------------- ----------------
     0.0000000000     0.0000000000     0.0000000000
 
 
                                 NWChem DFT Module
                                 -----------------
 
 
                            TDDFT h2o BP86/aug-cc-pVTZ
 
 


 Summary of "ao basis" -> "ao basis" (spherical)
 ------------------------------------------------------------------------------
       Tag                 Description            Shells   Functions and Types
 ---------------- ------------------------------  ------  ---------------------
 O                        aug-cc-pVTZ               14       46   5s4p3d2f
 H                        aug-cc-pVTZ                9       23   4s3p2d


  Caching 1-el integrals 
  itol2e modified to match energy
  convergence criterion.
  tol_rho modified to match energy
  convergence criterion.
 
            General Information
            -------------------
          SCF calculation type: DFT
          Wavefunction type:  closed shell.
          No. of atoms     :     3
          No. of electrons :    10
           Alpha electrons :     5
            Beta electrons :     5
          Charge           :     0
          Spin multiplicity:     1
          Use of symmetry is: off; symmetry adaption is: off
          Maximum number of iterations:  30
          This is a Direct SCF calculation.
          AO basis - number of functions:    92
                     number of shells:    32
          Convergence on energy requested: 1.00D-08
          Convergence on density requested: 1.00D-05
          Convergence on gradient requested: 5.00D-04
 
              XC Information
              --------------
                    Becke 1988 Exchange Functional  1.000          
                Perdew 1981 Correlation Functional  1.000 local    
                Perdew 1986 Correlation Functional  1.000 non-local
 
             Grid Information
             ----------------
          Grid used for XC integration:  medium    
          Radial quadrature: Mura-Knowles        
          Angular quadrature: Lebedev. 
          Tag              B.-S. Rad. Rad. Pts. Rad. Cut. Ang. Pts.
          ---              ---------- --------- --------- ---------
          O                   0.60       49          10.0       434
          H                   0.35       45          12.0       434
          Grid pruning is: on 
          Number of quadrature shells:   139
          Spatial weights used:  Erf1
 
          Convergence Information
          -----------------------
          Convergence aids based upon iterative change in 
          total energy or number of iterations. 
          Levelshifting, if invoked, occurs when the 
          HOMO/LUMO gap drops below (HL_TOL): 1.00D-02
          DIIS, if invoked, will attempt to extrapolate 
          using up to (NFOCK): 10 stored Fock matrices.

                    Damping( 0%)  Levelshifting(0.0)       DIIS
                  --------------- ------------------- ---------------
          dE  on:    start             N/A                start   
          dE off:    2 iters           N/A               30 iters 

 
      Screening Tolerance Information
      -------------------------------
          Density screening/tol_rho: 1.00D-11
          AO Gaussian exp screening on grid/accAOfunc:  18
          CD Gaussian exp screening on grid/accCDfunc:  20
          XC Gaussian exp screening on grid/accXCfunc:  20
          Schwarz screening/accCoul: 1.00D-09

 
      Superposition of Atomic Density Guess
      -------------------------------------
 
 Sum of atomic energies:         -75.78090571
 
      Non-variational initial energy
      ------------------------------

 Total energy =     -75.930721
 1-e energy   =    -121.602639
 2-e energy   =      36.552476
 HOMO         =      -0.479146
 LUMO         =       0.009494
 
   Time after variat. SCF:      3.8
   Time prior to 1st pass:      3.8

 Grid_pts file          = /scratch/h2o_raman_3.gridpts.00
 Record size in doubles =  12289        No. of grid_pts per rec  =   3070
 Max. records in memory =      3        Max. recs in file   =  63328179


           Memory utilization after 1st SCF pass: 
           Heap Space remaining (MW):       13.07            13066946
          Stack Space remaining (MW):       13.11            13106604

   convergence    iter        energy       DeltaE   RMS-Dens  Diis-err    time
 ---------------- ----- ----------------- --------- --------- ---------  ------
 d= 0,ls=0.0,diis     1    -76.4209090825 -8.55D+01  6.82D-03  4.71D-01     3.9
 d= 0,ls=0.0,diis     2    -76.3451351811  7.58D-02  3.89D-03  1.31D+00     4.0
 d= 0,ls=0.0,diis     3    -76.4635023712 -1.18D-01  5.50D-04  3.25D-02     4.1
 d= 0,ls=0.0,diis     4    -76.4659494805 -2.45D-03  8.92D-05  8.00D-04     4.2
 d= 0,ls=0.0,diis     5    -76.4660251827 -7.57D-05  1.50D-05  8.01D-06     4.3
 d= 0,ls=0.0,diis     6    -76.4660260200 -8.37D-07  2.27D-06  1.17D-07     4.4
 d= 0,ls=0.0,diis     7    -76.4660260301 -1.01D-08  1.58D-07  1.26D-09     4.5
 d= 0,ls=0.0,diis     8    -76.4660260302 -1.21D-10  1.35D-08  4.86D-12     4.6


         Total DFT energy =      -76.466026030205
      One electron energy =     -122.862097984649
           Coulomb energy =       46.594399688653
    Exchange-Corr. energy =       -9.317769116761
 Nuclear repulsion energy =        9.119441382552

 Numeric. integr. density =       10.000001897403

     Total iterative time =      0.7s


 
                       DFT Final Molecular Orbital Analysis
                       ------------------------------------
 
 Vector    1  Occ=2.000000D+00  E=-1.878098D+01
              MO Center=  4.0D-17, -1.4D-17,  1.2D-01, r^2= 1.5D-02
   Bfn.  Coefficient  Atom+Function         Bfn.  Coefficient  Atom+Function  
  ----- ------------  ---------------      ----- ------------  ---------------
     1      0.974179  1 O  s          
 
 Vector    2  Occ=2.000000D+00  E=-9.339673D-01
              MO Center= -6.6D-15,  5.1D-16, -8.7D-02, r^2= 5.0D-01
   Bfn.  Coefficient  Atom+Function         Bfn.  Coefficient  Atom+Function  
  ----- ------------  ---------------      ----- ------------  ---------------
     2      0.481521  1 O  s                  4      0.277365  1 O  s          
 
 Vector    3  Occ=2.000000D+00  E=-4.850122D-01
              MO Center=  4.5D-15,  1.4D-16, -9.6D-02, r^2= 7.8D-01
   Bfn.  Coefficient  Atom+Function         Bfn.  Coefficient  Atom+Function  
  ----- ------------  ---------------      ----- ------------  ---------------
     9      0.324514  1 O  px                 6      0.301665  1 O  px         
    48      0.228415  2 H  s                 71     -0.228415  3 H  s          
 
 Vector    4  Occ=2.000000D+00  E=-3.479937D-01
              MO Center= -3.6D-15,  7.3D-16,  1.8D-01, r^2= 7.5D-01
   Bfn.  Coefficient  Atom+Function         Bfn.  Coefficient  Atom+Function  
  ----- ------------  ---------------      ----- ------------  ---------------
    11      0.359025  1 O  pz                 4      0.347780  1 O  s          
     8      0.320073  1 O  pz                14      0.204348  1 O  pz         
     2      0.201613  1 O  s                 48     -0.176063  2 H  s          
    71     -0.176063  3 H  s          
 
 Vector    5  Occ=2.000000D+00  E=-2.701046D-01
              MO Center= -9.0D-16, -1.7D-15,  7.2D-02, r^2= 7.2D-01
   Bfn.  Coefficient  Atom+Function         Bfn.  Coefficient  Atom+Function  
  ----- ------------  ---------------      ----- ------------  ---------------
    10      0.428090  1 O  py                 7      0.364992  1 O  py         
    13      0.323481  1 O  py         
 
 Vector    6  Occ=0.000000D+00  E=-3.172497D-02
              MO Center= -1.0D-14,  6.1D-16, -7.8D-01, r^2= 7.3D+00
   Bfn.  Coefficient  Atom+Function         Bfn.  Coefficient  Atom+Function  
  ----- ------------  ---------------      ----- ------------  ---------------
     5      0.491133  1 O  s                 50     -0.467854  2 H  s          
    73     -0.467854  3 H  s                  4      0.368247  1 O  s          
    49     -0.354418  2 H  s                 72     -0.354418  3 H  s          
    14     -0.191310  1 O  pz         
 
 Vector    7  Occ=0.000000D+00  E= 1.551591D-02
              MO Center=  4.3D-13,  1.0D-15, -7.6D-01, r^2= 1.5D+01
   Bfn.  Coefficient  Atom+Function         Bfn.  Coefficient  Atom+Function  
  ----- ------------  ---------------      ----- ------------  ---------------
    50      2.668862  2 H  s                 73     -2.668862  3 H  s          
    49      0.814387  2 H  s                 72     -0.814387  3 H  s          
    15     -0.648799  1 O  px                12     -0.342808  1 O  px         
    48      0.159539  2 H  s                 71     -0.159539  3 H  s          
 
 Vector    8  Occ=0.000000D+00  E= 6.650085D-02
              MO Center=  4.7D-13,  6.7D-15, -5.4D-02, r^2= 1.4D+01
   Bfn.  Coefficient  Atom+Function         Bfn.  Coefficient  Atom+Function  
  ----- ------------  ---------------      ----- ------------  ---------------
     5      5.427495  1 O  s                 49     -2.151189  2 H  s          
    72     -2.151189  3 H  s                  4      1.380804  1 O  s          
    17     -1.153834  1 O  pz                50     -1.018077  2 H  s          
    73     -1.018077  3 H  s                 57      0.679097  2 H  px         
    80     -0.679097  3 H  px                59     -0.544366  2 H  pz         
 
 Vector    9  Occ=0.000000D+00  E= 9.413783D-02
              MO Center= -2.1D-14, -5.6D-15,  3.5D-01, r^2= 7.1D+00
   Bfn.  Coefficient  Atom+Function         Bfn.  Coefficient  Atom+Function  
  ----- ------------  ---------------      ----- ------------  ---------------
    16      1.498969  1 O  py                58     -0.313568  2 H  py         
    81     -0.313568  3 H  py         
 
 Vector   10  Occ=0.000000D+00  E= 9.929854D-02
              MO Center= -1.3D-12, -4.2D-15,  1.6D-01, r^2= 8.2D+00
   Bfn.  Coefficient  Atom+Function         Bfn.  Coefficient  Atom+Function  
  ----- ------------  ---------------      ----- ------------  ---------------
    17      1.444642  1 O  pz                49      0.507814  2 H  s          
    72      0.507814  3 H  s                  5      0.413544  1 O  s          
    50     -0.378808  2 H  s                 73     -0.378808  3 H  s          
    59     -0.330998  2 H  pz                82     -0.330998  3 H  pz         
     4      0.309097  1 O  s                 57      0.300298  2 H  px         
 
 Vector   11  Occ=0.000000D+00  E= 1.022251D-01
              MO Center=  6.4D-13,  1.0D-15, -8.3D-01, r^2= 1.1D+01
   Bfn.  Coefficient  Atom+Function         Bfn.  Coefficient  Atom+Function  
  ----- ------------  ---------------      ----- ------------  ---------------
    50      2.940552  2 H  s                 73     -2.940552  3 H  s          
    49      2.206957  2 H  s                 72     -2.206957  3 H  s          
    15     -1.598312  1 O  px                57     -0.939764  2 H  px         
    80     -0.939764  3 H  px                59      0.927590  2 H  pz         
    82     -0.927590  3 H  pz                12     -0.565438  1 O  px         
 
 Vector   12  Occ=0.000000D+00  E= 1.479623D-01
              MO Center=  8.0D-13,  1.3D-14,  6.4D-01, r^2= 8.7D+00
   Bfn.  Coefficient  Atom+Function         Bfn.  Coefficient  Atom+Function  
  ----- ------------  ---------------      ----- ------------  ---------------
    15      3.196865  1 O  px                49     -2.806830  2 H  s          
    72      2.806830  3 H  s                 50     -2.144384  2 H  s          
    73      2.144384  3 H  s                 12      1.398485  1 O  px         
    48     -0.949065  2 H  s                 71      0.949065  3 H  s          
    31      0.583776  1 O  d  1       
 
 Vector   13  Occ=0.000000D+00  E= 1.686730D-01
              MO Center= -3.0D-13,  3.0D-15, -1.9D-01, r^2= 6.2D+00
   Bfn.  Coefficient  Atom+Function         Bfn.  Coefficient  Atom+Function  
  ----- ------------  ---------------      ----- ------------  ---------------
     5      3.369602  1 O  s                 49     -1.626885  2 H  s          
    72     -1.626885  3 H  s                 59     -0.986314  2 H  pz         
    82     -0.986314  3 H  pz                57     -0.634402  2 H  px         
    80      0.634402  3 H  px                17      0.466293  1 O  pz         
     4      0.437173  1 O  s                 30     -0.427721  1 O  d  0       
 
 Vector   14  Occ=0.000000D+00  E= 1.915048D-01
              MO Center=  2.5D-17, -1.7D-14, -5.0D-01, r^2= 5.9D+00
   Bfn.  Coefficient  Atom+Function         Bfn.  Coefficient  Atom+Function  
  ----- ------------  ---------------      ----- ------------  ---------------
    58      1.596935  2 H  py                81     -1.596935  3 H  py         
    28     -0.473639  1 O  d -2              55      0.235063  2 H  py         
    78     -0.235063  3 H  py                65     -0.186953  2 H  d -2       
    88     -0.186953  3 H  d -2              66      0.168551  2 H  d -1       
    89     -0.168551  3 H  d -1       
 
 Vector   15  Occ=0.000000D+00  E= 2.138476D-01
              MO Center=  1.8D-14,  5.4D-14, -2.7D-01, r^2= 6.3D+00
   Bfn.  Coefficient  Atom+Function         Bfn.  Coefficient  Atom+Function  
  ----- ------------  ---------------      ----- ------------  ---------------
    16      1.986271  1 O  py                58     -1.727290  2 H  py         
    81     -1.727290  3 H  py                13      1.509212  1 O  py         
    29     -0.399224  1 O  d -1              55     -0.278141  2 H  py         
    78     -0.278141  3 H  py                65      0.247567  2 H  d -2       
    88     -0.247567  3 H  d -2       
 
 Vector   16  Occ=0.000000D+00  E= 2.159430D-01
              MO Center= -7.3D-13, -5.2D-14,  2.3D-01, r^2= 6.8D+00
   Bfn.  Coefficient  Atom+Function         Bfn.  Coefficient  Atom+Function  
  ----- ------------  ---------------      ----- ------------  ---------------
     5      7.572020  1 O  s                 49     -3.849437  2 H  s          
    72     -3.849437  3 H  s                 17     -2.512368  1 O  pz         
    14     -2.019315  1 O  pz                 4      1.482860  1 O  s          
    48     -1.100027  2 H  s                 71     -1.100027  3 H  s          
    59      0.640329  2 H  pz                82      0.640329  3 H  pz         
 
 Vector   17  Occ=0.000000D+00  E= 3.085504D-01
              MO Center=  3.4D-12,  5.1D-15, -3.0D-01, r^2= 8.0D+00
   Bfn.  Coefficient  Atom+Function         Bfn.  Coefficient  Atom+Function  
  ----- ------------  ---------------      ----- ------------  ---------------
    57      4.126608  2 H  px                80      4.126608  3 H  px         
    15     -3.422136  1 O  px                49     -3.385593  2 H  s          
    72      3.385593  3 H  s                 59      1.768722  2 H  pz         
    82     -1.768722  3 H  pz                12     -1.195530  1 O  px         
    50      0.836354  2 H  s                 73     -0.836354  3 H  s          
 
 Vector   18  Occ=0.000000D+00  E= 3.141721D-01
              MO Center=  2.0D-11,  1.8D-15, -8.2D-01, r^2= 8.0D+00
   Bfn.  Coefficient  Atom+Function         Bfn.  Coefficient  Atom+Function  
  ----- ------------  ---------------      ----- ------------  ---------------
     5      8.824769  1 O  s                 49     -4.955274  2 H  s          
    72     -4.955274  3 H  s                  4      4.157586  1 O  s          
    57      2.084038  2 H  px                80     -2.084038  3 H  px         
    59     -1.803963  2 H  pz                82     -1.803963  3 H  pz         
    50     -0.754804  2 H  s                 73     -0.754804  3 H  s          
 
 Vector   19  Occ=0.000000D+00  E= 3.264317D-01
              MO Center= -2.3D-11, -9.4D-16, -9.1D-01, r^2= 7.3D+00
   Bfn.  Coefficient  Atom+Function         Bfn.  Coefficient  Atom+Function  
  ----- ------------  ---------------      ----- ------------  ---------------
    49      7.979626  2 H  s                 72     -7.979626  3 H  s          
    57     -3.017551  2 H  px                80     -3.017551  3 H  px         
    59      2.190324  2 H  pz                82     -2.190324  3 H  pz         
    50      2.038065  2 H  s                 73     -2.038065  3 H  s          
    15     -1.992020  1 O  px                12     -1.675598  1 O  px         
 
 Vector   20  Occ=0.000000D+00  E= 4.550070D-01
              MO Center= -3.8D-13, -3.2D-15,  2.2D-01, r^2= 6.2D+00
   Bfn.  Coefficient  Atom+Function         Bfn.  Coefficient  Atom+Function  
  ----- ------------  ---------------      ----- ------------  ---------------
    49      9.787791  2 H  s                 72     -9.787791  3 H  s          
    12     -3.657142  1 O  px                15     -3.016793  1 O  px         
    57     -2.481838  2 H  px                80     -2.481838  3 H  px         
    31     -1.976175  1 O  d  1              48      1.961322  2 H  s          
    71     -1.961322  3 H  s                 50      1.505700  2 H  s          
 
 Vector   21  Occ=0.000000D+00  E= 4.962259D-01
              MO Center=  1.8D-12,  2.0D-14, -6.4D-01, r^2= 4.1D+00
   Bfn.  Coefficient  Atom+Function         Bfn.  Coefficient  Atom+Function  
  ----- ------------  ---------------      ----- ------------  ---------------
     5      6.837980  1 O  s                 49     -4.358384  2 H  s          
    72     -4.358384  3 H  s                  4      1.570924  1 O  s          
    32      1.212725  1 O  d  2              59     -1.104487  2 H  pz         
    82     -1.104487  3 H  pz                17     -0.916073  1 O  pz         
    30     -0.902317  1 O  d  0              14      0.872050  1 O  pz         
 
 Vector   22  Occ=0.000000D+00  E= 5.448294D-01
              MO Center= -4.0D-13,  8.2D-15,  2.9D-01, r^2= 4.2D+00
   Bfn.  Coefficient  Atom+Function         Bfn.  Coefficient  Atom+Function  
  ----- ------------  ---------------      ----- ------------  ---------------
     5      3.125830  1 O  s                 49     -1.979604  2 H  s          
    72     -1.979604  3 H  s                 14     -1.963456  1 O  pz         
    17     -1.892946  1 O  pz                30      1.613648  1 O  d  0       
    59      1.018440  2 H  pz                82      1.018440  3 H  pz         
     4      0.967071  1 O  s                 57      0.603690  2 H  px         
 

 center of mass
 --------------
 x =   0.00000000 y =   0.00000000 z =   0.09921406

 moments of inertia (a.u.)
 ------------------
           2.270969023714           0.000000000000           0.000000000000
           0.000000000000           6.421267634361           0.000000000000
           0.000000000000           0.000000000000           4.150298610647
 
     Multipole analysis of the density
     ---------------------------------
 
     L   x y z        total         alpha         beta         nuclear
     -   - - -        -----         -----         ----         -------
     0   0 0 0     -0.000000     -5.000000     -5.000000     10.000000
 
     1   1 0 0      0.000000      0.000000      0.000000      0.000000
     1   0 1 0      0.000000      0.000000      0.000000      0.000000
     1   0 0 1     -0.712863     -0.356432     -0.356432      0.000000
 
     2   2 0 0     -3.386308     -3.752191     -3.752191      4.118075
     2   1 1 0     -0.000000     -0.000000     -0.000000      0.000000
     2   1 0 1     -0.000000     -0.000000     -0.000000      0.000000
     2   0 2 0     -5.836453     -2.918226     -2.918226      0.000000
     2   0 1 1      0.000000      0.000000      0.000000      0.000000
     2   0 0 2     -4.836459     -3.433149     -3.433149      2.029839
 
 
 
                            NWChem DFT Gradient Module
                            --------------------------
 
 
                            TDDFT h2o BP86/aug-cc-pVTZ
 
 

  charge          =   0.00
  wavefunction    = closed shell



                         DFT ENERGY GRADIENTS

    atom               coordinates                        gradient
                 x          y          z           x          y          z
   1 O       0.000000   0.000000   0.225269   -0.000000   0.000000  -0.005672
   2 H       1.434935   0.000000  -0.901075   -0.005254  -0.000000   0.002836
   3 H      -1.434935   0.000000  -0.901075    0.005254  -0.000000   0.002836
 
                 ----------------------------------------
                 |  Time  |  1-e(secs)   |  2-e(secs)   |
                 ----------------------------------------
                 |  CPU   |       0.00   |       0.43   |
                 ----------------------------------------
                 |  WALL  |       0.00   |       0.34   |
                 ----------------------------------------

@ Step       Energy      Delta E   Gmax     Grms     Xrms     Xmax   Walltime
@ ---- ---------------- -------- -------- -------- -------- -------- --------
@    0     -76.46602603  0.0D+00  0.00588  0.00484  0.00000  0.00000     22.8
                                                                    



                                Z-matrix (autoz)
                                -------- 

 Units are Angstrom for bonds and degrees for angles
 
      Type          Name      I     J     K     L     M      Value     Gradient
      ----------- --------  ----- ----- ----- ----- ----- ---------- ----------
    1 Stretch                  1     2                       0.96532   -0.00588
    2 Stretch                  1     3                       0.96532   -0.00588
    3 Bend                     2     1     3               103.74015   -0.00098
 
 
                                 NWChem DFT Module
                                 -----------------
 
 
                            TDDFT h2o BP86/aug-cc-pVTZ
 
 


 Summary of "ao basis" -> "ao basis" (spherical)
 ------------------------------------------------------------------------------
       Tag                 Description            Shells   Functions and Types
 ---------------- ------------------------------  ------  ---------------------
 O                        aug-cc-pVTZ               14       46   5s4p3d2f
 H                        aug-cc-pVTZ                9       23   4s3p2d


  Caching 1-el integrals 
 
            General Information
            -------------------
          SCF calculation type: DFT
          Wavefunction type:  closed shell.
          No. of atoms     :     3
          No. of electrons :    10
           Alpha electrons :     5
            Beta electrons :     5
          Charge           :     0
          Spin multiplicity:     1
          Use of symmetry is: off; symmetry adaption is: off
          Maximum number of iterations:  30
          This is a Direct SCF calculation.
          AO basis - number of functions:    92
                     number of shells:    32
          Convergence on energy requested: 1.00D-08
          Convergence on density requested: 1.00D-05
          Convergence on gradient requested: 5.00D-04
 
              XC Information
              --------------
                    Becke 1988 Exchange Functional  1.000          
                Perdew 1981 Correlation Functional  1.000 local    
                Perdew 1986 Correlation Functional  1.000 non-local
 
             Grid Information
             ----------------
          Grid used for XC integration:  medium    
          Radial quadrature: Mura-Knowles        
          Angular quadrature: Lebedev. 
          Tag              B.-S. Rad. Rad. Pts. Rad. Cut. Ang. Pts.
          ---              ---------- --------- --------- ---------
          O                   0.60       49          10.0       434
          H                   0.35       45          12.0       434
          Grid pruning is: on 
          Number of quadrature shells:   139
          Spatial weights used:  Erf1
 
          Convergence Information
          -----------------------
          Convergence aids based upon iterative change in 
          total energy or number of iterations. 
          Levelshifting, if invoked, occurs when the 
          HOMO/LUMO gap drops below (HL_TOL): 1.00D-02
          DIIS, if invoked, will attempt to extrapolate 
          using up to (NFOCK): 10 stored Fock matrices.

                    Damping( 0%)  Levelshifting(0.0)       DIIS
                  --------------- ------------------- ---------------
          dE  on:    start             N/A                start   
          dE off:    2 iters           N/A               30 iters 

 
      Screening Tolerance Information
      -------------------------------
          Density screening/tol_rho: 1.00D-11
          AO Gaussian exp screening on grid/accAOfunc:  18
          CD Gaussian exp screening on grid/accCDfunc:  20
          XC Gaussian exp screening on grid/accXCfunc:  20
          Schwarz screening/accCoul: 1.00D-09


 Loading old vectors from job with title :

TDDFT h2o BP86/aug-cc-pVTZ

   Time after variat. SCF:      5.2
   Time prior to 1st pass:      5.2

 Grid_pts file          = /scratch/h2o_raman_3.gridpts.00
 Record size in doubles =  12289        No. of grid_pts per rec  =   3070
 Max. records in memory =      3        Max. recs in file   =  63328179


           Memory utilization after 1st SCF pass: 
           Heap Space remaining (MW):       13.07            13066946
          Stack Space remaining (MW):       13.11            13106604

   convergence    iter        energy       DeltaE   RMS-Dens  Diis-err    time
 ---------------- ----- ----------------- --------- --------- ---------  ------
 d= 0,ls=0.0,diis     1    -76.4660413620 -8.55D+01  2.13D-04  5.52D-04     5.3
 d= 0,ls=0.0,diis     2    -76.4660632123 -2.19D-05  8.76D-05  2.38D-04     5.4
 d= 0,ls=0.0,diis     3    -76.4660648699 -1.66D-06  4.59D-05  2.22D-04     5.5
 d= 0,ls=0.0,diis     4    -76.4660831634 -1.83D-05  3.16D-06  7.75D-07     5.5
 d= 0,ls=0.0,diis     5    -76.4660832336 -7.02D-08  3.49D-07  1.06D-08     5.6
 d= 0,ls=0.0,diis     6    -76.4660832347 -1.03D-09  1.38D-08  9.63D-12     5.7


         Total DFT energy =      -76.466083234677
      One electron energy =     -122.715623573426
           Coulomb energy =       46.522775086579
    Exchange-Corr. energy =       -9.309455874738
 Nuclear repulsion energy =        9.036221126907

 Numeric. integr. density =       10.000002457006

     Total iterative time =      0.6s


 
                       DFT Final Molecular Orbital Analysis
                       ------------------------------------
 
 Vector    1  Occ=2.000000D+00  E=-1.878214D+01
              MO Center= -4.3D-10,  3.4D-19,  1.2D-01, r^2= 1.5D-02
   Bfn.  Coefficient  Atom+Function         Bfn.  Coefficient  Atom+Function  
  ----- ------------  ---------------      ----- ------------  ---------------
     1      0.973964  1 O  s          
 
 Vector    2  Occ=2.000000D+00  E=-9.299922D-01
              MO Center= -8.2D-10,  4.2D-16, -8.3D-02, r^2= 5.0D-01
   Bfn.  Coefficient  Atom+Function         Bfn.  Coefficient  Atom+Function  
  ----- ------------  ---------------      ----- ------------  ---------------
     2      0.482989  1 O  s                  4      0.282226  1 O  s          
 
 Vector    3  Occ=2.000000D+00  E=-4.831361D-01
              MO Center=  3.4D-10, -2.4D-16, -9.6D-02, r^2= 7.8D-01
   Bfn.  Coefficient  Atom+Function         Bfn.  Coefficient  Atom+Function  
  ----- ------------  ---------------      ----- ------------  ---------------
     9      0.325417  1 O  px                 6      0.300717  1 O  px         
    48      0.225249  2 H  s                 71     -0.225249  3 H  s          
 
 Vector    4  Occ=2.000000D+00  E=-3.463817D-01
              MO Center= -3.1D-10,  3.3D-16,  1.8D-01, r^2= 7.6D-01
   Bfn.  Coefficient  Atom+Function         Bfn.  Coefficient  Atom+Function  
  ----- ------------  ---------------      ----- ------------  ---------------
    11      0.359603  1 O  pz                 4      0.344100  1 O  s          
     8      0.320055  1 O  pz                14      0.206803  1 O  pz         
     2      0.199619  1 O  s                 48     -0.175150  2 H  s          
    71     -0.175150  3 H  s          
 
 Vector    5  Occ=2.000000D+00  E=-2.693241D-01
              MO Center= -4.4D-10, -7.3D-16,  7.3D-02, r^2= 7.2D-01
   Bfn.  Coefficient  Atom+Function         Bfn.  Coefficient  Atom+Function  
  ----- ------------  ---------------      ----- ------------  ---------------
    10      0.428288  1 O  py                 7      0.365089  1 O  py         
    13      0.324788  1 O  py         
 
 Vector    6  Occ=0.000000D+00  E=-3.268044D-02
              MO Center=  4.5D-09,  5.4D-15, -7.7D-01, r^2= 7.2D+00
   Bfn.  Coefficient  Atom+Function         Bfn.  Coefficient  Atom+Function  
  ----- ------------  ---------------      ----- ------------  ---------------
     5      0.474686  1 O  s                 50     -0.460282  2 H  s          
    73     -0.460282  3 H  s                  4      0.364473  1 O  s          
    49     -0.352734  2 H  s                 72     -0.352734  3 H  s          
    14     -0.191694  1 O  pz                 2      0.151681  1 O  s          
 
 Vector    7  Occ=0.000000D+00  E= 1.495628D-02
              MO Center= -1.1D-08, -6.5D-15, -7.7D-01, r^2= 1.5D+01
   Bfn.  Coefficient  Atom+Function         Bfn.  Coefficient  Atom+Function  
  ----- ------------  ---------------      ----- ------------  ---------------
    50      2.612716  2 H  s                 73     -2.612716  3 H  s          
    49      0.795707  2 H  s                 72     -0.795707  3 H  s          
    15     -0.641016  1 O  px                12     -0.339606  1 O  px         
    48      0.157658  2 H  s                 71     -0.157658  3 H  s          
 
 Vector    8  Occ=0.000000D+00  E= 6.574366D-02
              MO Center=  4.3D-08,  8.9D-15, -7.2D-02, r^2= 1.4D+01
   Bfn.  Coefficient  Atom+Function         Bfn.  Coefficient  Atom+Function  
  ----- ------------  ---------------      ----- ------------  ---------------
     5      5.370085  1 O  s                 49     -2.110737  2 H  s          
    72     -2.110737  3 H  s                  4      1.359686  1 O  s          
    17     -1.122883  1 O  pz                50     -1.023913  2 H  s          
    73     -1.023913  3 H  s                 57      0.688523  2 H  px         
    80     -0.688523  3 H  px                59     -0.541246  2 H  pz         
 
 Vector    9  Occ=0.000000D+00  E= 9.422570D-02
              MO Center=  1.5D-10, -1.9D-14,  3.5D-01, r^2= 7.1D+00
   Bfn.  Coefficient  Atom+Function         Bfn.  Coefficient  Atom+Function  
  ----- ------------  ---------------      ----- ------------  ---------------
    16      1.491757  1 O  py                58     -0.307444  2 H  py         
    81     -0.307444  3 H  py         
 
 Vector   10  Occ=0.000000D+00  E= 9.868144D-02
              MO Center= -5.4D-08,  1.9D-15,  1.6D-01, r^2= 8.1D+00
   Bfn.  Coefficient  Atom+Function         Bfn.  Coefficient  Atom+Function  
  ----- ------------  ---------------      ----- ------------  ---------------
    17      1.467255  1 O  pz                49      0.594714  2 H  s          
    72      0.594714  3 H  s                 50     -0.354001  2 H  s          
    73     -0.354001  3 H  s                 59     -0.301349  2 H  pz         
    82     -0.301349  3 H  pz                57      0.275734  2 H  px         
    80     -0.275734  3 H  px                 4      0.251059  1 O  s          
 
 Vector   11  Occ=0.000000D+00  E= 1.002086D-01
              MO Center=  1.7D-08, -2.8D-15, -8.2D-01, r^2= 1.1D+01
   Bfn.  Coefficient  Atom+Function         Bfn.  Coefficient  Atom+Function  
  ----- ------------  ---------------      ----- ------------  ---------------
    50      2.887615  2 H  s                 73     -2.887615  3 H  s          
    49      2.085433  2 H  s                 72     -2.085433  3 H  s          
    15     -1.546318  1 O  px                57     -0.917097  2 H  px         
    80     -0.917097  3 H  px                59      0.903016  2 H  pz         
    82     -0.903016  3 H  pz                12     -0.538022  1 O  px         
 
 Vector   12  Occ=0.000000D+00  E= 1.477023D-01
              MO Center=  1.8D-08, -1.6D-14,  6.4D-01, r^2= 8.8D+00
   Bfn.  Coefficient  Atom+Function         Bfn.  Coefficient  Atom+Function  
  ----- ------------  ---------------      ----- ------------  ---------------
    15      3.211003  1 O  px                49     -2.844879  2 H  s          
    72      2.844879  3 H  s                 50     -2.154571  2 H  s          
    73      2.154571  3 H  s                 12      1.384824  1 O  px         
    48     -0.935707  2 H  s                 71      0.935707  3 H  s          
    31      0.577224  1 O  d  1       
 
 Vector   13  Occ=0.000000D+00  E= 1.677130D-01
              MO Center=  2.0D-08,  8.0D-15, -1.8D-01, r^2= 6.3D+00
   Bfn.  Coefficient  Atom+Function         Bfn.  Coefficient  Atom+Function  
  ----- ------------  ---------------      ----- ------------  ---------------
     5      3.468321  1 O  s                 49     -1.655475  2 H  s          
    72     -1.655475  3 H  s                 59     -0.988225  2 H  pz         
    82     -0.988225  3 H  pz                57     -0.601719  2 H  px         
    80      0.601719  3 H  px                17      0.454876  1 O  pz         
     4      0.444474  1 O  s                 30     -0.422397  1 O  d  0       
 
 Vector   14  Occ=0.000000D+00  E= 1.908806D-01
              MO Center=  2.7D-09,  2.6D-14, -5.0D-01, r^2= 5.9D+00
   Bfn.  Coefficient  Atom+Function         Bfn.  Coefficient  Atom+Function  
  ----- ------------  ---------------      ----- ------------  ---------------
    58      1.575598  2 H  py                81     -1.575598  3 H  py         
    28     -0.470898  1 O  d -2              55      0.228424  2 H  py         
    78     -0.228424  3 H  py                65     -0.184356  2 H  d -2       
    88     -0.184356  3 H  d -2              66      0.166365  2 H  d -1       
    89     -0.166365  3 H  d -1       
 
 Vector   15  Occ=0.000000D+00  E= 2.138537D-01
              MO Center= -3.3D-09, -1.3D-13, -2.7D-01, r^2= 6.4D+00
   Bfn.  Coefficient  Atom+Function         Bfn.  Coefficient  Atom+Function  
  ----- ------------  ---------------      ----- ------------  ---------------
    16      1.983094  1 O  py                58     -1.719757  2 H  py         
    81     -1.719757  3 H  py                13      1.479191  1 O  py         
    29     -0.393702  1 O  d -1              55     -0.268968  2 H  py         
    78     -0.268968  3 H  py                65      0.246688  2 H  d -2       
    88     -0.246688  3 H  d -2       
 
 Vector   16  Occ=0.000000D+00  E= 2.156112D-01
              MO Center= -2.6D-08,  1.2D-13,  2.4D-01, r^2= 6.8D+00
   Bfn.  Coefficient  Atom+Function         Bfn.  Coefficient  Atom+Function  
  ----- ------------  ---------------      ----- ------------  ---------------
     5      7.583261  1 O  s                 49     -3.855146  2 H  s          
    72     -3.855145  3 H  s                 17     -2.513751  1 O  pz         
    14     -1.994179  1 O  pz                 4      1.469430  1 O  s          
    48     -1.068222  2 H  s                 71     -1.068221  3 H  s          
    59      0.631100  2 H  pz                82      0.631100  3 H  pz         
 
 Vector   17  Occ=0.000000D+00  E= 3.077501D-01
              MO Center= -3.4D-07,  1.1D-15, -3.1D-01, r^2= 8.0D+00
   Bfn.  Coefficient  Atom+Function         Bfn.  Coefficient  Atom+Function  
  ----- ------------  ---------------      ----- ------------  ---------------
    57      3.987596  2 H  px                80      3.987600  3 H  px         
    15     -3.419630  1 O  px                49     -3.060455  2 H  s          
    72      3.060463  3 H  s                 59      1.760175  2 H  pz         
    82     -1.760172  3 H  pz                12     -1.198502  1 O  px         
    50      0.835142  2 H  s                 73     -0.835141  3 H  s          
 
 Vector   18  Occ=0.000000D+00  E= 3.121412D-01
              MO Center=  4.8D-07, -1.1D-15, -8.2D-01, r^2= 8.0D+00
   Bfn.  Coefficient  Atom+Function         Bfn.  Coefficient  Atom+Function  
  ----- ------------  ---------------      ----- ------------  ---------------
     5      8.670227  1 O  s                 49     -4.849687  2 H  s          
    72     -4.849681  3 H  s                  4      4.128243  1 O  s          
    57      2.087233  2 H  px                80     -2.087226  3 H  px         
    59     -1.785236  2 H  pz                82     -1.785239  3 H  pz         
    50     -0.750973  2 H  s                 73     -0.750975  3 H  s          
 
 Vector   19  Occ=0.000000D+00  E= 3.240693D-01
              MO Center= -1.5D-07, -7.1D-16, -9.0D-01, r^2= 7.4D+00
   Bfn.  Coefficient  Atom+Function         Bfn.  Coefficient  Atom+Function  
  ----- ------------  ---------------      ----- ------------  ---------------
    49      7.737067  2 H  s                 72     -7.737068  3 H  s          
    57     -2.995707  2 H  px                80     -2.995707  3 H  px         
    59      2.143750  2 H  pz                82     -2.143751  3 H  pz         
    50      2.005772  2 H  s                 73     -2.005772  3 H  s          
    15     -1.943175  1 O  px                12     -1.649512  1 O  px         
 
 Vector   20  Occ=0.000000D+00  E= 4.553791D-01
              MO Center=  4.5D-08, -1.4D-15,  2.2D-01, r^2= 6.2D+00
   Bfn.  Coefficient  Atom+Function         Bfn.  Coefficient  Atom+Function  
  ----- ------------  ---------------      ----- ------------  ---------------
    49      9.618988  2 H  s                 72     -9.618989  3 H  s          
    12     -3.613936  1 O  px                15     -3.037920  1 O  px         
    57     -2.452982  2 H  px                80     -2.452982  3 H  px         
    31     -1.953276  1 O  d  1              48      1.901980  2 H  s          
    71     -1.901980  3 H  s                 50      1.497828  2 H  s          
 
 Vector   21  Occ=0.000000D+00  E= 4.944955D-01
              MO Center= -2.2D-08, -9.3D-15, -6.4D-01, r^2= 4.1D+00
   Bfn.  Coefficient  Atom+Function         Bfn.  Coefficient  Atom+Function  
  ----- ------------  ---------------      ----- ------------  ---------------
     5      6.995230  1 O  s                 49     -4.460651  2 H  s          
    72     -4.460650  3 H  s                  4      1.574263  1 O  s          
    32      1.186815  1 O  d  2              59     -1.128876  2 H  pz         
    82     -1.128876  3 H  pz                17     -0.936584  1 O  pz         
    30     -0.897166  1 O  d  0              14      0.865872  1 O  pz         
 
 Vector   22  Occ=0.000000D+00  E= 5.451787D-01
              MO Center= -1.5D-08, -5.3D-15,  2.9D-01, r^2= 4.2D+00
   Bfn.  Coefficient  Atom+Function         Bfn.  Coefficient  Atom+Function  
  ----- ------------  ---------------      ----- ------------  ---------------
     5      3.139134  1 O  s                 49     -1.992376  2 H  s          
    72     -1.992376  3 H  s                 14     -1.951359  1 O  pz         
    17     -1.890137  1 O  pz                30      1.607841  1 O  d  0       
    59      1.008637  2 H  pz                82      1.008637  3 H  pz         
     4      0.997261  1 O  s                 57      0.614244  2 H  px         
 

 center of mass
 --------------
 x =  -0.00000000 y =   0.00000000 z =   0.10059264

 moments of inertia (a.u.)
 ------------------
           2.281000924922           0.000000000000           0.000000003368
           0.000000000000           6.541958073273           0.000000000000
           0.000000003368           0.000000000000           4.260957148352
 
     Multipole analysis of the density
     ---------------------------------
 
     L   x y z        total         alpha         beta         nuclear
     -   - - -        -----         -----         ----         -------
     0   0 0 0     -0.000000     -5.000000     -5.000000     10.000000
 
     1   1 0 0      0.000000      0.000000      0.000000     -0.000000
     1   0 1 0      0.000000      0.000000      0.000000      0.000000
     1   0 0 1     -0.710460     -0.361028     -0.361028      0.011597
 
     2   2 0 0     -3.355875     -3.791874     -3.791874      4.227874
     2   1 1 0      0.000000      0.000000      0.000000      0.000000
     2   1 0 1     -0.000000      0.000000      0.000000     -0.000000
     2   0 2 0     -5.852722     -2.926361     -2.926361      0.000000
     2   0 1 1     -0.000000     -0.000000     -0.000000      0.000000
     2   0 0 2     -4.856445     -3.447632     -3.447632      2.038819
 
 Line search: 
     step= 1.00 grad=-2.1D-04 hess= 1.6D-04 energy=    -76.466083 mode=downhill
 new step= 0.68                   predicted energy=    -76.466099

          --------
          Step   1
          --------
 
 
                         Geometry "geometry" -> "geometry"
                         ---------------------------------
 
 Output coordinates in angstroms (scale by  1.889725989 to convert to a.u.)
 
  No.       Tag          Charge          X              Y              Z
 ---- ---------------- ---------- -------------- -------------- --------------
    1 O                    8.0000    -0.00000000     0.00000000     0.11981191
    2 H                    1.0000     0.76619471     0.00000000    -0.47713060
    3 H                    1.0000    -0.76619471     0.00000000    -0.47713060
 
      Atomic Mass 
      ----------- 
 
      O                 15.994910
      H                  1.007825
 

 Effective nuclear repulsion energy (a.u.)       9.0624764544

            Nuclear Dipole moment (a.u.) 
            ----------------------------
        X                 Y               Z
 ---------------- ---------------- ----------------
    -0.0000000039     0.0000000000     0.0080012410
 
 
                                 NWChem DFT Module
                                 -----------------
 
 
                            TDDFT h2o BP86/aug-cc-pVTZ
 
 


 Summary of "ao basis" -> "ao basis" (spherical)
 ------------------------------------------------------------------------------
       Tag                 Description            Shells   Functions and Types
 ---------------- ------------------------------  ------  ---------------------
 O                        aug-cc-pVTZ               14       46   5s4p3d2f
 H                        aug-cc-pVTZ                9       23   4s3p2d


  Caching 1-el integrals 
 
            General Information
            -------------------
          SCF calculation type: DFT
          Wavefunction type:  closed shell.
          No. of atoms     :     3
          No. of electrons :    10
           Alpha electrons :     5
            Beta electrons :     5
          Charge           :     0
          Spin multiplicity:     1
          Use of symmetry is: off; symmetry adaption is: off
          Maximum number of iterations:  30
          This is a Direct SCF calculation.
          AO basis - number of functions:    92
                     number of shells:    32
          Convergence on energy requested: 1.00D-08
          Convergence on density requested: 1.00D-05
          Convergence on gradient requested: 5.00D-04
 
              XC Information
              --------------
                    Becke 1988 Exchange Functional  1.000          
                Perdew 1981 Correlation Functional  1.000 local    
                Perdew 1986 Correlation Functional  1.000 non-local
 
             Grid Information
             ----------------
          Grid used for XC integration:  medium    
          Radial quadrature: Mura-Knowles        
          Angular quadrature: Lebedev. 
          Tag              B.-S. Rad. Rad. Pts. Rad. Cut. Ang. Pts.
          ---              ---------- --------- --------- ---------
          O                   0.60       49          10.0       434
          H                   0.35       45          12.0       434
          Grid pruning is: on 
          Number of quadrature shells:   139
          Spatial weights used:  Erf1
 
          Convergence Information
          -----------------------
          Convergence aids based upon iterative change in 
          total energy or number of iterations. 
          Levelshifting, if invoked, occurs when the 
          HOMO/LUMO gap drops below (HL_TOL): 1.00D-02
          DIIS, if invoked, will attempt to extrapolate 
          using up to (NFOCK): 10 stored Fock matrices.

                    Damping( 0%)  Levelshifting(0.0)       DIIS
                  --------------- ------------------- ---------------
          dE  on:    start             N/A                start   
          dE off:    2 iters           N/A               30 iters 

 
      Screening Tolerance Information
      -------------------------------
          Density screening/tol_rho: 1.00D-11
          AO Gaussian exp screening on grid/accAOfunc:  18
          CD Gaussian exp screening on grid/accCDfunc:  20
          XC Gaussian exp screening on grid/accXCfunc:  20
          Schwarz screening/accCoul: 1.00D-09


 Loading old vectors from job with title :

TDDFT h2o BP86/aug-cc-pVTZ

   Time after variat. SCF:      5.8
   Time prior to 1st pass:      5.8

 Grid_pts file          = /scratch/h2o_raman_3.gridpts.00
 Record size in doubles =  12289        No. of grid_pts per rec  =   3070
 Max. records in memory =      3        Max. recs in file   =  63328179


           Memory utilization after 1st SCF pass: 
           Heap Space remaining (MW):       13.07            13066946
          Stack Space remaining (MW):       13.11            13106604

   convergence    iter        energy       DeltaE   RMS-Dens  Diis-err    time
 ---------------- ----- ----------------- --------- --------- ---------  ------
 d= 0,ls=0.0,diis     1    -76.4660947355 -8.55D+01  6.70D-05  5.39D-05     5.9
 d= 0,ls=0.0,diis     2    -76.4660966579 -1.92D-06  2.79D-05  2.54D-05     6.0
 d= 0,ls=0.0,diis     3    -76.4660970349 -3.77D-07  1.43D-05  2.14D-05     6.1
 d= 0,ls=0.0,diis     4    -76.4660988031 -1.77D-06  9.98D-07  7.87D-08     6.2
 d= 0,ls=0.0,diis     5    -76.4660987884  1.47D-08  1.10D-07  1.04D-09     6.3
 d= 0,ls=0.0,diis     6    -76.4660987885 -1.01D-10  3.68D-09  6.60D-13     6.3


         Total DFT energy =      -76.466098788507
      One electron energy =     -122.761897408224
           Coulomb energy =       46.545401791064
    Exchange-Corr. energy =       -9.312079625711
 Nuclear repulsion energy =        9.062476454364

 Numeric. integr. density =       10.000002306187

     Total iterative time =      0.6s


 
                       DFT Final Molecular Orbital Analysis
                       ------------------------------------
 
 Vector    1  Occ=2.000000D+00  E=-1.878177D+01
              MO Center= -2.9D-10,  4.5D-19,  1.2D-01, r^2= 1.5D-02
   Bfn.  Coefficient  Atom+Function         Bfn.  Coefficient  Atom+Function  
  ----- ------------  ---------------      ----- ------------  ---------------
     1      0.974031  1 O  s          
 
 Vector    2  Occ=2.000000D+00  E=-9.312436D-01
              MO Center= -5.6D-10,  1.7D-16, -8.4D-02, r^2= 5.0D-01
   Bfn.  Coefficient  Atom+Function         Bfn.  Coefficient  Atom+Function  
  ----- ------------  ---------------      ----- ------------  ---------------
     2      0.482527  1 O  s                  4      0.280698  1 O  s          
 
 Vector    3  Occ=2.000000D+00  E=-4.837315D-01
              MO Center=  2.3D-10,  5.6D-17, -9.6D-02, r^2= 7.8D-01
   Bfn.  Coefficient  Atom+Function         Bfn.  Coefficient  Atom+Function  
  ----- ------------  ---------------      ----- ------------  ---------------
     9      0.325136  1 O  px                 6      0.301017  1 O  px         
    48      0.226241  2 H  s                 71     -0.226241  3 H  s          
 
 Vector    4  Occ=2.000000D+00  E=-3.468925D-01
              MO Center= -2.1D-10,  2.1D-15,  1.8D-01, r^2= 7.5D-01
   Bfn.  Coefficient  Atom+Function         Bfn.  Coefficient  Atom+Function  
  ----- ------------  ---------------      ----- ------------  ---------------
    11      0.359422  1 O  pz                 4      0.345274  1 O  s          
     8      0.320061  1 O  pz                14      0.206029  1 O  pz         
     2      0.200251  1 O  s                 48     -0.175442  2 H  s          
    71     -0.175442  3 H  s          
 
 Vector    5  Occ=2.000000D+00  E=-2.695710D-01
              MO Center= -3.0D-10, -4.1D-15,  7.3D-02, r^2= 7.2D-01
   Bfn.  Coefficient  Atom+Function         Bfn.  Coefficient  Atom+Function  
  ----- ------------  ---------------      ----- ------------  ---------------
    10      0.428227  1 O  py                 7      0.365057  1 O  py         
    13      0.324375  1 O  py         
 
 Vector    6  Occ=0.000000D+00  E=-3.237131D-02
              MO Center=  2.9D-09,  1.2D-14, -7.7D-01, r^2= 7.3D+00
   Bfn.  Coefficient  Atom+Function         Bfn.  Coefficient  Atom+Function  
  ----- ------------  ---------------      ----- ------------  ---------------
     5      0.479938  1 O  s                 50     -0.462720  2 H  s          
    73     -0.462720  3 H  s                  4      0.365679  1 O  s          
    49     -0.353263  2 H  s                 72     -0.353263  3 H  s          
    14     -0.191584  1 O  pz                 2      0.150968  1 O  s          
 
 Vector    7  Occ=0.000000D+00  E= 1.513718D-02
              MO Center= -7.9D-09, -2.6D-15, -7.7D-01, r^2= 1.5D+01
   Bfn.  Coefficient  Atom+Function         Bfn.  Coefficient  Atom+Function  
  ----- ------------  ---------------      ----- ------------  ---------------
    50      2.630530  2 H  s                 73     -2.630530  3 H  s          
    49      0.801558  2 H  s                 72     -0.801558  3 H  s          
    15     -0.643514  1 O  px                12     -0.340624  1 O  px         
    48      0.158241  2 H  s                 71     -0.158241  3 H  s          
 
 Vector    8  Occ=0.000000D+00  E= 6.598967D-02
              MO Center=  2.9D-08, -2.0D-15, -6.6D-02, r^2= 1.4D+01
   Bfn.  Coefficient  Atom+Function         Bfn.  Coefficient  Atom+Function  
  ----- ------------  ---------------      ----- ------------  ---------------
     5      5.389022  1 O  s                 49     -2.123919  2 H  s          
    72     -2.123919  3 H  s                  4      1.366631  1 O  s          
    17     -1.132851  1 O  pz                50     -1.022110  2 H  s          
    73     -1.022110  3 H  s                 57      0.685660  2 H  px         
    80     -0.685660  3 H  px                59     -0.542355  2 H  pz         
 
 Vector    9  Occ=0.000000D+00  E= 9.419808D-02
              MO Center=  1.0D-10, -1.5D-14,  3.5D-01, r^2= 7.1D+00
   Bfn.  Coefficient  Atom+Function         Bfn.  Coefficient  Atom+Function  
  ----- ------------  ---------------      ----- ------------  ---------------
    16      1.494050  1 O  py                58     -0.309390  2 H  py         
    81     -0.309390  3 H  py         
 
 Vector   10  Occ=0.000000D+00  E= 9.887753D-02
              MO Center= -3.0D-08,  1.3D-14,  1.6D-01, r^2= 8.2D+00
   Bfn.  Coefficient  Atom+Function         Bfn.  Coefficient  Atom+Function  
  ----- ------------  ---------------      ----- ------------  ---------------
    17      1.460070  1 O  pz                49      0.567132  2 H  s          
    72      0.567132  3 H  s                 50     -0.361964  2 H  s          
    73     -0.361964  3 H  s                 59     -0.310776  2 H  pz         
    82     -0.310776  3 H  pz                57      0.283672  2 H  px         
    80     -0.283672  3 H  px                 5      0.279488  1 O  s          
 
 Vector   11  Occ=0.000000D+00  E= 1.008517D-01
              MO Center=  5.6D-09,  3.4D-16, -8.2D-01, r^2= 1.1D+01
   Bfn.  Coefficient  Atom+Function         Bfn.  Coefficient  Atom+Function  
  ----- ------------  ---------------      ----- ------------  ---------------
    50      2.903892  2 H  s                 73     -2.903892  3 H  s          
    49      2.123153  2 H  s                 72     -2.123153  3 H  s          
    15     -1.562342  1 O  px                57     -0.924290  2 H  px         
    80     -0.924290  3 H  px                59      0.910770  2 H  pz         
    82     -0.910770  3 H  pz                12     -0.546506  1 O  px         
 
 Vector   12  Occ=0.000000D+00  E= 1.477820D-01
              MO Center=  1.2D-08,  1.4D-14,  6.4D-01, r^2= 8.7D+00
   Bfn.  Coefficient  Atom+Function         Bfn.  Coefficient  Atom+Function  
  ----- ------------  ---------------      ----- ------------  ---------------
    15      3.206850  1 O  px                49     -2.833647  2 H  s          
    72      2.833647  3 H  s                 50     -2.151834  2 H  s          
    73      2.151834  3 H  s                 12      1.389336  1 O  px         
    48     -0.940113  2 H  s                 71      0.940113  3 H  s          
    31      0.579342  1 O  d  1       
 
 Vector   13  Occ=0.000000D+00  E= 1.680154D-01
              MO Center=  1.4D-08, -7.7D-15, -1.8D-01, r^2= 6.2D+00
   Bfn.  Coefficient  Atom+Function         Bfn.  Coefficient  Atom+Function  
  ----- ------------  ---------------      ----- ------------  ---------------
     5      3.437251  1 O  s                 49     -1.646560  2 H  s          
    72     -1.646561  3 H  s                 59     -0.987649  2 H  pz         
    82     -0.987649  3 H  pz                57     -0.612086  2 H  px         
    80      0.612086  3 H  px                17      0.458450  1 O  pz         
     4      0.442183  1 O  s                 30     -0.424103  1 O  d  0       
 
 Vector   14  Occ=0.000000D+00  E= 1.910792D-01
              MO Center=  1.8D-09, -1.6D-14, -5.0D-01, r^2= 5.9D+00
   Bfn.  Coefficient  Atom+Function         Bfn.  Coefficient  Atom+Function  
  ----- ------------  ---------------      ----- ------------  ---------------
    58      1.582323  2 H  py                81     -1.582323  3 H  py         
    28     -0.471786  1 O  d -2              55      0.230512  2 H  py         
    78     -0.230512  3 H  py                65     -0.185180  2 H  d -2       
    88     -0.185180  3 H  d -2              66      0.167062  2 H  d -1       
    89     -0.167062  3 H  d -1       
 
 Vector   15  Occ=0.000000D+00  E= 2.138497D-01
              MO Center= -2.3D-09,  2.3D-15, -2.7D-01, r^2= 6.4D+00
   Bfn.  Coefficient  Atom+Function         Bfn.  Coefficient  Atom+Function  
  ----- ------------  ---------------      ----- ------------  ---------------
    16      1.984100  1 O  py                58     -1.722151  2 H  py         
    81     -1.722151  3 H  py                13      1.488733  1 O  py         
    29     -0.395478  1 O  d -1              55     -0.271877  2 H  py         
    78     -0.271877  3 H  py                65      0.246982  2 H  d -2       
    88     -0.246982  3 H  d -2       
 
 Vector   16  Occ=0.000000D+00  E= 2.157152D-01
              MO Center= -1.7D-08, -2.6D-15,  2.3D-01, r^2= 6.8D+00
   Bfn.  Coefficient  Atom+Function         Bfn.  Coefficient  Atom+Function  
  ----- ------------  ---------------      ----- ------------  ---------------
     5      7.579816  1 O  s                 49     -3.853388  2 H  s          
    72     -3.853387  3 H  s                 17     -2.513338  1 O  pz         
    14     -2.002142  1 O  pz                 4      1.473602  1 O  s          
    48     -1.078257  2 H  s                 71     -1.078256  3 H  s          
    59      0.634004  2 H  pz                82      0.634004  3 H  pz         
 
 Vector   17  Occ=0.000000D+00  E= 3.080028D-01
              MO Center= -2.2D-07,  4.2D-15, -3.1D-01, r^2= 8.0D+00
   Bfn.  Coefficient  Atom+Function         Bfn.  Coefficient  Atom+Function  
  ----- ------------  ---------------      ----- ------------  ---------------
    57      4.032125  2 H  px                80      4.032127  3 H  px         
    15     -3.420015  1 O  px                49     -3.163629  2 H  s          
    72      3.163634  3 H  s                 59      1.762388  2 H  pz         
    82     -1.762386  3 H  pz                12     -1.197607  1 O  px         
    50      0.834956  2 H  s                 73     -0.834956  3 H  s          
 
 Vector   18  Occ=0.000000D+00  E= 3.127859D-01
              MO Center=  3.0D-07,  6.7D-16, -8.2D-01, r^2= 8.0D+00
   Bfn.  Coefficient  Atom+Function         Bfn.  Coefficient  Atom+Function  
  ----- ------------  ---------------      ----- ------------  ---------------
     5      8.719573  1 O  s                 49     -4.883405  2 H  s          
    72     -4.883401  3 H  s                  4      4.137976  1 O  s          
    57      2.086399  2 H  px                80     -2.086395  3 H  px         
    59     -1.791239  2 H  pz                82     -1.791240  3 H  pz         
    50     -0.752206  2 H  s                 73     -0.752207  3 H  s          
 
 Vector   19  Occ=0.000000D+00  E= 3.248154D-01
              MO Center= -9.2D-08,  3.0D-16, -9.1D-01, r^2= 7.4D+00
   Bfn.  Coefficient  Atom+Function         Bfn.  Coefficient  Atom+Function  
  ----- ------------  ---------------      ----- ------------  ---------------
    49      7.812150  2 H  s                 72     -7.812150  3 H  s          
    57     -3.001442  2 H  px                80     -3.001442  3 H  px         
    59      2.158936  2 H  pz                82     -2.158937  3 H  pz         
    50      2.016100  2 H  s                 73     -2.016100  3 H  s          
    15     -1.959468  1 O  px                12     -1.657962  1 O  px         
 
 Vector   20  Occ=0.000000D+00  E= 4.552601D-01
              MO Center=  3.1D-08,  3.4D-15,  2.2D-01, r^2= 6.2D+00
   Bfn.  Coefficient  Atom+Function         Bfn.  Coefficient  Atom+Function  
  ----- ------------  ---------------      ----- ------------  ---------------
    49      9.671971  2 H  s                 72     -9.671971  3 H  s          
    12     -3.627642  1 O  px                15     -3.031274  1 O  px         
    57     -2.462086  2 H  px                80     -2.462086  3 H  px         
    31     -1.960554  1 O  d  1              48      1.920849  2 H  s          
    71     -1.920849  3 H  s                 50      1.500396  2 H  s          
 
 Vector   21  Occ=0.000000D+00  E= 4.950389D-01
              MO Center= -1.6D-08,  4.0D-15, -6.4D-01, r^2= 4.1D+00
   Bfn.  Coefficient  Atom+Function         Bfn.  Coefficient  Atom+Function  
  ----- ------------  ---------------      ----- ------------  ---------------
     5      6.945443  1 O  s                 49     -4.428278  2 H  s          
    72     -4.428278  3 H  s                  4      1.572622  1 O  s          
    32      1.195002  1 O  d  2              59     -1.121261  2 H  pz         
    82     -1.121261  3 H  pz                17     -0.930047  1 O  pz         
    30     -0.898956  1 O  d  0              14      0.868374  1 O  pz         
 
 Vector   22  Occ=0.000000D+00  E= 5.450654D-01
              MO Center= -1.0D-08,  3.9D-15,  2.9D-01, r^2= 4.2D+00
   Bfn.  Coefficient  Atom+Function         Bfn.  Coefficient  Atom+Function  
  ----- ------------  ---------------      ----- ------------  ---------------
     5      3.135590  1 O  s                 49     -1.988778  2 H  s          
    72     -1.988778  3 H  s                 14     -1.955563  1 O  pz         
    17     -1.891164  1 O  pz                30      1.609826  1 O  d  0       
    59      1.011741  2 H  pz                82      1.011741  3 H  pz         
     4      0.988117  1 O  s                 57      0.611012  2 H  px         
 

 center of mass
 --------------
 x =  -0.00000000 y =   0.00000000 z =   0.10016521

 moments of inertia (a.u.)
 ------------------
           2.277888153029           0.000000000000           0.000000002297
           0.000000000000           6.503514469198           0.000000000000
           0.000000002297           0.000000000000           4.225626316169
 
     Multipole analysis of the density
     ---------------------------------
 
     L   x y z        total         alpha         beta         nuclear
     -   - - -        -----         -----         ----         -------
     0   0 0 0     -0.000000     -5.000000     -5.000000     10.000000
 
     1   1 0 0      0.000000      0.000000      0.000000     -0.000000
     1   0 1 0      0.000000      0.000000      0.000000      0.000000
     1   0 0 1     -0.711234     -0.359618     -0.359618      0.008001
 
     2   2 0 0     -3.365608     -3.779213     -3.779213      4.192818
     2   1 1 0     -0.000000     -0.000000     -0.000000      0.000000
     2   1 0 1     -0.000000      0.000000      0.000000     -0.000000
     2   0 2 0     -5.847566     -2.923783     -2.923783      0.000000
     2   0 1 1     -0.000000     -0.000000     -0.000000      0.000000
     2   0 0 2     -4.850107     -3.443068     -3.443068      2.036029
 
 
 
                            NWChem DFT Gradient Module
                            --------------------------
 
 
                            TDDFT h2o BP86/aug-cc-pVTZ
 
 

  charge          =   0.00
  wavefunction    = closed shell



                         DFT ENERGY GRADIENTS

    atom               coordinates                        gradient
                 x          y          z           x          y          z
   1 O      -0.000000   0.000000   0.226412   -0.000000   0.000000   0.000060
   2 H       1.447898   0.000000  -0.901646    0.000025  -0.000000  -0.000030
   3 H      -1.447898   0.000000  -0.901646   -0.000025  -0.000000  -0.000030
 
                 ----------------------------------------
                 |  Time  |  1-e(secs)   |  2-e(secs)   |
                 ----------------------------------------
                 |  CPU   |       0.00   |       0.41   |
                 ----------------------------------------
                 |  WALL  |       0.00   |       0.34   |
                 ----------------------------------------

  Step       Energy      Delta E   Gmax     Grms     Xrms     Xmax   Walltime
  ---- ---------------- -------- -------- -------- -------- -------- --------
@    1     -76.46609879 -7.3D-05  0.00004  0.00003  0.00614  0.01299     24.5
                                     ok       ok                    



                                Z-matrix (autoz)
                                -------- 

 Units are Angstrom for bonds and degrees for angles
 
      Type          Name      I     J     K     L     M      Value     Gradient
      ----------- --------  ----- ----- ----- ----- ----- ---------- ----------
    1 Stretch                  1     2                       0.97129    0.00004
    2 Stretch                  1     3                       0.97129    0.00004
    3 Bend                     2     1     3               104.15567   -0.00001
 
 
                                 NWChem DFT Module
                                 -----------------
 
 
                            TDDFT h2o BP86/aug-cc-pVTZ
 
 


 Summary of "ao basis" -> "ao basis" (spherical)
 ------------------------------------------------------------------------------
       Tag                 Description            Shells   Functions and Types
 ---------------- ------------------------------  ------  ---------------------
 O                        aug-cc-pVTZ               14       46   5s4p3d2f
 H                        aug-cc-pVTZ                9       23   4s3p2d


  Caching 1-el integrals 
 
            General Information
            -------------------
          SCF calculation type: DFT
          Wavefunction type:  closed shell.
          No. of atoms     :     3
          No. of electrons :    10
           Alpha electrons :     5
            Beta electrons :     5
          Charge           :     0
          Spin multiplicity:     1
          Use of symmetry is: off; symmetry adaption is: off
          Maximum number of iterations:  30
          This is a Direct SCF calculation.
          AO basis - number of functions:    92
                     number of shells:    32
          Convergence on energy requested: 1.00D-08
          Convergence on density requested: 1.00D-05
          Convergence on gradient requested: 5.00D-04
 
              XC Information
              --------------
                    Becke 1988 Exchange Functional  1.000          
                Perdew 1981 Correlation Functional  1.000 local    
                Perdew 1986 Correlation Functional  1.000 non-local
 
             Grid Information
             ----------------
          Grid used for XC integration:  medium    
          Radial quadrature: Mura-Knowles        
          Angular quadrature: Lebedev. 
          Tag              B.-S. Rad. Rad. Pts. Rad. Cut. Ang. Pts.
          ---              ---------- --------- --------- ---------
          O                   0.60       49          10.0       434
          H                   0.35       45          12.0       434
          Grid pruning is: on 
          Number of quadrature shells:   139
          Spatial weights used:  Erf1
 
          Convergence Information
          -----------------------
          Convergence aids based upon iterative change in 
          total energy or number of iterations. 
          Levelshifting, if invoked, occurs when the 
          HOMO/LUMO gap drops below (HL_TOL): 1.00D-02
          DIIS, if invoked, will attempt to extrapolate 
          using up to (NFOCK): 10 stored Fock matrices.

                    Damping( 0%)  Levelshifting(0.0)       DIIS
                  --------------- ------------------- ---------------
          dE  on:    start             N/A                start   
          dE off:    2 iters           N/A               30 iters 

 
      Screening Tolerance Information
      -------------------------------
          Density screening/tol_rho: 1.00D-11
          AO Gaussian exp screening on grid/accAOfunc:  18
          CD Gaussian exp screening on grid/accCDfunc:  20
          XC Gaussian exp screening on grid/accXCfunc:  20
          Schwarz screening/accCoul: 1.00D-09


 Loading old vectors from job with title :

TDDFT h2o BP86/aug-cc-pVTZ

   Time after variat. SCF:      6.9
   Time prior to 1st pass:      6.9

 Grid_pts file          = /scratch/h2o_raman_3.gridpts.00
 Record size in doubles =  12289        No. of grid_pts per rec  =   3070
 Max. records in memory =      3        Max. recs in file   =  63328179


           Memory utilization after 1st SCF pass: 
           Heap Space remaining (MW):       13.07            13066946
          Stack Space remaining (MW):       13.11            13106604

   convergence    iter        energy       DeltaE   RMS-Dens  Diis-err    time
 ---------------- ----- ----------------- --------- --------- ---------  ------
 d= 0,ls=0.0,diis     1    -76.4660987910 -8.55D+01  1.32D-06  1.75D-08     7.0
[...]
 


 ---------------------------- Atom information ----------------------------
     atom    #        X              Y              Z            mass
 --------------------------------------------------------------------------
    O        1 -1.9879434D-10  0.0000000D+00  2.2632811D-01  1.5994910D+01
    H        2  1.4478947D+00  0.0000000D+00 -9.0160432D-01  1.0078250D+00
    H        3 -1.4478947D+00  0.0000000D+00 -9.0160432D-01  1.0078250D+00
 --------------------------------------------------------------------------




          ----------------------------------------------------
          MASS-WEIGHTED NUCLEAR HESSIAN (Hartree/Bohr/Bohr/Kamu)
          ----------------------------------------------------


               1            2            3            4            5            6            7            8            9
   ----- ----- ----- ----- -----
    1    3.93638D+01
    2   -1.48510D-11 -6.29612D-02
    3    3.78353D-08  3.69885D-10  2.63943D+01
    4   -7.85208D+01  2.28421D-09  4.65814D+01  3.42534D+02
    5    1.76521D-10 -6.71307D-04 -3.01394D-10 -2.07731D-09 -1.04375D-02
    6    6.11684D+01  6.56893D-10 -5.26966D+01 -2.14634D+02 -4.30709D-09  1.99873D+02
    7   -7.85208D+01 -1.39750D-09 -4.65814D+01 -2.97248D+01  4.34539D-09 -2.90549D+01  3.42534D+02
    8    2.61124D-10 -6.71268D-04 -3.01511D-10 -2.24289D-09  1.77511D-03  1.45154D-09  1.20378D-09 -1.04377D-02
    9   -6.11684D+01 -1.97161D-09 -5.26966D+01  2.90567D+01  6.48670D-09  1.00493D+01  2.14634D+02  1.36593D-09  1.99873D+02



          -------------------------------------------------
          NORMAL MODE EIGENVECTORS IN CARTESIAN COORDINATES
          -------------------------------------------------
                 (Frequencies expressed in cm-1)

                    1           2           3           4           5           6
 
 Frequency        -40.79      -38.26      -37.04      -18.33      -17.96      -15.12
 
           1    -0.00000     0.00426    -0.24074    -0.00117    -0.00000    -0.00000
           2    -0.25000    -0.00000     0.00000    -0.00000    -0.00000     0.00437
           3    -0.00000    -0.23560    -0.00417    -0.00100    -0.00000    -0.00000
           4     0.00000     0.00449    -0.14766    -0.43358    -0.00000     0.00000
           5    -0.01231     0.00000     0.00000    -0.00001     0.70434    -0.70426
           6     0.00000    -0.23528     0.11528    -0.55607    -0.00000     0.00000
           7     0.00000     0.00442    -0.14766    -0.43358    -0.00000     0.00000
           8    -0.01231     0.00000     0.00000     0.00000    -0.70437    -0.70423
           9    -0.00000    -0.23577    -0.12361     0.55407     0.00000    -0.00000

                    7           8           9
 
 Frequency       1592.72     3680.50     3784.67
 
           1     0.00000     0.00000    -0.06742
           2     0.00000     0.00000    -0.00000
           3    -0.06809     0.04855     0.00000
           4     0.40884     0.57355     0.53507
           5    -0.00000    -0.00000     0.00000
           6     0.54054    -0.38529    -0.41682
           7    -0.40884    -0.57356     0.53507
           8     0.00000    -0.00000    -0.00000
           9     0.54054    -0.38529     0.41683



 ----------------------------------------------------------------------------
 Normal Eigenvalue ||         Derivative Dipole Moments (debye/angs)
  Mode   [cm**-1]  ||      [d/dqX]             [d/dqY]           [d/dqZ]
 ------ ---------- || ------------------ ------------------ -----------------
    1      -40.794 ||      -0.000              -0.720            -0.000
    2      -38.263 ||      -0.001              -0.000            -0.000
    3      -37.038 ||      -0.282              -0.000            -0.000
    4      -18.326 ||      -1.310              -0.000             0.000
    5      -17.964 ||      -0.000              -0.000             0.000
    6      -15.115 ||      -0.000               2.146             0.000
    7     1592.720 ||      -0.000               0.000             1.260
    8     3680.501 ||       0.000              -0.000             0.199
    9     3784.675 ||       1.071               0.000             0.000
 ----------------------------------------------------------------------------



  
  
 ----------------------------------------------------------------------------
 Normal Eigenvalue ||                 Infra Red Intensities
  Mode   [cm**-1]  || [atomic units] [(debye/angs)**2] [(KM/mol)] [arbitrary]
 ------ ---------- || -------------- ----------------- ---------- -----------
    1      -40.794 ||    0.022462           0.518        21.897       4.812
    2      -38.263 ||    0.000000           0.000         0.000       0.000
    3      -37.038 ||    0.003444           0.079         3.358       0.738
    4      -18.326 ||    0.074337           1.715        72.467      15.926
    5      -17.964 ||    0.000000           0.000         0.000       0.000
    6      -15.115 ||    0.199621           4.605       194.601      42.768
    7     1592.720 ||    0.068761           1.586        67.032      14.732
    8     3680.501 ||    0.001711           0.039         1.668       0.367
    9     3784.675 ||    0.049744           1.148        48.493      10.657
 ----------------------------------------------------------------------------



 
 
        Vibrational analysis via the FX method 
  --- with translations and rotations projected out ---
  --- via the Eckart algorithm                      ---
 Projected Nuclear Hessian trans-rot subspace norm:4.4296D-33
                         (should be close to zero!) 

          --------------------------------------------------------
          MASS-WEIGHTED PROJECTED HESSIAN (Hartree/Bohr/Bohr/Kamu)
          --------------------------------------------------------


               1            2            3            4            5            6            7            8            9
   ----- ----- ----- ----- -----
    1    3.94026D+01
    2   -1.26258D-26  0.00000D+00
    3    1.02920D-05 -5.05032D-26  2.64281D+01
    4   -7.84863D+01 -4.02390D-25  4.65820D+01  3.42467D+02
    5   -2.01195D-25  0.00000D+00 -2.51494D-25 -1.80342D-24  0.00000D+00
    6    6.11420D+01  2.01195D-25 -5.26422D+01 -2.14576D+02  8.01522D-25  1.99734D+02
    7   -7.84862D+01  4.02390D-25 -4.65820D+01 -2.97925D+01  1.60304D-24 -2.90020D+01  3.42466D+02
    8    7.54481D-26  1.05484D-19 -4.27539D-25 -2.25428D-24  2.10114D-19  7.51427D-25  1.90361D-24  0.00000D+00
    9   -6.11420D+01  0.00000D+00 -5.26422D+01  2.90022D+01  0.00000D+00  9.98278D+00  2.14576D+02  8.01522D-25  1.99734D+02

 center of mass
 --------------
 x =  -0.00000000 y =   0.00000000 z =   0.10009567

 moments of inertia (a.u.)
 ------------------
           2.277381948458           0.000000000000           0.000000000833
           0.000000000000           6.502988861281           0.000000000000
           0.000000000833           0.000000000000           4.225606912822

 Rotational Constants
 --------------------
 A=  26.433939 cm-1  ( 38.031692 K)
 B=  14.246516 cm-1  ( 20.497100 K)
 C=   9.257309 cm-1  ( 13.318905 K)


 Temperature                      =   298.15K
 frequency scaling parameter      =   1.0000

 Zero-Point correction to Energy  =   12.939 kcal/mol  (  0.020620 au)
 Thermal correction to Energy     =   14.718 kcal/mol  (  0.023455 au)
 Thermal correction to Enthalpy   =   15.310 kcal/mol  (  0.024399 au)

 Total Entropy                    =   46.508 cal/mol-K
   - Translational                =   34.593 cal/mol-K (mol. weight =  18.0106)
   - Rotational                   =   11.908 cal/mol-K (symmetry #  =        1)
   - Vibrational                  =    0.008 cal/mol-K

 Cv (constant volume heat capacity) =    6.013 cal/mol-K
   - Translational                  =    2.979 cal/mol-K
   - Rotational                     =    2.979 cal/mol-K
   - Vibrational                    =    0.054 cal/mol-K



          -------------------------------------------------
          NORMAL MODE EIGENVECTORS IN CARTESIAN COORDINATES
          -------------------------------------------------
             (Projected Frequencies expressed in cm-1)

                    1           2           3           4           5           6
 
 P.Frequency       -0.00        0.00        0.00        0.00        0.00        0.00
 
           1    -0.04552     0.00000     0.00000     0.00000    -0.23578     0.01756
           2     0.00000     0.25004     0.00000     0.00000     0.00000     0.00000
           3    -0.08481     0.00000     0.00000     0.00000    -0.00000    -0.21984
           4     0.36714     0.00000     0.00000     0.00000    -0.23445    -0.14164
           5     0.00000     0.00000     0.99611     0.00000     0.00000     0.00000
           6     0.44491     0.00000     0.00000     0.00000     0.00170    -0.42420
           7     0.36714     0.00000     0.00000     0.00000    -0.23445    -0.14164
           8     0.00000     0.00000     0.00000     0.99611     0.00000     0.00000
           9    -0.61454     0.00000     0.00000     0.00000    -0.00171    -0.01548

                    7           8           9
 
 P.Frequency     1591.50     3680.21     3783.86
 
           1     0.00000     0.00000    -0.06743
           2     0.00000     0.00000     0.00000
           3    -0.06813     0.04854     0.00000
           4     0.40869     0.57366     0.53507
           5     0.00000     0.00000     0.00000
           6     0.54061    -0.38514    -0.41683
           7    -0.40869    -0.57366     0.53506
           8     0.00000     0.00000     0.00000
           9     0.54061    -0.38515     0.41682



 ----------------------------------------------------------------------------
 Normal Eigenvalue ||    Projected Derivative Dipole Moments (debye/angs)
  Mode   [cm**-1]  ||      [d/dqX]             [d/dqY]           [d/dqZ]
 ------ ---------- || ------------------ ------------------ -----------------
    1       -0.000 ||      -1.250              -0.000            -0.000
    2        0.000 ||       0.000              -0.757            -0.000
    3        0.000 ||      -0.000               1.508             0.000
    4        0.000 ||      -0.000               1.508             0.000
    5        0.000 ||      -0.004              -0.000            -0.000
    6        0.000 ||       0.482               0.000            -0.000
    7     1591.503 ||      -0.000               0.000             1.260
    8     3680.211 ||       0.000              -0.000             0.198
    9     3783.859 ||       1.071               0.000            -0.000
 ----------------------------------------------------------------------------



  
  
 ----------------------------------------------------------------------------
 Normal Eigenvalue ||           Projected Infra Red Intensities
  Mode   [cm**-1]  || [atomic units] [(debye/angs)**2] [(KM/mol)] [arbitrary]
 ------ ---------- || -------------- ----------------- ---------- -----------
    1       -0.000 ||    0.067704           1.562        66.001      14.505
    2        0.000 ||    0.024856           0.573        24.231       5.325
    3        0.000 ||    0.098614           2.275        96.133      21.127
    4        0.000 ||    0.098614           2.275        96.133      21.127
    5        0.000 ||    0.000001           0.000         0.001       0.000
    6        0.000 ||    0.010076           0.232         9.823       2.159
    7     1591.503 ||    0.068767           1.587        67.037      14.733
    8     3680.211 ||    0.001705           0.039         1.662       0.365
    9     3783.859 ||    0.049744           1.148        48.493      10.657
 ----------------------------------------------------------------------------



 vib:animation  F
(mode_ini,mode_end)=(    1,    3)
 task_raman_doit:                no rminfo found
 task_raman_doit:                no rminfo found
 task_raman_doit:                no rminfo found
 task_raman_doit:                no rminfo found
 task_raman_doit:                no rminfo found
 task_raman_doit:                no rminfo found
 task_raman_doit:                no rminfo found
 task_raman_doit:                no rminfo found
 task_raman_doit:                no rminfo found
 task_raman_doit:                no rminfo found
 task_raman_doit:                no rminfo found
 task_raman_doit:                no rminfo found
 task_raman_doit:                no rminfo found
 task_raman_doit:                no rminfo found
 task_raman_doit:                no rminfo found
 task_raman_doit:                no rminfo found
(begin,last,steps)=(   7,   9,   2)
 ENTER raman default
Generating fname_raman3=/scratch/h2o_raman_3.raman_0007-0009                                                                                                                                                                                                                           
(ii,rminfo(ii,1))=(    7,     0.00000000)
 ramanpolfile=
 /scratch/h2o_raman_3.ramanpol_0001-1                                           
                                                                                
                                                                                
                   
 ramanpolfile=
 /scratch/h2o_raman_3.ramanpol_0001-2                                           
                                                                                
                                                                                
                   
 Stepsize :  1.040753822529344E-002

 1591.50  REAL                       0.834717
 1591.50  IMAGINARY                  0.000306
 1591.50  TOTAL                      0.835023

 Writing mini:
 /scratch/h2o_raman_3.raman_0007-0009_nblock                                    
                                                                                
                                                                                
                   
Writing modecounter=    1
(ii,rminfo(ii,1))=(    8,     0.00000000)
 ramanpolfile=
 /scratch/h2o_raman_3.ramanpol_0002-1                                           
                                                                                
                                                                                
                   
 ramanpolfile=
 /scratch/h2o_raman_3.ramanpol_0002-2                                           
                                                                                
                                                                                
                   
 Stepsize :  1.022109685377335E-002

 3680.21  REAL                     115.537514
 3680.21  IMAGINARY                  0.012944
 3680.21  TOTAL                    115.550459

 Writing mini:
 /scratch/h2o_raman_3.raman_0007-0009_nblock                                    
                                                                                
                                                                                
                   
Writing modecounter=    2
(ii,rminfo(ii,1))=(    9,     0.00000000)
 ramanpolfile=
 /scratch/h2o_raman_3.ramanpol_0003-1                                           
                                                                                
                                                                                
                   
 ramanpolfile=
 /scratch/h2o_raman_3.ramanpol_0003-2                                           
                                                                                
                                                                                
                   
 Stepsize :  1.039961178109583E-002

 3783.86  REAL                      28.400987
 3783.86  IMAGINARY                  0.003181
 3783.86  TOTAL                     28.404168

 Writing mini:
 /scratch/h2o_raman_3.raman_0007-0009_nblock                                    
                                                                                
                                                                                
                   
Writing modecounter=    3
 Showing rminfo:
(start,last,rmmodes,nfreq,plot,width)=(   1,   9,   3,   1,normal          ,    20.00000000)
rminfo(   1)=(  1591.50348270,     0.83471706,     0.00030589,     0.83502294)
rminfo(   2)=(  3680.21081893,   115.53751436,     0.01294443,   115.55045879)
rminfo(   3)=(  3783.85867379,    28.40098669,     0.00318143,    28.40416812)

 Raman scattering data written to /scratch/h2o_raman_3.normal


 Task  times  cpu:        6.3s     wall:        5.9s
 
 
                                NWChem Input Module
                                -------------------
 
 
 Summary of allocated global arrays
-----------------------------------
  No active global arrays



                         GA Statistics for process    0
                         ------------------------------

       create   destroy   get      put      acc     scatter   gather  read&inc
calls: 1158     1163     1.22e+05 7058     3.00e+04  236        0     1084     
number of processes/call 1.32e+00 2.38e+00 1.44e+00 2.31e+00 0.00e+00
bytes total:             1.92e+08 1.44e+07 9.48e+07 8.51e+05 0.00e+00 8.67e+03
bytes remote:            1.53e+08 6.18e+06 8.34e+07 -4.87e+05 0.00e+00 0.00e+00
Max memory consumed for GA by this process: 609408 bytes
 
MA_summarize_allocated_blocks: starting scan ...
MA_summarize_allocated_blocks: scan completed: 0 heap blocks, 0 stack blocks
MA usage statistics:

	allocation statistics:
					      heap	     stack
					      ----	     -----
	current number of blocks	         0	         0
	maximum number of blocks	        24	        52
	current total bytes		         0	         0
	maximum total bytes		    419200	 113918104
	maximum total K-bytes		       420	    113919
	maximum total M-bytes		         1	       114
 
 
                                     CITATION
                                     --------
                Please cite the following reference when publishing
                           results obtained with NWChem:
 
                 M. Valiev, E.J. Bylaska, N. Govind, K. Kowalski,
              T.P. Straatsma, H.J.J. van Dam, D. Wang, J. Nieplocha,
                        E. Apra, T.L. Windus, W.A. de Jong
                 "NWChem: a comprehensive and scalable open-source
                  solution for large scale molecular simulations"
                      Comput. Phys. Commun. 181, 1477 (2010)
                           doi:10.1016/j.cpc.2010.04.018
 
                              AUTHORS & CONTRIBUTORS
                              ----------------------
          E. Apra, E. J. Bylaska, W. A. de Jong, N. Govind, K. Kowalski,
       T. P. Straatsma, M. Valiev, H. J. J. van Dam, D. Wang, T. L. Windus,
    J. Hammond, J. Autschbach, K. Bhaskaran-Nair, J. Brabec, K. Lopata, W. Ma,
       M. Klemm, O. Villa, F. Aquino, S. Hirata, M. T. Hackler, T. Risthaus,
       M. Malagoli, A. Marenich, A. Otero-de-la-Roza, J. Mullin, P. Nichols,
      R. Peverati, J. Pittner, Y. Zhao, P.-D. Fan, A. Fonari, R. J. Harrison,
      M. Dupuis, D. Silverstein, D. M. A. Smith, J. Nieplocha, V. Tipparaju,
    M. Krishnan, B. E. Van Kuiken, A. Vazquez-Mayagoitia, L. Jensen, M. Swart,
      Q. Wu, T. Van Voorhis, A. A. Auer, M. Nooijen, L. D. Crosby, E. Brown,
      G. Cisneros, G. I. Fann, H. Fruchtl, J. Garza, K. Hirao, R. A. Kendall,
      J. A. Nichols, K. Tsemekhman, K. Wolinski, J. Anchell, D. E. Bernholdt,
      P. Borowski, T. Clark, D. Clerc, H. Dachsel, M. J. O. Deegan, K. Dyall,
    D. Elwood, E. Glendening, M. Gutowski, A. C. Hess, J. Jaffe, B. G. Johnson,
     J. Ju, R. Kobayashi, R. Kutteh, Z. Lin, R. Littlefield, X. Long, B. Meng,
      T. Nakajima, S. Niu, L. Pollack, M. Rosing, K. Glaesemann, G. Sandrone,
      M. Stave, H. Taylor, G. Thomas, J. H. van Lenthe, A. T. Wong, Z. Zhang.

 Total times  cpu:       13.9s     wall:       31.1s
