 argument  1 = ritddft_h2o.nw
  NWChem w/ OpenMP: maximum threads =    8
                                         
                                         


             Northwest Computational Chemistry Package (NWChem) 7.2.0
             --------------------------------------------------------


                    Environmental Molecular Sciences Laboratory
                       Pacific Northwest National Laboratory
                                Richland, WA 99352

                              Copyright (c) 1994-2022
                       Pacific Northwest National Laboratory
                            Battelle Memorial Institute

             NWChem is an open-source computational chemistry package
                        distributed under the terms of the
                      Educational Community License (ECL) 2.0
             A copy of the license is included with this distribution
                              in the LICENSE.TXT file

                                  ACKNOWLEDGMENT
                                  --------------

            This software and its documentation were developed at the
            EMSL at Pacific Northwest National Laboratory, a multiprogram
            national laboratory, operated for the U.S. Department of Energy
            by Battelle under Contract Number DE-AC05-76RL01830. Support
            for this work was provided by the Department of Energy Office
            of Biological and Environmental Research, Office of Basic
            Energy Sciences, and the Office of Advanced Scientific Computing.


           Job information
           ---------------

    hostname        = WE41476
    program         = nwchem
    date            = Wed Jul 12 16:35:11 2023

    compiled        = Wed_Jul_12_16:28:54_2023
    source          = /Users/meji656/Sources/nwchem_bse
    nwchem branch   = 7.2.0
    nwchem revision = nwchem_on_git-4850-g011c901253
    ga revision     = 5.8.0
    use scalapack   = T
    input           = ritddft_h2o.nw
    prefix          = ritddft_h2o.
    data base       = ./ritddft_h2o.db
    status          = startup
    nproc           =        1
    time left       =     -1s



           Memory information
           ------------------

    heap     =   26214396 doubles =    200.0 Mbytes
    stack    =   26214401 doubles =    200.0 Mbytes
    global   =   52428800 doubles =    400.0 Mbytes (distinct from heap & stack)
    total    =  104857597 doubles =    800.0 Mbytes
    verify   = yes
    hardfail = no 


           Directory information
           ---------------------

  0 permanent = .
  0 scratch   = .




                                NWChem Input Module
                                -------------------


                                  BLYP/6-31G* H2O
                                  ---------------

 Scaling coordinates for geometry "geometry" by  1.889725989
 (inverse scale =  0.529177249)

 C2V symmetry detected

          ------
          auto-z
          ------
  no constraints, skipping    0.0000000000000000     
  no constraints, skipping    0.0000000000000000     


                             Geometry "geometry" -> ""
                             -------------------------

 Output coordinates in angstroms (scale by  1.889725989 to convert to a.u.)

  No.       Tag          Charge          X              Y              Z
 ---- ---------------- ---------- -------------- -------------- --------------
    1 O                    8.0000     0.00000000     0.00000000     0.11920704
    2 H                    1.0000     0.75933475     0.00000000    -0.47682817
    3 H                    1.0000    -0.75933475     0.00000000    -0.47682817

      Atomic Mass 
      ----------- 

      O                 15.994910
      H                  1.007825


 Effective nuclear repulsion energy (a.u.)       9.1194413826

            Nuclear Dipole moment (a.u.) 
            ----------------------------
        X                 Y               Z
 ---------------- ---------------- ----------------
     0.0000000000     0.0000000000     0.0000000000

      Symmetry information
      --------------------

 Group name             C2v       
 Group number             16
 Group order               4
 No. of unique centers     2

      Symmetry unique atoms

     1    2



                                Z-matrix (autoz)
                                -------- 

 Units are Angstrom for bonds and degrees for angles

      Type          Name      I     J     K     L     M      Value
      ----------- --------  ----- ----- ----- ----- ----- ----------
    1 Stretch                  1     2                       0.96532
    2 Stretch                  1     3                       0.96532
    3 Bend                     2     1     3               103.74015


            XYZ format geometry
            -------------------
     3
 geometry
 O                     0.00000000     0.00000000     0.11920704
 H                     0.75933475     0.00000000    -0.47682817
 H                    -0.75933475     0.00000000    -0.47682817

 ==============================================================================
                                internuclear distances
 ------------------------------------------------------------------------------
       center one      |      center two      | atomic units |  angstroms
 ------------------------------------------------------------------------------
    2 H                |   1 O                |     1.82419  |     0.96532
    3 H                |   1 O                |     1.82419  |     0.96532
 ------------------------------------------------------------------------------
                         number of included internuclear distances:          2
 ==============================================================================



 ==============================================================================
                                 internuclear angles
 ------------------------------------------------------------------------------
        center 1       |       center 2       |       center 3       |  degrees
 ------------------------------------------------------------------------------
    2 H                |   1 O                |   3 H                |   103.74
 ------------------------------------------------------------------------------
                            number of included internuclear angles:          1
 ==============================================================================





 Summary of "ao basis" -> "" (cartesian)
 ------------------------------------------------------------------------------
       Tag                 Description            Shells   Functions and Types
 ---------------- ------------------------------  ------  ---------------------
 *                           6-31G*                   on all atoms 




 Summary of "cd basis" -> "" (spherical)
 ------------------------------------------------------------------------------
       Tag                 Description            Shells   Functions and Types
 ---------------- ------------------------------  ------  ---------------------
 *                  Weigend Coulomb Fitting           on all atoms 



                                 NWChem DFT Module
                                 -----------------


                                  BLYP/6-31G* H2O


                      Basis "ao basis" -> "ao basis" (cartesian)
                      -----
  O (Oxygen)
  ----------
            Exponent  Coefficients 
       -------------- ---------------------------------------------------------
  1 S  5.48467170E+03  0.001831
  1 S  8.25234950E+02  0.013950
  1 S  1.88046960E+02  0.068445
  1 S  5.29645000E+01  0.232714
  1 S  1.68975700E+01  0.470193
  1 S  5.79963530E+00  0.358521

  2 S  1.55396160E+01 -0.110778
  2 S  3.59993360E+00 -0.148026
  2 S  1.01376180E+00  1.130767

  3 P  1.55396160E+01  0.070874
  3 P  3.59993360E+00  0.339753
  3 P  1.01376180E+00  0.727159

  4 S  2.70005800E-01  1.000000

  5 P  2.70005800E-01  1.000000

  6 D  8.00000000E-01  1.000000

  H (Hydrogen)
  ------------
            Exponent  Coefficients 
       -------------- ---------------------------------------------------------
  1 S  1.87311370E+01  0.033495
  1 S  2.82539370E+00  0.234727
  1 S  6.40121700E-01  0.813757

  2 S  1.61277800E-01  1.000000



 Summary of "ao basis" -> "ao basis" (cartesian)
 ------------------------------------------------------------------------------
       Tag                 Description            Shells   Functions and Types
 ---------------- ------------------------------  ------  ---------------------
 O                           6-31G*                  6       15   3s2p1d
 H                           6-31G*                  2        2   2s


                      Basis "cd basis" -> "cd basis" (spherical)
                      -----
  O (Oxygen)
  ----------
            Exponent  Coefficients 
       -------------- ---------------------------------------------------------
  1 S  2.87682166E+03  0.144356
  1 S  1.00474430E+03  0.292004
  1 S  3.69757995E+02  1.025852
  1 S  1.42944240E+02  2.287552
  1 S  5.78366425E+01  3.608024
  1 S  2.43864983E+01  2.373787
  1 S  1.06622662E+01  0.048941

  2 S  4.80704370E+00  1.000000

  3 S  2.22107700E+00  1.000000

  4 S  1.04477950E+00  1.000000

  5 S  4.96842500E-01  1.000000

  6 S  2.37138400E-01  1.000000

  7 P  6.42613382E+01 -0.012666
  7 P  1.63006076E+01 -0.037874

  8 P  4.35505420E+00  1.000000

  9 P  1.20195540E+00  1.000000

 10 P  3.35419600E-01  1.000000

 11 D  9.21466110E+00 -0.059791
 11 D  2.84352510E+00 -0.084672

 12 D  9.95575900E-01  1.000000

 13 D  3.64944100E-01  1.000000

 14 F  2.64201150E+00  1.000000
 14 F  7.34561300E-01  1.000000

 15 G  1.39310000E+00  1.000000

  H (Hydrogen)
  ------------
            Exponent  Coefficients 
       -------------- ---------------------------------------------------------
  1 S  1.56752927E+01  0.018689
  1 S  3.60635780E+00  0.063167
  1 S  1.20800160E+00  0.120461

  2 S  4.72679400E-01  1.000000

  3 S  2.01810000E-01  1.000000

  4 P  2.02813650E+00  1.000000
  4 P  5.35873000E-01  1.000000

  5 D  2.21651240E+00  1.000000



 Summary of "cd basis" -> "cd basis" (spherical)
 ------------------------------------------------------------------------------
       Tag                 Description            Shells   Functions and Types
 ---------------- ------------------------------  ------  ---------------------
 O                  Weigend Coulomb Fitting         15       49   6s4p3d1f1g
 H                  Weigend Coulomb Fitting          5       11   3s1p1d




 Summary of "ao basis" -> "ao basis" (cartesian)
 ------------------------------------------------------------------------------
       Tag                 Description            Shells   Functions and Types
 ---------------- ------------------------------  ------  ---------------------
 O                           6-31G*                  6       15   3s2p1d
 H                           6-31G*                  2        2   2s


      Symmetry analysis of basis
      --------------------------

        a1         10
        a2          1
        b1          5
        b2          3

  Caching 1-el integrals 

            General Information
            -------------------
          SCF calculation type: DFT
          Wavefunction type:  closed shell.
          No. of atoms     :     3
          No. of electrons :    10
           Alpha electrons :     5
            Beta electrons :     5
          Charge           :     0
          Spin multiplicity:     1
          Use of symmetry is: off; symmetry adaption is: on 
          Maximum number of iterations:  50
          AO basis - number of functions:    19
                     number of shells:    10
          A Charge density fitting basis will be used.
          CD basis - number of functions:    71
                     number of shells:    25
          Convergence on energy requested:  1.00D-06
          Convergence on density requested:  1.00D-05
          Convergence on gradient requested:  5.00D-04

              XC Information
              --------------
                    Becke 1988 Exchange Functional  1.000          
              Lee-Yang-Parr Correlation Functional  1.000          

             Grid Information
             ----------------
          Grid used for XC integration:  medium    
          Radial quadrature: Mura-Knowles        
          Angular quadrature: Lebedev. 
          Tag              B.-S. Rad. Rad. Pts. Rad. Cut. Ang. Pts.
          ---              ---------- --------- --------- ---------
          O                   0.60       49           5.0       434
          H                   0.35       45           6.0       434
          Grid pruning is: on 
          Number of quadrature shells:   139
          Spatial weights used:  Erf1

          Convergence Information
          -----------------------
          Convergence aids based upon iterative change in 
          total energy or number of iterations. 
          Levelshifting, if invoked, occurs when the 
          HOMO/LUMO gap drops below (HL_TOL):  1.00D-02
          DIIS, if invoked, will attempt to extrapolate 
          using up to (NFOCK): 10 stored Fock matrices.

                    Damping( 0%)  Levelshifting(0.5)       DIIS
                  --------------- ------------------- ---------------
          dE  on:    start            ASAP                start   
          dE off:    2 iters         50 iters            50 iters 


      Screening Tolerance Information
      -------------------------------
          Density screening/tol_rho:  1.00D-10
          AO Gaussian exp screening on grid/accAOfunc:  14
          CD Gaussian exp screening on grid/accCDfunc:  20
          XC Gaussian exp screening on grid/accXCfunc:  20
          Schwarz screening/accCoul:  1.00D-08


      Superposition of Atomic Density Guess
      -------------------------------------

 Sum of atomic energies:         -75.75081731

      Non-variational initial energy
      ------------------------------

 Total energy =     -75.904518
 1-e energy   =    -121.613649
 2-e energy   =      36.589689
 HOMO         =      -0.467882
 LUMO         =       0.112436


      Symmetry analysis of molecular orbitals - initial
      -------------------------------------------------

  Numbering of irreducible representations: 

     1 a1          2 a2          3 b1          4 b2      

  Orbital symmetries:

     1 a1          2 a1          3 b1          4 a1          5 b2      
     6 a1          7 b1          8 b1          9 a1         10 b2      
    11 a1         12 b1         13 a1         14 a1         15 a2      

  WARNING: movecs_in_org=atomic not equal to movecs_in=./ritddft_h2o.movecs
   Time after variat. SCF:      0.2

      3 Center 2 Electron Integral Information
      ----------------------------------------
          Maximum number of 3-center 2e- integrals is:           25631.
            This is reduced with Schwarz screening to:           21087.
            Incore requires a per proc buffer size of:           21088.
          Minimum dble words available (all nodes) is:        52419548
                   This is reduced (for later use) to:        52228908
                      proc 0 Suggested buffer size is:           21088
                         Max Suggested buffer size is:           21088
                              no. integral batches is:            1000

           0.021 MW buffer allocated for incore 3-center 
          2e- integral storage on stack. 
   Time prior to 1st pass:      0.2

 Grid_pts file          = ./ritddft_h2o.gridpts.0
 Record size in doubles =  12289        No. of grid_pts per rec  =   3070
 Max. records in memory =     23        Max. recs in file   =    374791


           Memory utilization after 1st SCF pass: 
           Heap Space remaining (MW):       25.92            25922644
          Stack Space remaining (MW):       26.19            26192028

   convergence    iter        energy       DeltaE   RMS-Dens  Diis-err    time
 ---------------- ----- ----------------- --------- --------- ---------  ------
 d= 0,ls=0.0,diis     1    -76.3481994582 -8.55D+01  5.57D-02  4.10D-01     0.4
 d= 0,ls=0.0,diis     2    -76.3151441730  3.31D-02  3.15D-02  7.82D-01     0.4
 d= 0,ls=0.0,diis     3    -76.3860643239 -7.09D-02  3.79D-03  2.54D-02     0.5
 d= 0,ls=0.0,diis     4    -76.3882627091 -2.20D-03  5.13D-04  2.45D-04     0.5
 d= 0,ls=0.0,diis     5    -76.3882876851 -2.50D-05  3.58D-05  3.61D-07     0.6
 d= 0,ls=0.0,diis     6    -76.3882877361 -5.11D-08  3.25D-06  1.06D-08     0.6


         Total DFT energy =      -76.388287736147
      One electron energy =     -122.976410282320
           Coulomb energy =       46.792865274559
    Exchange-Corr. energy =       -9.324184110938
 Nuclear repulsion energy =        9.119441382552

 Numeric. integr. density =       10.000001114461

     Total iterative time =      0.4s



                  Occupations of the irreducible representations
                  ----------------------------------------------

                     irrep           alpha         beta
                     --------     --------     --------
                     a1                3.0          3.0
                     a2                0.0          0.0
                     b1                1.0          1.0
                     b2                1.0          1.0


                       DFT Final Molecular Orbital Analysis
                       ------------------------------------

 Vector    1  Occ=2.000000D+00  E=-1.878374D+01  Symmetry=a1
              MO Center=  5.4D-15,  2.4D-15,  1.2D-01, r^2= 1.5D-02
   Bfn.  Coefficient  Atom+Function         Bfn.  Coefficient  Atom+Function  
  ----- ------------  ---------------      ----- ------------  ---------------
     1      0.992563  1 O  s                  2      0.027253  1 O  s          

 Vector    2  Occ=2.000000D+00  E=-9.008774D-01  Symmetry=a1
              MO Center= -4.1D-11, -1.2D-12, -9.9D-02, r^2= 5.0D-01
   Bfn.  Coefficient  Atom+Function         Bfn.  Coefficient  Atom+Function  
  ----- ------------  ---------------      ----- ------------  ---------------
     2      0.466992  1 O  s                  6      0.435159  1 O  s          
     1     -0.208835  1 O  s                 16      0.143516  2 H  s          
    18      0.143516  3 H  s                  5     -0.139164  1 O  pz         
     9     -0.062392  1 O  pz         

 Vector    3  Occ=2.000000D+00  E=-4.584791D-01  Symmetry=b1
              MO Center=  8.4D-11, -2.4D-13, -1.1D-01, r^2= 7.9D-01
   Bfn.  Coefficient  Atom+Function         Bfn.  Coefficient  Atom+Function  
  ----- ------------  ---------------      ----- ------------  ---------------
     3      0.519813  1 O  px                 7      0.256367  1 O  px         
    16      0.240621  2 H  s                 18     -0.240621  3 H  s          
    17      0.151405  2 H  s                 19     -0.151405  3 H  s          
    12     -0.066515  1 O  dxz        

 Vector    4  Occ=2.000000D+00  E=-3.081121D-01  Symmetry=a1
              MO Center=  9.4D-12, -7.0D-13,  2.1D-01, r^2= 7.0D-01
   Bfn.  Coefficient  Atom+Function         Bfn.  Coefficient  Atom+Function  
  ----- ------------  ---------------      ----- ------------  ---------------
     5      0.550018  1 O  pz                 6      0.441317  1 O  s          
     9      0.362737  1 O  pz                 2      0.181039  1 O  s          
    16     -0.143969  2 H  s                 18     -0.143969  3 H  s          
    17     -0.123648  2 H  s                 19     -0.123648  3 H  s          
     1     -0.092849  1 O  s                 15     -0.054623  1 O  dzz        

 Vector    5  Occ=2.000000D+00  E=-2.250569D-01  Symmetry=b2
              MO Center=  2.2D-12,  1.9D-12,  9.8D-02, r^2= 5.9D-01
   Bfn.  Coefficient  Atom+Function         Bfn.  Coefficient  Atom+Function  
  ----- ------------  ---------------      ----- ------------  ---------------
     4      0.645196  1 O  py                 8      0.505363  1 O  py         
    14     -0.061977  1 O  dyz        

 Vector    6  Occ=0.000000D+00  E= 3.643892D-02  Symmetry=a1
              MO Center=  1.7D-10, -1.9D-13, -6.1D-01, r^2= 2.4D+00
   Bfn.  Coefficient  Atom+Function         Bfn.  Coefficient  Atom+Function  
  ----- ------------  ---------------      ----- ------------  ---------------
     6      1.237453  1 O  s                 17     -0.957010  2 H  s          
    19     -0.957010  3 H  s                  9     -0.469042  1 O  pz         
     5     -0.295880  1 O  pz                 2      0.131674  1 O  s          
    16     -0.105421  2 H  s                 18     -0.105421  3 H  s          
     1     -0.100973  1 O  s                 13     -0.056974  1 O  dyy        

 Vector    7  Occ=0.000000D+00  E= 1.199179D-01  Symmetry=b1
              MO Center= -2.4D-10, -1.7D-14, -5.5D-01, r^2= 2.4D+00
   Bfn.  Coefficient  Atom+Function         Bfn.  Coefficient  Atom+Function  
  ----- ------------  ---------------      ----- ------------  ---------------
    17      1.258723  2 H  s                 19     -1.258723  3 H  s          
     7     -0.742295  1 O  px                 3     -0.434073  1 O  px         
    16      0.119053  2 H  s                 18     -0.119053  3 H  s          
    12      0.031772  1 O  dxz        

 Vector    8  Occ=0.000000D+00  E= 7.252432D-01  Symmetry=b1
              MO Center=  4.7D-10,  1.6D-13, -1.7D-01, r^2= 1.6D+00
   Bfn.  Coefficient  Atom+Function         Bfn.  Coefficient  Atom+Function  
  ----- ------------  ---------------      ----- ------------  ---------------
    16      0.840631  2 H  s                 18     -0.840631  3 H  s          
    17     -0.689314  2 H  s                 19      0.689314  3 H  s          
     7     -0.389875  1 O  px                12     -0.335980  1 O  dxz        
     3     -0.190333  1 O  px         

 Vector    9  Occ=0.000000D+00  E= 8.016614D-01  Symmetry=a1
              MO Center= -4.0D-10, -2.6D-12, -1.6D-01, r^2= 1.3D+00
   Bfn.  Coefficient  Atom+Function         Bfn.  Coefficient  Atom+Function  
  ----- ------------  ---------------      ----- ------------  ---------------
     5      0.741921  1 O  pz                16      0.678755  2 H  s          
    18      0.678755  3 H  s                 17     -0.550336  2 H  s          
    19     -0.550336  3 H  s                  9     -0.451663  1 O  pz         
    10      0.152292  1 O  dxx                6      0.107095  1 O  s          
     2     -0.101101  1 O  s                 13     -0.100058  1 O  dyy        

 Vector   10  Occ=0.000000D+00  E= 8.355048D-01  Symmetry=b2
              MO Center= -2.1D-14,  1.1D-12,  1.2D-01, r^2= 1.1D+00
   Bfn.  Coefficient  Atom+Function         Bfn.  Coefficient  Atom+Function  
  ----- ------------  ---------------      ----- ------------  ---------------
     8     -1.038940  1 O  py                 4      0.959019  1 O  py         
    14      0.028927  1 O  dyz        

 Vector   11  Occ=0.000000D+00  E= 8.481630D-01  Symmetry=a1
              MO Center=  6.5D-12,  5.8D-13,  2.6D-01, r^2= 1.5D+00
   Bfn.  Coefficient  Atom+Function         Bfn.  Coefficient  Atom+Function  
  ----- ------------  ---------------      ----- ------------  ---------------
     6      1.328606  1 O  s                  9      0.827080  1 O  pz         
     2     -0.815416  1 O  s                  5     -0.521612  1 O  pz         
    16      0.519331  2 H  s                 18      0.519331  3 H  s          
    17     -0.391407  2 H  s                 19     -0.391407  3 H  s          
    13     -0.320835  1 O  dyy               15     -0.263202  1 O  dzz        

 Vector   12  Occ=0.000000D+00  E= 1.005367D+00  Symmetry=b1
              MO Center= -4.7D-11, -1.5D-23,  1.1D-01, r^2= 1.5D+00
   Bfn.  Coefficient  Atom+Function         Bfn.  Coefficient  Atom+Function  
  ----- ------------  ---------------      ----- ------------  ---------------
     7      1.653027  1 O  px                 3     -0.976215  1 O  px         
    17     -0.937817  2 H  s                 19      0.937817  3 H  s          
    12      0.036368  1 O  dxz        

 Vector   13  Occ=0.000000D+00  E= 1.147605D+00  Symmetry=a1
              MO Center=  7.2D-12,  9.4D-13, -3.6D-01, r^2= 1.4D+00
   Bfn.  Coefficient  Atom+Function         Bfn.  Coefficient  Atom+Function  
  ----- ------------  ---------------      ----- ------------  ---------------
     6      3.621801  1 O  s                  2     -1.473352  1 O  s          
     9     -1.086120  1 O  pz                17     -0.782275  2 H  s          
    19     -0.782275  3 H  s                 10     -0.657813  1 O  dxx        
    15     -0.388927  1 O  dzz                5      0.377448  1 O  pz         
    16     -0.349651  2 H  s                 18     -0.349651  3 H  s          

 Vector   14  Occ=0.000000D+00  E= 1.670951D+00  Symmetry=a1
              MO Center= -1.4D-12, -3.7D-14,  1.7D-01, r^2= 6.2D-01
   Bfn.  Coefficient  Atom+Function         Bfn.  Coefficient  Atom+Function  
  ----- ------------  ---------------      ----- ------------  ---------------
    15      1.007441  1 O  dzz               10     -0.594433  1 O  dxx        
    13     -0.344140  1 O  dyy                6     -0.263029  1 O  s          
     9      0.147825  1 O  pz                 2      0.094078  1 O  s          
    16      0.084183  2 H  s                 18      0.084183  3 H  s          
    17      0.044669  2 H  s                 19      0.044669  3 H  s          

 Vector   15  Occ=0.000000D+00  E= 1.688126D+00  Symmetry=a2
              MO Center= -2.9D-12, -1.4D-14,  1.2D-01, r^2= 6.1D-01
   Bfn.  Coefficient  Atom+Function         Bfn.  Coefficient  Atom+Function  
  ----- ------------  ---------------      ----- ------------  ---------------
    11      1.732051  1 O  dxy        

 Vector   16  Occ=0.000000D+00  E= 1.722208D+00  Symmetry=b2
              MO Center=  7.6D-13,  7.8D-15,  1.4D-01, r^2= 6.1D-01
   Bfn.  Coefficient  Atom+Function         Bfn.  Coefficient  Atom+Function  
  ----- ------------  ---------------      ----- ------------  ---------------
    14      1.730700  1 O  dyz                8      0.035462  1 O  py         

 Vector   17  Occ=0.000000D+00  E= 2.217443D+00  Symmetry=a1
              MO Center= -1.3D-11,  1.6D-13,  3.2D-03, r^2= 8.3D-01
   Bfn.  Coefficient  Atom+Function         Bfn.  Coefficient  Atom+Function  
  ----- ------------  ---------------      ----- ------------  ---------------
     6      1.551053  1 O  s                 13     -1.130940  1 O  dyy        
    16     -0.815193  2 H  s                 18     -0.815193  3 H  s          
     9     -0.744046  1 O  pz                10      0.740561  1 O  dxx        
     2     -0.520281  1 O  s                 17     -0.145808  2 H  s          
    19     -0.145808  3 H  s                 15      0.072180  1 O  dzz        

 Vector   18  Occ=0.000000D+00  E= 2.510041D+00  Symmetry=b1
              MO Center= -8.3D-12,  1.1D-13,  6.5D-02, r^2= 8.6D-01
   Bfn.  Coefficient  Atom+Function         Bfn.  Coefficient  Atom+Function  
  ----- ------------  ---------------      ----- ------------  ---------------
    12      2.210722  1 O  dxz               16      0.928341  2 H  s          
    18     -0.928341  3 H  s                  7     -0.852386  1 O  px         
    17     -0.046642  2 H  s                 19      0.046642  3 H  s          
     3      0.035186  1 O  px         

 Vector   19  Occ=0.000000D+00  E= 3.464582D+00  Symmetry=a1
              MO Center=  1.9D-12,  1.1D-13,  1.2D-01, r^2= 1.0D+00
   Bfn.  Coefficient  Atom+Function         Bfn.  Coefficient  Atom+Function  
  ----- ------------  ---------------      ----- ------------  ---------------
     6      3.720772  1 O  s                 13     -1.583571  1 O  dyy        
    15     -1.554246  1 O  dzz               10     -1.530301  1 O  dxx        
    17     -0.562055  2 H  s                 19     -0.562055  3 H  s          
     1     -0.468722  1 O  s                  9     -0.337175  1 O  pz         
     2      0.272631  1 O  s                  5      0.117606  1 O  pz         


 center of mass
 --------------
 x =   0.00000000 y =   0.00000000 z =   0.09921406

 moments of inertia (a.u.)
 ------------------
           2.270969023714           0.000000000000           0.000000000000
           0.000000000000           6.421267634361           0.000000000000
           0.000000000000           0.000000000000           4.150298610647

     Multipole analysis of the density
     ---------------------------------

     L   x y z        total         alpha         beta         nuclear
     -   - - -        -----         -----         ----         -------
     0   0 0 0     -0.000000     -5.000000     -5.000000     10.000000

     1   1 0 0     -0.000000     -0.000000     -0.000000      0.000000
     1   0 1 0      0.000000      0.000000      0.000000      0.000000
     1   0 0 1     -0.795438     -0.397719     -0.397719      0.000000

     2   2 0 0     -3.247208     -3.682641     -3.682641      4.118075
     2   1 1 0     -0.000000     -0.000000     -0.000000      0.000000
     2   1 0 1      0.000000      0.000000      0.000000      0.000000
     2   0 2 0     -5.350722     -2.675361     -2.675361      0.000000
     2   0 1 1     -0.000000     -0.000000     -0.000000      0.000000
     2   0 0 2     -4.478893     -3.254366     -3.254366      2.029839

                                NWChem TDDFT Module
                                -------------------


                                  BLYP/6-31G* H2O


            General Information
            -------------------
           No. of orbitals :      38
            Alpha orbitals :      19
             Beta orbitals :      19
        Alpha frozen cores :       0
         Beta frozen cores :       0
     Alpha frozen virtuals :       0
      Beta frozen virtuals :       0
         Spin multiplicity :       1
    Number of AO functions :      19
        Use of symmetry is : off
      Symmetry adaption is : on 
         Schwarz screening :  0.10D-07

              XC Information
              --------------
             Becke 1988 Exchange Functional   1.00          
       Lee-Yang-Parr Correlation Functional   1.00          

             TDDFT Information
             -----------------
          Calculation type : TDDFT             
         Wavefunction type : Restricted singlets & triplets
          No. of electrons :      10
           Alpha electrons :       5
            Beta electrons :       5
              No. of roots :      20
          Max subspacesize :    8000
            Max iterations :     100
               Target root :       1
           Target symmetry : none
      Symmetry restriction : off
                 Algorithm : Optimal
        Davidson threshold :  0.10D-03

            Memory Information
            ------------------
          Available GA space size is          52428439 doubles
          Available MA space size is          52419700 doubles
          Length of a trial vector is           70
          Algorithm : Incore multiple tensor contraction
          Estimated peak GA usage is           2302004 doubles
          Estimated peak MA usage is            282000 doubles

   20 smallest eigenvalue differences (eV) 
--------------------------------------------------------
  No. Spin  Occ  Vir  Irrep   E(Occ)    E(Vir)   E(Diff)
--------------------------------------------------------
    1    1    5    6 b2       -0.225     0.036     7.116
    2    1    4    6 a1       -0.308     0.036     9.376
    3    1    5    7 a2       -0.225     0.120     9.387
    4    1    4    7 b1       -0.308     0.120    11.647
    5    1    3    6 b1       -0.458     0.036    13.467
    6    1    3    7 a1       -0.458     0.120    15.739
    7    1    2    6 a1       -0.901     0.036    25.506
    8    1    5    8 a2       -0.225     0.725    25.859
    9    1    2    7 b1       -0.901     0.120    27.777
   10    1    5    9 b2       -0.225     0.802    27.938
   11    1    4    8 b1       -0.308     0.725    28.119
   12    1    5   10 a1       -0.225     0.836    28.859
   13    1    5   11 b2       -0.225     0.848    29.204
   14    1    4    9 a1       -0.308     0.802    30.198
   15    1    4   10 b2       -0.308     0.836    31.119
   16    1    4   11 a1       -0.308     0.848    31.464
   17    1    3    8 a1       -0.458     0.725    32.211
   18    1    5   12 a2       -0.225     1.005    33.482
   19    1    3    9 b1       -0.458     0.802    34.290
   20    1    3   10 a2       -0.458     0.836    35.211
--------------------------------------------------------

  Entering Davidson iterations
  Restricted singlet excited states

  Iter   NTrls   NConv    DeltaV     DeltaE      Time   
  ----  ------  ------  ---------  ---------  --------- 
    1     20       0     0.66E+00   0.10+100        1.3
    2     40       2     0.64E-01   0.20E+00        1.3
    3     70      20     0.12E-08   0.82E-02        1.9
  ----  ------  ------  ---------  ---------  --------- 
  Convergence criterion met

  Ground state a1        -76.388287736147 a.u.

  ----------------------------------------------------------------------------
  Root   1 singlet b2             0.273881421 a.u.                7.4527 eV 
  ----------------------------------------------------------------------------
     Transition Moments    X  0.00000   Y -0.26491   Z -0.00000
     Transition Moments   XX -0.00000  XY  0.00000  XZ -0.00000
     Transition Moments   YY  0.00000  YZ  0.06048  ZZ -0.00000
     Dipole Oscillator Strength                    0.0128137036
     Electric Quadrupole                           0.0000000004
     Magnetic Dipole                               0.0000001323
     Total Oscillator Strength                     0.0128138362

     Occ.    5  b2  ---  Virt.    6  a1  -1.00003 X
 b2  
  ----------------------------------------------------------------------------
  Root   2 singlet a2             0.350385000 a.u.                9.5345 eV 
  ----------------------------------------------------------------------------
     Transition Moments    X  0.00000   Y -0.00000   Z -0.00000
     Transition Moments   XX -0.00000  XY  0.22711  XZ -0.00000
     Transition Moments   YY -0.00000  YZ  0.00000  ZZ  0.00000
     Dipole Oscillator Strength                    0.0000000000
     Electric Quadrupole                           0.0000000118
     Magnetic Dipole                               0.0000003524
     Total Oscillator Strength                     0.0000003643

     Occ.    5  b2  ---  Virt.    7  b1  -0.99999 X
 b2  
  ----------------------------------------------------------------------------
  Root   3 singlet a1             0.366655722 a.u.                9.9772 eV 
  ----------------------------------------------------------------------------
     Transition Moments    X -0.00000   Y  0.00000   Z -0.60853
     Transition Moments   XX  0.66122  XY -0.00000  XZ  0.00000
     Transition Moments   YY  0.10009  YZ  0.00000  ZZ  0.44798
     Dipole Oscillator Strength                    0.0905161406
     Electric Quadrupole                           0.0000000211
     Magnetic Dipole                               0.0000000000
     Total Oscillator Strength                     0.0905161616

     Occ.    3  b1  ---  Virt.    7  b1   0.11959 X
     Occ.    4  a1  ---  Virt.    6  a1  -0.99242 X
 b2  
  ----------------------------------------------------------------------------
  Root   4 singlet b1             0.449805749 a.u.               12.2398 eV 
  ----------------------------------------------------------------------------
     Transition Moments    X  0.48729   Y -0.00000   Z  0.00000
     Transition Moments   XX -0.00000  XY  0.00000  XZ -0.59345
     Transition Moments   YY -0.00000  YZ  0.00000  ZZ -0.00000
     Dipole Oscillator Strength                    0.0712033691
     Electric Quadrupole                           0.0000001707
     Magnetic Dipole                               0.0000005931
     Total Oscillator Strength                     0.0712041328

     Occ.    3  b1  ---  Virt.    6  a1  -0.19562 X
     Occ.    4  a1  ---  Virt.    7  b1   0.97926 X
 b2  
  ----------------------------------------------------------------------------
  Root   5 singlet b1             0.523990296 a.u.               14.2585 eV 
  ----------------------------------------------------------------------------
     Transition Moments    X  1.04904   Y  0.00000   Z -0.00000
     Transition Moments   XX  0.00000  XY -0.00000  XZ -0.95625
     Transition Moments   YY  0.00000  YZ -0.00000  ZZ  0.00000
     Dipole Oscillator Strength                    0.3844297456
     Electric Quadrupole                           0.0000007006
     Magnetic Dipole                               0.0000000318
     Total Oscillator Strength                     0.3844304780

     Occ.    3  b1  ---  Virt.    6  a1   0.97946 X
     Occ.    4  a1  ---  Virt.    7  b1   0.19411 X
 b2  
  ----------------------------------------------------------------------------
  Root   6 singlet a1             0.641497904 a.u.               17.4561 eV 
  ----------------------------------------------------------------------------
     Transition Moments    X  0.00000   Y  0.00000   Z -0.68368
     Transition Moments   XX  1.88345  XY  0.00000  XZ -0.00000
     Transition Moments   YY  0.08181  YZ  0.00000  ZZ  0.58686
     Dipole Oscillator Strength                    0.1998964304
     Electric Quadrupole                           0.0000012142
     Magnetic Dipole                               0.0000000000
     Total Oscillator Strength                     0.1998976446

     Occ.    2  a1  ---  Virt.    6  a1  -0.10741 X
     Occ.    3  b1  ---  Virt.    7  b1  -0.97573 X
     Occ.    3  b1  ---  Virt.    7  b1   0.05047 Y
     Occ.    3  b1  ---  Virt.    8  b1   0.05399 X
     Occ.    4  a1  ---  Virt.    6  a1  -0.10994 X
     Occ.    4  a1  ---  Virt.    9  a1  -0.07697 X
     Occ.    4  a1  ---  Virt.   11  a1   0.06023 X
     Occ.    5  b2  ---  Virt.   10  b2  -0.12211 X
 b2  
  ----------------------------------------------------------------------------
  Root   7 singlet a2             0.951937544 a.u.               25.9035 eV 
  ----------------------------------------------------------------------------
     Transition Moments    X  0.00000   Y  0.00000   Z -0.00000
     Transition Moments   XX -0.00000  XY  0.48888  XZ -0.00000
     Transition Moments   YY -0.00000  YZ -0.00000  ZZ -0.00000
     Dipole Oscillator Strength                    0.0000000000
     Electric Quadrupole                           0.0000010979
     Magnetic Dipole                               0.0000007478
     Total Oscillator Strength                     0.0000018457

     Occ.    5  b2  ---  Virt.    8  b1   0.99994 X
 b2  
  ----------------------------------------------------------------------------
  Root   8 singlet a1             0.975222014 a.u.               26.5372 eV 
  ----------------------------------------------------------------------------
     Transition Moments    X  0.00000   Y  0.00000   Z  0.24857
     Transition Moments   XX -0.88163  XY  0.00000  XZ  0.00000
     Transition Moments   YY  0.18452  YZ  0.00000  ZZ -0.48685
     Dipole Oscillator Strength                    0.0401718579
     Electric Quadrupole                           0.0000014350
     Magnetic Dipole                               0.0000000000
     Total Oscillator Strength                     0.0401732929

     Occ.    2  a1  ---  Virt.    6  a1  -0.95263 X
     Occ.    3  b1  ---  Virt.    7  b1   0.06155 X
     Occ.    4  a1  ---  Virt.    9  a1   0.08822 X
     Occ.    5  b2  ---  Virt.   10  b2   0.27451 X
 b2  
  ----------------------------------------------------------------------------
  Root   9 singlet b2             1.041191099 a.u.               28.3323 eV 
  ----------------------------------------------------------------------------
     Transition Moments    X  0.00000   Y  0.41057   Z  0.00000
     Transition Moments   XX  0.00000  XY -0.00000  XZ -0.00000
     Transition Moments   YY -0.00000  YZ  0.34589  ZZ  0.00000
     Dipole Oscillator Strength                    0.1170101339
     Electric Quadrupole                           0.0000007191
     Magnetic Dipole                               0.0000003735
     Total Oscillator Strength                     0.1170112266

     Occ.    5  b2  ---  Virt.    9  a1   0.96228 X
     Occ.    5  b2  ---  Virt.   11  a1  -0.26546 X
 b2  
  ----------------------------------------------------------------------------
  Root  10 singlet b1             1.043122816 a.u.               28.3848 eV 
  ----------------------------------------------------------------------------
     Transition Moments    X -0.41568   Y  0.00000   Z -0.00000
     Transition Moments   XX -0.00000  XY  0.00000  XZ  0.41345
     Transition Moments   YY -0.00000  YZ  0.00000  ZZ  0.00000
     Dipole Oscillator Strength                    0.1201595380
     Electric Quadrupole                           0.0000010332
     Magnetic Dipole                               0.0000012374
     Total Oscillator Strength                     0.1201618086

     Occ.    2  a1  ---  Virt.    7  b1   0.88952 X
     Occ.    3  b1  ---  Virt.    9  a1  -0.07560 X
     Occ.    3  b1  ---  Virt.   11  a1  -0.05716 X
     Occ.    4  a1  ---  Virt.    8  b1  -0.44384 X
 b2  
  ----------------------------------------------------------------------------
  Root  11 singlet b1             1.086705534 a.u.               29.5708 eV 
  ----------------------------------------------------------------------------
     Transition Moments    X  0.26748   Y  0.00000   Z  0.00000
     Transition Moments   XX  0.00000  XY  0.00000  XZ  0.61044
     Transition Moments   YY -0.00000  YZ -0.00000  ZZ  0.00000
     Dipole Oscillator Strength                    0.0518341065
     Electric Quadrupole                           0.0000025465
     Magnetic Dipole                               0.0000016783
     Total Oscillator Strength                     0.0518383313

     Occ.    2  a1  ---  Virt.    7  b1   0.44914 X
     Occ.    3  b1  ---  Virt.    9  a1   0.16831 X
     Occ.    3  b1  ---  Virt.   11  a1   0.05685 X
     Occ.    3  b1  ---  Virt.   13  a1  -0.05341 X
     Occ.    4  a1  ---  Virt.    8  b1   0.86873 X
     Occ.    5  b2  ---  Virt.   15  a2   0.07542 X
 b2  
  ----------------------------------------------------------------------------
  Root  12 singlet b2             1.093012192 a.u.               29.7424 eV 
  ----------------------------------------------------------------------------
     Transition Moments    X -0.00000   Y  0.08188   Z -0.00000
     Transition Moments   XX  0.00000  XY -0.00000  XZ -0.00000
     Transition Moments   YY  0.00000  YZ -0.39322  ZZ -0.00000
     Dipole Oscillator Strength                    0.0048854940
     Electric Quadrupole                           0.0000010752
     Magnetic Dipole                               0.0000003571
     Total Oscillator Strength                     0.0048869263

     Occ.    4  a1  ---  Virt.   10  b2   0.18230 X
     Occ.    5  b2  ---  Virt.    9  a1   0.25436 X
     Occ.    5  b2  ---  Virt.   11  a1   0.94738 X
 b2  
  ----------------------------------------------------------------------------
  Root  13 singlet a1             1.099483256 a.u.               29.9185 eV 
  ----------------------------------------------------------------------------
     Transition Moments    X -0.00000   Y -0.00000   Z  0.21682
     Transition Moments   XX -0.11801  XY  0.00000  XZ -0.00000
     Transition Moments   YY -0.92422  YZ -0.00000  ZZ  0.26205
     Dipole Oscillator Strength                    0.0344596294
     Electric Quadrupole                           0.0000025971
     Magnetic Dipole                               0.0000000000
     Total Oscillator Strength                     0.0344622265

     Occ.    2  a1  ---  Virt.    6  a1  -0.11944 X
     Occ.    3  b1  ---  Virt.    8  b1   0.07346 X
     Occ.    4  a1  ---  Virt.    9  a1   0.69646 X
     Occ.    4  a1  ---  Virt.   11  a1  -0.20765 X
     Occ.    5  b2  ---  Virt.   10  b2  -0.66957 X
 b2  
  ----------------------------------------------------------------------------
  Root  14 singlet a1             1.147215215 a.u.               31.2173 eV 
  ----------------------------------------------------------------------------
     Transition Moments    X -0.00000   Y  0.00000   Z -0.08694
     Transition Moments   XX  0.39245  XY -0.00000  XZ -0.00000
     Transition Moments   YY  0.34196  YZ  0.00000  ZZ -0.69461
     Dipole Oscillator Strength                    0.0057813550
     Electric Quadrupole                           0.0000030268
     Magnetic Dipole                               0.0000000000
     Total Oscillator Strength                     0.0057843818

     Occ.    2  a1  ---  Virt.    6  a1   0.13805 X
     Occ.    2  a1  ---  Virt.    9  a1   0.05075 X
     Occ.    3  b1  ---  Virt.    8  b1   0.19445 X
     Occ.    3  b1  ---  Virt.   12  b1   0.08430 X
     Occ.    4  a1  ---  Virt.    9  a1   0.54562 X
     Occ.    4  a1  ---  Virt.   11  a1   0.72409 X
     Occ.    5  b2  ---  Virt.   10  b2   0.33004 X
 b2  
  ----------------------------------------------------------------------------
  Root  15 singlet b2             1.151826104 a.u.               31.3428 eV 
  ----------------------------------------------------------------------------
     Transition Moments    X -0.00000   Y  0.02380   Z  0.00000
     Transition Moments   XX -0.00000  XY  0.00000  XZ -0.00000
     Transition Moments   YY -0.00000  YZ  0.68294  ZZ  0.00000
     Dipole Oscillator Strength                    0.0004349301
     Electric Quadrupole                           0.0000037954
     Magnetic Dipole                               0.0000001160
     Total Oscillator Strength                     0.0004388415

     Occ.    4  a1  ---  Virt.   10  b2   0.98249 X
     Occ.    5  b2  ---  Virt.    9  a1  -0.06545 X
     Occ.    5  b2  ---  Virt.   11  a1  -0.16856 X
 b2  
  ----------------------------------------------------------------------------
  Root  16 singlet a2             1.228406879 a.u.               33.4267 eV 
  ----------------------------------------------------------------------------
     Transition Moments    X -0.00000   Y -0.00000   Z -0.00000
     Transition Moments   XX -0.00000  XY -0.41782  XZ -0.00000
     Transition Moments   YY -0.00000  YZ  0.00000  ZZ -0.00000
     Dipole Oscillator Strength                    0.0000000000
     Electric Quadrupole                           0.0000017232
     Magnetic Dipole                               0.0000000035
     Total Oscillator Strength                     0.0000017267

     Occ.    5  b2  ---  Virt.   12  b1   0.99998 X
 b2  
  ----------------------------------------------------------------------------
  Root  17 singlet a1             1.256380699 a.u.               34.1879 eV 
  ----------------------------------------------------------------------------
     Transition Moments    X  0.00000   Y -0.00000   Z -0.51183
     Transition Moments   XX -0.69894  XY -0.00000  XZ  0.00000
     Transition Moments   YY -0.76659  YZ  0.00000  ZZ -0.60957
     Dipole Oscillator Strength                    0.2194211956
     Electric Quadrupole                           0.0000000655
     Magnetic Dipole                               0.0000000000
     Total Oscillator Strength                     0.2194212611

     Occ.    2  a1  ---  Virt.    6  a1  -0.06124 X
     Occ.    3  b1  ---  Virt.    8  b1  -0.93698 X
     Occ.    3  b1  ---  Virt.   12  b1  -0.05080 X
     Occ.    4  a1  ---  Virt.   11  a1   0.29087 X
     Occ.    4  a1  ---  Virt.   14  a1  -0.06972 X
     Occ.    5  b2  ---  Virt.   10  b2  -0.12963 X
     Occ.    5  b2  ---  Virt.   16  b2  -0.07186 X
 b2  
  ----------------------------------------------------------------------------
  Root  18 singlet b1             1.287690109 a.u.               35.0398 eV 
  ----------------------------------------------------------------------------
     Transition Moments    X -0.03178   Y  0.00000   Z  0.00000
     Transition Moments   XX  0.00000  XY -0.00000  XZ  0.51143
     Transition Moments   YY  0.00000  YZ  0.00000  ZZ  0.00000
     Dipole Oscillator Strength                    0.0008670243
     Electric Quadrupole                           0.0000029739
     Magnetic Dipole                               0.0000001637
     Total Oscillator Strength                     0.0008701619

     Occ.    3  b1  ---  Virt.    9  a1   0.76747 X
     Occ.    3  b1  ---  Virt.   11  a1  -0.62606 X
     Occ.    4  a1  ---  Virt.    8  b1  -0.08980 X
     Occ.    4  a1  ---  Virt.   12  b1   0.08496 X
 b2  
  ----------------------------------------------------------------------------
  Root  19 singlet a2             1.294609575 a.u.               35.2281 eV 
  ----------------------------------------------------------------------------
     Transition Moments    X -0.00000   Y  0.00000   Z  0.00000
     Transition Moments   XX -0.00000  XY  0.60185  XZ  0.00000
     Transition Moments   YY -0.00000  YZ -0.00000  ZZ -0.00000
     Dipole Oscillator Strength                    0.0000000000
     Electric Quadrupole                           0.0000041852
     Magnetic Dipole                               0.0000003993
     Total Oscillator Strength                     0.0000045846

     Occ.    3  b1  ---  Virt.   10  b2   0.99998 X
 b2  
  ----------------------------------------------------------------------------
  Root  20 singlet b1             1.314357304 a.u.               35.7655 eV 
  ----------------------------------------------------------------------------
     Transition Moments    X  0.31569   Y  0.00000   Z  0.00000
     Transition Moments   XX -0.00000  XY -0.00000  XZ  0.23476
     Transition Moments   YY -0.00000  YZ -0.00000  ZZ -0.00000
     Dipole Oscillator Strength                    0.0873240237
     Electric Quadrupole                           0.0000006664
     Magnetic Dipole                               0.0000003395
     Total Oscillator Strength                     0.0873250296

     Occ.    3  b1  ---  Virt.    9  a1   0.06963 X
     Occ.    4  a1  ---  Virt.   12  b1  -0.99546 X
 b2  

              Target root =      1
          Target symmetry = none
      Ground state energy =    -76.388287736147
        Excitation energy =      0.273881420589
     Excited state energy =    -76.114406315558

  stored tddft:energy   -76.114406315557773     

   20 smallest eigenvalue differences (eV) 
--------------------------------------------------------
  No. Spin  Occ  Vir  Irrep   E(Occ)    E(Vir)   E(Diff)
--------------------------------------------------------
    1    1    5    6 b2       -0.225     0.036     7.116
    2    1    4    6 a1       -0.308     0.036     9.376
    3    1    5    7 a2       -0.225     0.120     9.387
    4    1    4    7 b1       -0.308     0.120    11.647
    5    1    3    6 b1       -0.458     0.036    13.467
    6    1    3    7 a1       -0.458     0.120    15.739
    7    1    2    6 a1       -0.901     0.036    25.506
    8    1    5    8 a2       -0.225     0.725    25.859
    9    1    2    7 b1       -0.901     0.120    27.777
   10    1    5    9 b2       -0.225     0.802    27.938
   11    1    4    8 b1       -0.308     0.725    28.119
   12    1    5   10 a1       -0.225     0.836    28.859
   13    1    5   11 b2       -0.225     0.848    29.204
   14    1    4    9 a1       -0.308     0.802    30.198
   15    1    4   10 b2       -0.308     0.836    31.119
   16    1    4   11 a1       -0.308     0.848    31.464
   17    1    3    8 a1       -0.458     0.725    32.211
   18    1    5   12 a2       -0.225     1.005    33.482
   19    1    3    9 b1       -0.458     0.802    34.290
   20    1    3   10 a2       -0.458     0.836    35.211
--------------------------------------------------------

  Entering Davidson iterations
  Restricted triplet excited states

  Iter   NTrls   NConv    DeltaV     DeltaE      Time   
  ----  ------  ------  ---------  ---------  --------- 
    1     20       0     0.96E-01   0.10+100        1.2
    2     40       0     0.29E-01   0.12E-01        1.2
    3     70      20     0.12E-08   0.14E-01        1.7
  ----  ------  ------  ---------  ---------  --------- 
  Convergence criterion met

  Ground state a1        -76.388287736147 a.u.

  ----------------------------------------------------------------------------
  Root   1 triplet b2             0.246728591 a.u.                6.7138 eV 
  ----------------------------------------------------------------------------
     Transition Moments                    Spin forbidden
     Oscillator Strength                   Spin forbidden

     Occ.    5  b2  ---  Virt.    6  a1   1.00025 X
 b2  
  ----------------------------------------------------------------------------
  Root   2 triplet a1             0.323669140 a.u.                8.8075 eV 
  ----------------------------------------------------------------------------
     Transition Moments                    Spin forbidden
     Oscillator Strength                   Spin forbidden

     Occ.    3  b1  ---  Virt.    7  b1  -0.06410 X
     Occ.    4  a1  ---  Virt.    6  a1  -0.99787 X
 b2  
  ----------------------------------------------------------------------------
  Root   3 triplet a2             0.329933215 a.u.                8.9779 eV 
  ----------------------------------------------------------------------------
     Transition Moments                    Spin forbidden
     Oscillator Strength                   Spin forbidden

     Occ.    5  b2  ---  Virt.    7  b1  -1.00001 X
 b2  
  ----------------------------------------------------------------------------
  Root   4 triplet b1             0.400320320 a.u.               10.8933 eV 
  ----------------------------------------------------------------------------
     Transition Moments                    Spin forbidden
     Oscillator Strength                   Spin forbidden

     Occ.    3  b1  ---  Virt.    6  a1   0.22083 X
     Occ.    4  a1  ---  Virt.    7  b1   0.97518 X
 b2  
  ----------------------------------------------------------------------------
  Root   5 triplet b1             0.470859487 a.u.               12.8127 eV 
  ----------------------------------------------------------------------------
     Transition Moments                    Spin forbidden
     Oscillator Strength                   Spin forbidden

     Occ.    3  b1  ---  Virt.    6  a1  -0.97459 X
     Occ.    4  a1  ---  Virt.    7  b1   0.22096 X
 b2  
  ----------------------------------------------------------------------------
  Root   6 triplet a1             0.533811479 a.u.               14.5258 eV 
  ----------------------------------------------------------------------------
     Transition Moments                    Spin forbidden
     Oscillator Strength                   Spin forbidden

     Occ.    3  b1  ---  Virt.    7  b1  -0.99563 X
     Occ.    4  a1  ---  Virt.    6  a1   0.06539 X
 b2  
  ----------------------------------------------------------------------------
  Root   7 triplet a1             0.907467469 a.u.               24.6935 eV 
  ----------------------------------------------------------------------------
     Transition Moments                    Spin forbidden
     Oscillator Strength                   Spin forbidden

     Occ.    2  a1  ---  Virt.    6  a1  -0.96855 X
     Occ.    3  b1  ---  Virt.    7  b1  -0.05681 X
     Occ.    4  a1  ---  Virt.    9  a1  -0.12442 X
     Occ.    5  b2  ---  Virt.   10  b2  -0.19218 X
 b2  
  ----------------------------------------------------------------------------
  Root   8 triplet a2             0.938310290 a.u.               25.5327 eV 
  ----------------------------------------------------------------------------
     Transition Moments                    Spin forbidden
     Oscillator Strength                   Spin forbidden

     Occ.    5  b2  ---  Virt.    8  b1  -0.99977 X
 b2  
  ----------------------------------------------------------------------------
  Root   9 triplet a1             0.979569353 a.u.               26.6554 eV 
  ----------------------------------------------------------------------------
     Transition Moments                    Spin forbidden
     Oscillator Strength                   Spin forbidden

     Occ.    2  a1  ---  Virt.    6  a1   0.21094 X
     Occ.    4  a1  ---  Virt.    9  a1  -0.12666 X
     Occ.    4  a1  ---  Virt.   11  a1   0.15543 X
     Occ.    5  b2  ---  Virt.   10  b2  -0.95646 X
 b2  
  ----------------------------------------------------------------------------
  Root  10 triplet b1             0.992771109 a.u.               27.0147 eV 
  ----------------------------------------------------------------------------
     Transition Moments                    Spin forbidden
     Oscillator Strength                   Spin forbidden

     Occ.    2  a1  ---  Virt.    7  b1  -0.16804 X
     Occ.    3  b1  ---  Virt.    9  a1  -0.14723 X
     Occ.    3  b1  ---  Virt.   11  a1  -0.06001 X
     Occ.    4  a1  ---  Virt.    8  b1   0.97160 X
 b2  
  ----------------------------------------------------------------------------
  Root  11 triplet b2             0.995164229 a.u.               27.0798 eV 
  ----------------------------------------------------------------------------
     Transition Moments                    Spin forbidden
     Oscillator Strength                   Spin forbidden

     Occ.    4  a1  ---  Virt.   10  b2  -0.17893 X
     Occ.    5  b2  ---  Virt.    9  a1  -0.97134 X
     Occ.    5  b2  ---  Virt.   11  a1   0.15640 X
 b2  
  ----------------------------------------------------------------------------
  Root  12 triplet b1             0.996369453 a.u.               27.1126 eV 
  ----------------------------------------------------------------------------
     Transition Moments                    Spin forbidden
     Oscillator Strength                   Spin forbidden

     Occ.    2  a1  ---  Virt.    7  b1  -0.98101 X
     Occ.    4  a1  ---  Virt.    8  b1  -0.17923 X
 b2  
  ----------------------------------------------------------------------------
  Root  13 triplet b2             1.041165804 a.u.               28.3316 eV 
  ----------------------------------------------------------------------------
     Transition Moments                    Spin forbidden
     Oscillator Strength                   Spin forbidden

     Occ.    4  a1  ---  Virt.   10  b2  -0.25469 X
     Occ.    5  b2  ---  Virt.    9  a1   0.19852 X
     Occ.    5  b2  ---  Virt.   11  a1   0.94610 X
 b2  
  ----------------------------------------------------------------------------
  Root  14 triplet a1             1.046860900 a.u.               28.4865 eV 
  ----------------------------------------------------------------------------
     Transition Moments                    Spin forbidden
     Oscillator Strength                   Spin forbidden

     Occ.    2  a1  ---  Virt.    6  a1   0.10322 X
     Occ.    3  b1  ---  Virt.    8  b1   0.30076 X
     Occ.    4  a1  ---  Virt.    9  a1  -0.89553 X
     Occ.    4  a1  ---  Virt.   11  a1   0.24188 X
     Occ.    5  b2  ---  Virt.   10  b2   0.18546 X
 b2  
  ----------------------------------------------------------------------------
  Root  15 triplet a1             1.094418367 a.u.               29.7807 eV 
  ----------------------------------------------------------------------------
     Transition Moments                    Spin forbidden
     Oscillator Strength                   Spin forbidden

     Occ.    2  a1  ---  Virt.    9  a1  -0.05849 X
     Occ.    3  b1  ---  Virt.    8  b1  -0.56477 X
     Occ.    4  a1  ---  Virt.   11  a1   0.81299 X
     Occ.    5  b2  ---  Virt.   10  b2   0.11019 X
 b2  
  ----------------------------------------------------------------------------
  Root  16 triplet b2             1.123043926 a.u.               30.5596 eV 
  ----------------------------------------------------------------------------
     Transition Moments                    Spin forbidden
     Oscillator Strength                   Spin forbidden

     Occ.    4  a1  ---  Virt.   10  b2   0.95041 X
     Occ.    5  b2  ---  Virt.    9  a1  -0.12928 X
     Occ.    5  b2  ---  Virt.   11  a1   0.28296 X
 b2  
  ----------------------------------------------------------------------------
  Root  17 triplet a1             1.143419240 a.u.               31.1140 eV 
  ----------------------------------------------------------------------------
     Transition Moments                    Spin forbidden
     Oscillator Strength                   Spin forbidden

     Occ.    3  b1  ---  Virt.    8  b1   0.76210 X
     Occ.    4  a1  ---  Virt.    9  a1   0.40134 X
     Occ.    4  a1  ---  Virt.   11  a1   0.50461 X
 b2  
  ----------------------------------------------------------------------------
  Root  18 triplet a2             1.192664190 a.u.               32.4541 eV 
  ----------------------------------------------------------------------------
     Transition Moments                    Spin forbidden
     Oscillator Strength                   Spin forbidden

     Occ.    3  b1  ---  Virt.   10  b2   0.30149 X
     Occ.    5  b2  ---  Virt.   12  b1  -0.95351 X
 b2  
  ----------------------------------------------------------------------------
  Root  19 triplet b1             1.197619569 a.u.               32.5889 eV 
  ----------------------------------------------------------------------------
     Transition Moments                    Spin forbidden
     Oscillator Strength                   Spin forbidden

     Occ.    2  a1  ---  Virt.    7  b1   0.07603 X
     Occ.    2  a1  ---  Virt.    8  b1  -0.07585 X
     Occ.    3  b1  ---  Virt.    9  a1  -0.94048 X
     Occ.    3  b1  ---  Virt.   11  a1  -0.20502 X
     Occ.    4  a1  ---  Virt.    8  b1  -0.14825 X
     Occ.    4  a1  ---  Virt.   12  b1   0.19777 X
 b2  
  ----------------------------------------------------------------------------
  Root  20 triplet b1             1.264548314 a.u.               34.4101 eV 
  ----------------------------------------------------------------------------
     Transition Moments                    Spin forbidden
     Oscillator Strength                   Spin forbidden

     Occ.    3  b1  ---  Virt.   11  a1   0.76430 X
     Occ.    4  a1  ---  Virt.   12  b1   0.64106 X
 b2  

              Target root =      1
          Target symmetry = none
      Ground state energy =    -76.388287736147
        Excitation energy =      0.246728591099
     Excited state energy =    -76.141559145047

  stored tddft:energy   -76.141559145047324     

 Task  times  cpu:        9.4s     wall:        9.4s


                                NWChem Input Module
                                -------------------


 Summary of allocated global arrays
-----------------------------------
  No active global arrays


MA_summarize_allocated_blocks: starting scan ...
MA_summarize_allocated_blocks: scan completed: 0 heap blocks, 0 stack blocks
MA usage statistics:

	allocation statistics:
					      heap	     stack
					      ----	     -----
	current number of blocks	         0	         0
	maximum number of blocks	        27	        62
	current total bytes		         0	         0
	maximum total bytes		   2333808	  42292264
	maximum total K-bytes		      2334	     42293
	maximum total M-bytes		         3	        43


                                     CITATION
                                     --------
                Please cite the following reference when publishing
                           results obtained with NWChem:

          E. Apra, E. J. Bylaska, W. A. de Jong, N. Govind, K. Kowalski,
       T. P. Straatsma, M. Valiev, H. J. J. van Dam, Y. Alexeev, J. Anchell,
       V. Anisimov, F. W. Aquino, R. Atta-Fynn, J. Autschbach, N. P. Bauman,
     J. C. Becca, D. E. Bernholdt, K. Bhaskaran-Nair, S. Bogatko, P. Borowski,
         J. Boschen, J. Brabec, A. Bruner, E. Cauet, Y. Chen, G. N. Chuev,
      C. J. Cramer, J. Daily, M. J. O. Deegan, T. H. Dunning Jr., M. Dupuis,
   K. G. Dyall, G. I. Fann, S. A. Fischer, A. Fonari, H. Fruchtl, L. Gagliardi,
      J. Garza, N. Gawande, S. Ghosh, K. Glaesemann, A. W. Gotz, J. Hammond,
       V. Helms, E. D. Hermes, K. Hirao, S. Hirata, M. Jacquelin, L. Jensen,
   B. G. Johnson, H. Jonsson, R. A. Kendall, M. Klemm, R. Kobayashi, V. Konkov,
      S. Krishnamoorthy, M. Krishnan, Z. Lin, R. D. Lins, R. J. Littlefield,
      A. J. Logsdail, K. Lopata, W. Ma, A. V. Marenich, J. Martin del Campo,
   D. Mejia-Rodriguez, J. E. Moore, J. M. Mullin, T. Nakajima, D. R. Nascimento,
    J. A. Nichols, P. J. Nichols, J. Nieplocha, A. Otero-de-la-Roza, B. Palmer,
    A. Panyala, T. Pirojsirikul, B. Peng, R. Peverati, J. Pittner, L. Pollack,
   R. M. Richard, P. Sadayappan, G. C. Schatz, W. A. Shelton, D. W. Silverstein,
   D. M. A. Smith, T. A. Soares, D. Song, M. Swart, H. L. Taylor, G. S. Thomas,
            V. Tipparaju, D. G. Truhlar, K. Tsemekhman, T. Van Voorhis,
      A. Vazquez-Mayagoitia, P. Verma, O. Villa, A. Vishnu, K. D. Vogiatzis,
        D. Wang, J. H. Weare, M. J. Williamson, T. L. Windus, K. Wolinski,
        A. T. Wong, Q. Wu, C. Yang, Q. Yu, M. Zacharias, Z. Zhang, Y. Zhao,
                                and R. J. Harrison
                        "NWChem: Past, present, and future
                         J. Chem. Phys. 152, 184102 (2020)
                               doi:10.1063/5.0004997

                                      AUTHORS
                                      -------
  E. Apra, E. J. Bylaska, N. Govind, K. Kowalski, M. Valiev, D. Mejia-Rodriguez,
       A. Kunitsa, N. P. Bauman, A. Panyala, W. A. de Jong, T. P. Straatsma,
   H. J. J. van Dam, D. Wang, T. L. Windus, J. Hammond, J. Autschbach, A. Woods,
    K. Bhaskaran-Nair, J. Brabec, K. Lopata, S. A. Fischer, S. Krishnamoorthy,
     M. Jacquelin, W. Ma, M. Klemm, O. Villa, Y. Chen, V. Anisimov, F. Aquino,
     S. Hirata, M. T. Hackler, E. Hermes, L. Jensen, J. E. Moore, J. C. Becca,
      V. Konjkov, T. Risthaus, M. Malagoli, A. Marenich, A. Otero-de-la-Roza,
        J. Mullin, P. Nichols, R. Peverati, J. Pittner, Y. Zhao, P.-D. Fan,
        A. Fonari, M. J. Williamson, R. J. Harrison, J. R. Rehr, M. Dupuis,
     D. Silverstein, D. M. A. Smith, J. Nieplocha, V. Tipparaju, M. Krishnan,
     B. E. Van Kuiken, A. Vazquez-Mayagoitia, M. Swart, Q. Wu, T. Van Voorhis,
     A. A. Auer, M. Nooijen, L. D. Crosby, E. Brown, G. Cisneros, G. I. Fann,
   H. Fruchtl, J. Garza, K. Hirao, R. A. Kendall, J. A. Nichols, K. Tsemekhman,
    K. Wolinski, J. Anchell, D. E. Bernholdt, P. Borowski, T. Clark, D. Clerc,
   H. Dachsel, M. J. O. Deegan, K. Dyall, D. Elwood, E. Glendening, M. Gutowski,
   A. C. Hess, J. Jaffe, B. G. Johnson, J. Ju, R. Kobayashi, R. Kutteh, Z. Lin,
   R. Littlefield, X. Long, B. Meng, T. Nakajima, S. Niu, L. Pollack, M. Rosing,
   K. Glaesemann, G. Sandrone, M. Stave, H. Taylor, G. Thomas, J. H. van Lenthe,
                               A. T. Wong, Z. Zhang.

 Total times  cpu:        9.4s     wall:        9.4s
