0 using x=512 SHMMAX=524288KB
 argument  1 = bq_nio.nw
 


============================== echo of input deck ==============================
title "NiO tiny cluster"

Start  bq_nio

title "old bq input"

echo

charge -18

geometry o noprint
O 0 0 0
symmetry c2v
end
geometry ni noprint
Ni 0 0 0
symmetry c2v
end

geometry  nio_old units angstrom noautoz noprint
bqn    0     2.1   0.0 charge +2
bqn    0    -2.1   0.0 charge +2
bqn   2.1    0.0   0.0 charge +2
bqn  -2.1    0.0   0.0 charge +2
 O     0     0     0
 Ni    0     0     2.1
bq     0     2.1   2.1 charge -2
bq     0    -2.1   2.1 charge -2
bq     2.1   0     2.1 charge -2
bq    -2.1   0     2.1 charge -2
bq     0     0     4.2 charge -2
 Ni    0     0    -2.1
bq     0     2.1  -2.1 charge -2
bq     0    -2.1  -2.1 charge -2
bq     2.1   0    -2.1 charge -2
bq    -2.1   0    -2.1 charge -2
bq     0     0    -4.2 charge -2
symmetry c2v
end

basis "ao basis" spherical
ni library 6-31g*
O library 6-31g*
END

dft
  mult 1
  odft
  xc hfexch
end

set geometry ni
charge +2
dft
odft
mult 3
vectors input atomic output  nia.mos
end
task dft

set geometry ni
charge +2
dft
odft
mult -3
vectors input atomic output  nib.mos
end
task dft

set geometry o
charge -2
dft
odft
mult 1
vectors input atomic output  o.mos
end
task dft

charge -10
set geometry nio_old
dft
  mult 1
  odft
vectors input fragment o.mos \
nia.mos nib.mos output nio.mos
end
task dft energy

title "new bq input"
#remember to:
#1)  add nocenter to geometry object
#2)  assign charge relative to the geometry object (not to geom+bq together)

charge +2

geometry  nio_new units angstrom noautoz nocenter
 O     0     0     0
 Ni    0     0     2.1
 Ni    0     0    -2.1
symmetry c2v
end

bq
 +2    0     2.1   0.0
 +2    0    -2.1   0.0
 +2   2.1    0.0   0.0
 +2  -2.1    0.0   0.0
 -2    0     2.1   2.1
 -2    0    -2.1   2.1
 -2    2.1   0     2.1
 -2   -2.1   0     2.1
 -2    0     0     4.2
 -2    0     2.1  -2.1
 -2    0    -2.1  -2.1
 -2    2.1   0    -2.1
 -2   -2.1   0    -2.1
 -2    0     0    -4.2
end

set geometry nio_new

dft
  mult 1
  odft
vectors input fragment o.mos \
nia.mos nib.mos output nio_new.mos
end

task dft energy





================================================================================


                                         
                                         
 
 
              Northwest Computational Chemistry Package (NWChem) 4.7
              ------------------------------------------------------
 
 
                    Environmental Molecular Sciences Laboratory
                       Pacific Northwest National Laboratory
                                Richland, WA 99352
 
                                         
                                         
 
 
                     COPYRIGHT (C) 1994, 1995, 1996, 1997, 1998,
                         1999, 2000, 2001, 2002, 2003, 2004
                        Pacific Northwest National Laboratory,
                             Battelle Memorial Institute.
 
                            >>> All Rights Reserved <<<
 
 
                                    DISCLAIMER
                                    ----------

            This material was prepared as an account of work sponsored
            by an agency of the United States Government.  Neither the
            United States Government nor the United States Department
            of Energy, nor Battelle, nor any of their employees, MAKES
            ANY WARRANTY, EXPRESS OR IMPLIED, OR ASSUMES ANY LEGAL
            LIABILITY OR RESPONSIBILITY FOR THE ACCURACY, COMPLETENESS,
            OR USEFULNESS OF ANY INFORMATION, APPARATUS, PRODUCT,
            SOFTWARE, OR PROCESS DISCLOSED, OR REPRESENTS THAT ITS USE
            WOULD NOT INFRINGE PRIVATELY OWNED RIGHTS.


                                    LIMITED USE
                                    -----------

            This software (including any documentation) is being made
            available to you for your internal use only, solely for use
            in performance of work directly for the U.S. Federal
            Government or work under contracts with the U.S. Department
            of Energy or other U.S. Federal Government agencies.  This
            software is a version which has not yet been evaluated and
            cleared for commercialization.  Adherence to this notice
            may be necessary for the author, Battelle Memorial
            Institute, to successfully assert copyright in and
            commercialize this software. This software is not intended
            for duplication or distribution to third parties without
            the permission of the Manager of Software Products at
            Pacific Northwest National Laboratory, Richland,
            Washington, 99352.


                                  ACKNOWLEDGMENT
                                  --------------

            This software and its documentation were produced with
            Government support under Contract Number DE-AC06-76RLO-1830
            awarded by the United States Department of Energy.  The
            Government retains a paid-up non-exclusive, irrevocable
            worldwide license to reproduce, prepare derivative works,
            perform publicly and display publicly by or for the
            Government, including the right to distribute to other
            Government contractors.


           Job information
           ---------------

    hostname      = grissino
    program       = /home/edo/nwchem/bin/LINUX64/nwchem
    date          = Wed Dec 21 17:57:31 2005

    compiled      = Wed Dec 21 15:39:24 PST 2005
    source        = /home/edo/nwchem
    nwchem branch = Development
    input         = bq_nio.nw
    prefix        = bq_nio.
    data base     = ./bq_nio.db
    status        = startup
    nproc         =    2
    time left     =     -1s



           Memory information
           ------------------

    heap      =   13107201 doubles =    100.0 Mbytes
    stack     =   13107201 doubles =    100.0 Mbytes
    global    =   26214400 doubles =    200.0 Mbytes (distinct from heap & stack)
    total     =   52428802 doubles =    400.0 Mbytes
    verify    = yes
    hardfail  = no 


           Directory information
           ---------------------
 
  0 permanent = .
  0 scratch   = .
 
 
 
 
                                NWChem Input Module
                                -------------------
 
 
                                 NiO tiny cluster
                                 ----------------
                                   old bq input
                                   ------------
 sym_nwc nata                      1
 sym_nwc nata                      1
 Turning off AUTOSYM since
 SYMMETRY directive was detected!
 
 sym_nwc nata                     17
  library name resolved from: .nwchemrc
  library file name is: </home/edo/nwchem/src/basis/libraries/>
  
                      Basis "ao basis" -> "" (spherical)
                      -----
  ni (Nickel)
  -----------
            Exponent  Coefficients 
       -------------- ---------------------------------------------------------
  1 S  7.13963500E+04  0.001753
  1 S  1.07208400E+04  0.013431
  1 S  2.44212900E+03  0.066270
  1 S  6.88426500E+02  0.230251
  1 S  2.20615300E+02  0.479019
  1 S  7.53937300E+01  0.352344
 
  2 S  1.49253200E+03  0.002371
  2 S  3.55401300E+02  0.031606
  2 S  1.14953400E+02  0.126634
  2 S  4.32204300E+01 -0.024170
  2 S  1.75971000E+01 -0.618778
  2 S  7.25776500E+00 -0.457677
 
  3 P  1.49253200E+03  0.003968
  3 P  3.55401300E+02  0.031095
  3 P  1.14953400E+02  0.135952
  3 P  4.32204300E+01  0.348514
  3 P  1.75971000E+01  0.462550
  3 P  7.25776500E+00  0.203519
 
  4 S  5.93526100E+01 -0.004162
  4 S  2.00218100E+01  0.074251
  4 S  8.61456100E+00  0.254136
  4 S  3.66053100E+00 -0.290348
  4 S  1.52811100E+00 -0.730212
  4 S  6.04057000E-01 -0.207606
 
  5 P  5.93526100E+01 -0.007421
  5 P  2.00218100E+01 -0.029534
  5 P  8.61456100E+00  0.067319
  5 P  3.66053100E+00  0.401666
  5 P  1.52811100E+00  0.492662
  5 P  6.04057000E-01  0.175689
 
  6 S  2.37927600E+00  0.051579
  6 S  8.85839000E-01  0.270761
  6 S  1.28529000E-01 -1.124770
 
  7 P  2.37927600E+00 -0.188766
  7 P  8.85839000E-01  0.101520
  7 P  1.28529000E-01  0.979091
 
  8 S  4.51950000E-02  1.000000
 
  9 P  4.51950000E-02  1.000000
 
 10 D  2.81914700E+01  0.090989
 10 D  7.52358400E+00  0.395821
 10 D  2.27122800E+00  0.694715
 
 11 D  6.11603000E-01  1.000000
 
 12 F  8.00000000E-01  1.000000
 
  O (Oxygen)
  ----------
            Exponent  Coefficients 
       -------------- ---------------------------------------------------------
  1 S  5.48467170E+03  0.001831
  1 S  8.25234950E+02  0.013950
  1 S  1.88046960E+02  0.068445
  1 S  5.29645000E+01  0.232714
  1 S  1.68975700E+01  0.470193
  1 S  5.79963530E+00  0.358521
 
  2 S  1.55396160E+01 -0.110778
  2 S  3.59993360E+00 -0.148026
  2 S  1.01376180E+00  1.130767
 
  3 P  1.55396160E+01  0.070874
  3 P  3.59993360E+00  0.339753
  3 P  1.01376180E+00  0.727159
 
  4 S  2.70005800E-01  1.000000
 
  5 P  2.70005800E-01  1.000000
 
  6 D  8.00000000E-01  1.000000
 


 Summary of "ao basis" -> "" (spherical)
 ------------------------------------------------------------------------------
       Tag                 Description            Shells   Functions and Types
 ---------------- ------------------------------  ------  ---------------------
 ni                          6-31g*                 12       34   5s4p2d1f
 O                           6-31g*                  6       14   3s2p1d


  xc_inp: hfexch multiplicative factor not found.
                                 NWChem DFT Module
                                 -----------------
 
 
                                   old bq input
 
 
  Caching 1-el integrals 
 
            General Information
            -------------------
          SCF calculation type: DFT
          Wavefunction type:  spin polarized.
          No. of atoms     :     1
          No. of electrons :    26
           Alpha electrons :    14
            Beta electrons :    12
          Charge           :     2
          Spin multiplicity:     3
          Use of symmetry is: on ; symmetry adaption is: on 
          Maximum number of iterations:  30
          AO basis - number of functions:    34
                     number of shells:    12
          Convergence on energy requested: 1.00D-06
          Convergence on density requested: 1.00D-05
          Convergence on gradient requested: 5.00D-04
 
              XC Information
              --------------
                     Hartree-Fock (Exact) Exchange  1.000          
  WARNING: Sum of local correlation is   0.000000000000000E+000
  Sum of components do not equal unity. 
 
          Convergence Information
          -----------------------
          Convergence aids based upon iterative change in 
          total energy or number of iterations. 
          Levelshifting, if invoked, occurs when the 
          HOMO/LUMO gap drops below (HL_TOL): 1.00D-02
          DIIS, if invoked, will attempt to extrapolate 
          using up to (NFOCK): 10 stored Fock matrices.

                    Damping( 0%)  Levelshifting(0.5)       DIIS
                  --------------- ------------------- ---------------
          dE  on:    start            ASAP                start   
          dE off:    2 iters         30 iters            30 iters 

 
      Screening Tolerance Information
      -------------------------------
          Density screening/tol_rho: 1.00D-10
          AO Gaussian exp screening on grid/accAOfunc:  14
          CD Gaussian exp screening on grid/accCDfunc:  20
          XC Gaussian exp screening on grid/accXCfunc:  20
          Schwarz screening/accCoul: 1.00D-08
          Spatial weight screening/radius(au): 1.77D+01

 
      Superposition of Atomic Density Guess
      -------------------------------------
 
 Sum of atomic energies:       -1506.56882330

 Renormalizing density from      28.00 to     26
 
      Non-variational initial energy
      ------------------------------

 Total energy =   -1437.216411
 1-e energy   =   -1944.026627
 2-e energy   =     506.810216
 HOMO         =      -2.674106
 LUMO         =      -2.674106
 

 !!!!!!!!!!!!!!!!!!!!!!!!!!!!!!!!!!!!!!!!!!!!!!!!!!!!!!!!!!!!!!!!!!!!!!
 Warning - the HOMO and LUMO are degenerate and you are using symmetry.
 This can lead to non-variational energies and poor convergence.
 Modify the initial guess, or use an open-shell wavefunction, or turn
 off symmetry.
 !!!!!!!!!!!!!!!!!!!!!!!!!!!!!!!!!!!!!!!!!!!!!!!!!!!!!!!!!!!!!!!!!!!!!!

 
   Symmetry analysis of molecular orbitals - initial alpha
   -------------------------------------------------------
 

 !! scf_movecs_sym_adapt:   29 vectors were symmetry contaminated

  Symmetry fudging

 !! scf_movecs_sym_adapt:   27 vectors were symmetry contaminated

  Numbering of irreducible representations: 
 
     1 a1          2 a2          3 b1          4 b2      
 
  Orbital symmetries:
 
     1 a1          2 a1          3 b2          4 b1          5 a1      
     6 a1          7 b2          8 b1          9 a1         10 a1      
    11 b1         12 a2         13 b2         14 a1         15 a1      
    16 b2         17 a1         18 b1         19 a1         20 b2      
    21 a1         22 b1         23 a1         24 a2      
 
 
   Symmetry analysis of molecular orbitals - initial beta
   ------------------------------------------------------
 

 !! scf_movecs_sym_adapt:   29 vectors were symmetry contaminated

  Symmetry fudging

 !! scf_movecs_sym_adapt:   27 vectors were symmetry contaminated

  Numbering of irreducible representations: 
 
     1 a1          2 a2          3 b1          4 b2      
 
  Orbital symmetries:
 
     1 a1          2 a1          3 b2          4 b1          5 a1      
     6 a1          7 b2          8 b1          9 a1         10 a1      
    11 b1         12 a2         13 b2         14 a1         15 a1      
    16 b2         17 a1         18 b1         19 a1         20 b2      
    21 a1         22 b1         23 a1         24 a2      
 
   Time after variat. SCF:      0.8
   Time prior to 1st pass:      0.8

 #quartets = 3.081D+03 #integrals = 2.369D+04 #direct =  0.0% #cached =100.0%


 Integral file          = ./bq_nio.aoints.0
 Record size in doubles =  65536        No. of integs per rec  =  43688
 Max. records in memory =      2        Max. records in file   =  28571
 No. of bits per label  =      8        No. of bits per value  =     64


File balance: exchanges=     0  moved=     0  time=   0.0


           Memory utilization after 1st SCF pass: 
           Heap Space remaining (MW):       12.97            12972425
          Stack Space remaining (MW):       13.11            13106827

   convergence    iter        energy       DeltaE   RMS-Dens  Diis-err    time
 ---------------- ----- ----------------- --------- --------- ---------  ------
 d= 0,ls=0.0,diis     1  -1504.4959776182 -1.50D+03  3.10D-02  5.24D+00     1.3
                                                     2.75D-02  3.78D+00
 d= 0,ls=0.0,diis     2  -1505.3254154905 -8.29D-01  1.08D-02  2.31D+00     1.4
                                                     9.69D-03  1.67D+00
 d= 0,ls=0.0,diis     3  -1505.7341221643 -4.09D-01  2.23D-04  4.83D-04     1.4
                                                     1.33D-03  2.96D-03
 d= 0,ls=0.0,diis     4  -1505.7371530569 -3.03D-03  5.95D-05  4.19D-05     1.4
                                                     1.05D-03  2.61D-03
 d= 0,ls=0.0,diis     5  -1505.7395478196 -2.39D-03  6.71D-04  4.26D-05     1.4
                                                     1.18D-02  2.69D-03
 d= 0,ls=0.0,diis     6  -1505.7159698896  2.36D-02  7.97D-05  9.75D-04     1.4
                                                     1.25D-03  4.24D-03
 d= 0,ls=0.0,diis     7  -1505.7142634260  1.71D-03  1.50D-05  1.17D-03     1.4
                                                     9.47D-05  4.81D-03
 d= 0,ls=0.0,diis     8  -1505.7140842727  1.79D-04  4.61D-04  1.28D-03     1.4
                                                     5.93D-03  5.16D-03
 d= 0,ls=0.0,diis     9  -1505.7106393285  3.44D-03  1.70D-04  2.42D-04     1.5
                                                     1.77D-03  9.71D-04
 d= 0,ls=0.0,diis    10  -1505.7104801520  1.59D-04  5.80D-05  1.47D-04     1.5
                                                     1.92D-04  4.80D-04
 d= 0,ls=0.0,diis    11  -1505.7105556617 -7.55D-05  5.41D-05  4.04D-05     1.5
                                                     1.63D-04  1.36D-04
 d= 0,ls=0.0,diis    12  -1505.7105861266 -3.05D-05  1.72D-05  1.01D-07     1.5
                                                     9.68D-06  8.66D-08
 d= 0,ls=0.0,diis    13  -1505.7105862331 -1.06D-07  8.76D-06  3.93D-08     1.5
                                                     8.36D-06  6.30D-08


         Total DFT energy =    -1505.710586233056
      One electron energy =    -2073.461089564068
           Coulomb energy =      629.152340170196
    Exchange-Corr. energy =      -61.401836839185
 Nuclear repulsion energy =        0.000000000000

 Numeric. integr. density =        0.000000000000

     Total iterative time =      0.8s


 
                    DFT Final Alpha Molecular Orbital Analysis
                    ------------------------------------------
 
 Vector    3  Occ=1.000000D+00  E=-3.372356D+01  Symmetry=a1
              MO Center= -8.7D-34, -9.2D-34, -8.4D-18, r^2= 1.6D-02
   Bfn.  Coefficient  Atom+Function         Bfn.  Coefficient  Atom+Function  
  ----- ------------  ---------------      ----- ------------  ---------------
     5     -0.996157  1 Ni pz         
 
 Vector    4  Occ=1.000000D+00  E=-3.372355D+01  Symmetry=b2
              MO Center= -4.5D-35,  2.2D-18,  4.7D-18, r^2= 1.6D-02
   Bfn.  Coefficient  Atom+Function         Bfn.  Coefficient  Atom+Function  
  ----- ------------  ---------------      ----- ------------  ---------------
     4      0.996157  1 Ni py         
 
 Vector    5  Occ=1.000000D+00  E=-3.363762D+01  Symmetry=b1
              MO Center=  9.4D-19,  2.5D-27,  5.7D-20, r^2= 1.6D-02
   Bfn.  Coefficient  Atom+Function         Bfn.  Coefficient  Atom+Function  
  ----- ------------  ---------------      ----- ------------  ---------------
     3      0.996535  1 Ni px         
 
 Vector    6  Occ=1.000000D+00  E=-5.689185D+00  Symmetry=a1
              MO Center= -7.8D-18, -9.9D-17,  1.1D-16, r^2= 1.8D-01
   Bfn.  Coefficient  Atom+Function         Bfn.  Coefficient  Atom+Function  
  ----- ------------  ---------------      ----- ------------  ---------------
     6      1.084690  1 Ni s                  2     -0.451526  1 Ni s          
 
 Vector    7  Occ=1.000000D+00  E=-4.162243D+00  Symmetry=a1
              MO Center=  2.7D-16,  1.7D-16, -5.6D-16, r^2= 2.0D-01
   Bfn.  Coefficient  Atom+Function         Bfn.  Coefficient  Atom+Function  
  ----- ------------  ---------------      ----- ------------  ---------------
     9     -1.066464  1 Ni pz                 5      0.378734  1 Ni pz         
 
 Vector    8  Occ=1.000000D+00  E=-4.162241D+00  Symmetry=b2
              MO Center= -7.8D-26,  9.9D-17,  1.4D-17, r^2= 2.0D-01
   Bfn.  Coefficient  Atom+Function         Bfn.  Coefficient  Atom+Function  
  ----- ------------  ---------------      ----- ------------  ---------------
     8     -1.066464  1 Ni py                 4      0.378734  1 Ni py         
 
 Vector    9  Occ=1.000000D+00  E=-3.989540D+00  Symmetry=b1
              MO Center= -4.8D-18,  3.9D-28, -7.5D-18, r^2= 2.0D-01
   Bfn.  Coefficient  Atom+Function         Bfn.  Coefficient  Atom+Function  
  ----- ------------  ---------------      ----- ------------  ---------------
     7      1.065595  1 Ni px                 3     -0.377186  1 Ni px         
 
 Vector   10  Occ=1.000000D+00  E=-1.514508D+00  Symmetry=a1
              MO Center= -3.0D-17, -7.6D-17,  3.8D-16, r^2= 3.0D-01
   Bfn.  Coefficient  Atom+Function         Bfn.  Coefficient  Atom+Function  
  ----- ------------  ---------------      ----- ------------  ---------------
    20      0.663418  1 Ni d  0              22      0.383019  1 Ni d  2       
    25      0.356379  1 Ni d  0              27      0.205753  1 Ni d  2       
 
 Vector   11  Occ=1.000000D+00  E=-1.514458D+00  Symmetry=b2
              MO Center= -3.5D-18, -5.4D-17, -5.9D-17, r^2= 3.0D-01
   Bfn.  Coefficient  Atom+Function         Bfn.  Coefficient  Atom+Function  
  ----- ------------  ---------------      ----- ------------  ---------------
    19      0.766040  1 Ni d -1              24      0.411517  1 Ni d -1       
 
 Vector   12  Occ=1.000000D+00  E=-1.389779D+00  Symmetry=b1
              MO Center= -6.0D-17, -1.3D-17,  9.6D-17, r^2= 3.1D-01
   Bfn.  Coefficient  Atom+Function         Bfn.  Coefficient  Atom+Function  
  ----- ------------  ---------------      ----- ------------  ---------------
    21      0.752505  1 Ni d  1              26      0.428994  1 Ni d  1       
 
 Vector   13  Occ=1.000000D+00  E=-1.389779D+00  Symmetry=a2
              MO Center= -1.9D-16,  1.4D-16, -9.8D-18, r^2= 3.1D-01
   Bfn.  Coefficient  Atom+Function         Bfn.  Coefficient  Atom+Function  
  ----- ------------  ---------------      ----- ------------  ---------------
    18     -0.752505  1 Ni d -2              23     -0.428994  1 Ni d -2       
 
 Vector   14  Occ=1.000000D+00  E=-1.361589D+00  Symmetry=a1
              MO Center= -1.6D-18,  1.3D-17,  3.9D-16, r^2= 3.1D-01
   Bfn.  Coefficient  Atom+Function         Bfn.  Coefficient  Atom+Function  
  ----- ------------  ---------------      ----- ------------  ---------------
    22      0.648692  1 Ni d  2              27      0.374901  1 Ni d  2       
    20     -0.374517  1 Ni d  0              25     -0.216446  1 Ni d  0       
 
 Vector   15  Occ=0.000000D+00  E=-5.749616D-01  Symmetry=a1
              MO Center= -8.3D-18, -5.6D-15, -9.0D-15, r^2= 2.4D+00
   Bfn.  Coefficient  Atom+Function         Bfn.  Coefficient  Atom+Function  
  ----- ------------  ---------------      ----- ------------  ---------------
    10     -0.819817  1 Ni s                  6      0.257531  1 Ni s          
    14      0.238491  1 Ni s          
 
 Vector   16  Occ=0.000000D+00  E=-3.953456D-01  Symmetry=a1
              MO Center= -1.6D-16, -9.2D-17,  1.5D-14, r^2= 3.9D+00
   Bfn.  Coefficient  Atom+Function         Bfn.  Coefficient  Atom+Function  
  ----- ------------  ---------------      ----- ------------  ---------------
    13     -0.700593  1 Ni pz                17     -0.382217  1 Ni pz         
 
 Vector   17  Occ=0.000000D+00  E=-3.953454D-01  Symmetry=b2
              MO Center= -9.3D-17,  5.6D-15,  2.1D-17, r^2= 3.9D+00
   Bfn.  Coefficient  Atom+Function         Bfn.  Coefficient  Atom+Function  
  ----- ------------  ---------------      ----- ------------  ---------------
    12     -0.700593  1 Ni py                16     -0.382217  1 Ni py         
 
 Vector   18  Occ=0.000000D+00  E=-3.754501D-01  Symmetry=b1
              MO Center=  1.4D-17,  2.3D-18, -5.8D-18, r^2= 4.3D+00
   Bfn.  Coefficient  Atom+Function         Bfn.  Coefficient  Atom+Function  
  ----- ------------  ---------------      ----- ------------  ---------------
    11      0.623791  1 Ni px                15      0.464175  1 Ni px         
 
 Vector   19  Occ=0.000000D+00  E=-2.078639D-01  Symmetry=a1
              MO Center= -1.1D-17,  5.6D-15, -1.4D-15, r^2= 7.8D+00
   Bfn.  Coefficient  Atom+Function         Bfn.  Coefficient  Atom+Function  
  ----- ------------  ---------------      ----- ------------  ---------------
    14     -1.852640  1 Ni s                 10     -1.675001  1 Ni s          
 
 Vector   20  Occ=0.000000D+00  E=-1.367011D-01  Symmetry=a1
              MO Center= -2.5D-19,  3.6D-19, -4.5D-15, r^2= 8.9D+00
   Bfn.  Coefficient  Atom+Function         Bfn.  Coefficient  Atom+Function  
  ----- ------------  ---------------      ----- ------------  ---------------
    17      1.372692  1 Ni pz                13     -1.254526  1 Ni pz         
 
 Vector   21  Occ=0.000000D+00  E=-1.367010D-01  Symmetry=b2
              MO Center= -1.4D-17, -5.7D-15,  3.0D-17, r^2= 8.9D+00
   Bfn.  Coefficient  Atom+Function         Bfn.  Coefficient  Atom+Function  
  ----- ------------  ---------------      ----- ------------  ---------------
    16     -1.372692  1 Ni py                12      1.254526  1 Ni py         
 
 Vector   22  Occ=0.000000D+00  E=-1.188780D-01  Symmetry=b1
              MO Center= -8.1D-18, -2.1D-18, -3.0D-17, r^2= 8.5D+00
   Bfn.  Coefficient  Atom+Function         Bfn.  Coefficient  Atom+Function  
  ----- ------------  ---------------      ----- ------------  ---------------
    15     -1.347191  1 Ni px                11      1.294447  1 Ni px         
 
 Vector   23  Occ=0.000000D+00  E= 1.337257D+00  Symmetry=a1
              MO Center= -8.3D-18,  9.1D-16,  3.2D-16, r^2= 7.0D-01
   Bfn.  Coefficient  Atom+Function         Bfn.  Coefficient  Atom+Function  
  ----- ------------  ---------------      ----- ------------  ---------------
    25      0.868856  1 Ni d  0              20     -0.664676  1 Ni d  0       
    27      0.501626  1 Ni d  2              22     -0.383745  1 Ni d  2       
 
 Vector   24  Occ=0.000000D+00  E= 1.337285D+00  Symmetry=b2
              MO Center= -4.3D-16, -2.6D-16,  3.2D-16, r^2= 7.0D-01
   Bfn.  Coefficient  Atom+Function         Bfn.  Coefficient  Atom+Function  
  ----- ------------  ---------------      ----- ------------  ---------------
    24      1.003262  1 Ni d -1              19     -0.767504  1 Ni d -1       
 
 
                     DFT Final Beta Molecular Orbital Analysis
                     -----------------------------------------
 
 Vector    3  Occ=1.000000D+00  E=-3.362156D+01  Symmetry=b2
              MO Center=  9.8D-18,  1.9D-17,  3.6D-19, r^2= 1.6D-02
   Bfn.  Coefficient  Atom+Function         Bfn.  Coefficient  Atom+Function  
  ----- ------------  ---------------      ----- ------------  ---------------
     4     -0.997496  1 Ni py         
 
 Vector    4  Occ=1.000000D+00  E=-3.362156D+01  Symmetry=a1
              MO Center= -6.2D-28, -2.4D-29, -3.6D-18, r^2= 1.6D-02
   Bfn.  Coefficient  Atom+Function         Bfn.  Coefficient  Atom+Function  
  ----- ------------  ---------------      ----- ------------  ---------------
     5     -0.997496  1 Ni pz         
 
 Vector    5  Occ=1.000000D+00  E=-3.361875D+01  Symmetry=b1
              MO Center= -1.6D-17, -2.1D-18,  3.3D-18, r^2= 1.6D-02
   Bfn.  Coefficient  Atom+Function         Bfn.  Coefficient  Atom+Function  
  ----- ------------  ---------------      ----- ------------  ---------------
     3      0.996727  1 Ni px         
 
 Vector    6  Occ=1.000000D+00  E=-5.488698D+00  Symmetry=a1
              MO Center=  9.7D-18,  1.1D-18,  4.3D-17, r^2= 1.8D-01
   Bfn.  Coefficient  Atom+Function         Bfn.  Coefficient  Atom+Function  
  ----- ------------  ---------------      ----- ------------  ---------------
     6      1.084683  1 Ni s                  2     -0.449502  1 Ni s          
 
 Vector    7  Occ=1.000000D+00  E=-3.936892D+00  Symmetry=b1
              MO Center=  1.2D-16, -6.9D-16,  1.5D-16, r^2= 2.0D-01
   Bfn.  Coefficient  Atom+Function         Bfn.  Coefficient  Atom+Function  
  ----- ------------  ---------------      ----- ------------  ---------------
     7      1.065222  1 Ni px                 3     -0.376439  1 Ni px         
 
 Vector    8  Occ=1.000000D+00  E=-3.828964D+00  Symmetry=b2
              MO Center=  2.7D-16,  2.6D-17, -1.1D-16, r^2= 2.0D-01
   Bfn.  Coefficient  Atom+Function         Bfn.  Coefficient  Atom+Function  
  ----- ------------  ---------------      ----- ------------  ---------------
     8     -1.065593  1 Ni py                 4      0.374695  1 Ni py         
 
 Vector    9  Occ=1.000000D+00  E=-3.828963D+00  Symmetry=a1
              MO Center= -1.4D-28,  1.2D-27, -3.5D-17, r^2= 2.0D-01
   Bfn.  Coefficient  Atom+Function         Bfn.  Coefficient  Atom+Function  
  ----- ------------  ---------------      ----- ------------  ---------------
     9      1.065593  1 Ni pz                 5     -0.374695  1 Ni pz         
 
 Vector   10  Occ=1.000000D+00  E=-1.299060D+00  Symmetry=a2
              MO Center= -3.2D-16,  6.7D-16, -1.1D-17, r^2= 3.2D-01
   Bfn.  Coefficient  Atom+Function         Bfn.  Coefficient  Atom+Function  
  ----- ------------  ---------------      ----- ------------  ---------------
    18      0.739358  1 Ni d -2              23      0.445570  1 Ni d -2       
 
 Vector   11  Occ=1.000000D+00  E=-1.299060D+00  Symmetry=b1
              MO Center= -3.2D-16, -1.3D-17, -1.5D-16, r^2= 3.2D-01
   Bfn.  Coefficient  Atom+Function         Bfn.  Coefficient  Atom+Function  
  ----- ------------  ---------------      ----- ------------  ---------------
    21      0.739358  1 Ni d  1              26      0.445571  1 Ni d  1       
 
 Vector   12  Occ=1.000000D+00  E=-1.261337D+00  Symmetry=a1
              MO Center= -3.7D-16, -8.5D-17, -6.6D-17, r^2= 3.2D-01
   Bfn.  Coefficient  Atom+Function         Bfn.  Coefficient  Atom+Function  
  ----- ------------  ---------------      ----- ------------  ---------------
    22      0.636629  1 Ni d  2              27      0.390437  1 Ni d  2       
    20     -0.367555  1 Ni d  0              25     -0.225417  1 Ni d  0       
 
 Vector   13  Occ=0.000000D+00  E=-5.618396D-01  Symmetry=a1
              MO Center=  2.7D-17, -1.4D-16, -8.1D-16, r^2= 2.5D+00
   Bfn.  Coefficient  Atom+Function         Bfn.  Coefficient  Atom+Function  
  ----- ------------  ---------------      ----- ------------  ---------------
    10      0.781689  1 Ni s                 14     -0.280492  1 Ni s          
     6     -0.260916  1 Ni s          
 
 Vector   14  Occ=0.000000D+00  E=-4.618667D-01  Symmetry=b2
              MO Center=  3.2D-17, -1.1D-15,  1.5D-16, r^2= 3.9D-01
   Bfn.  Coefficient  Atom+Function         Bfn.  Coefficient  Atom+Function  
  ----- ------------  ---------------      ----- ------------  ---------------
    19     -0.651510  1 Ni d -1              24     -0.547419  1 Ni d -1       
 
 Vector   15  Occ=0.000000D+00  E=-4.609686D-01  Symmetry=a1
              MO Center=  5.0D-17, -1.6D-16, -7.5D-16, r^2= 3.9D-01
   Bfn.  Coefficient  Atom+Function         Bfn.  Coefficient  Atom+Function  
  ----- ------------  ---------------      ----- ------------  ---------------
    20      0.564107  1 Ni d  0              25      0.474208  1 Ni d  0       
    22      0.325687  1 Ni d  2              27      0.273779  1 Ni d  2       
 
 Vector   16  Occ=0.000000D+00  E=-3.849780D-01  Symmetry=a1
              MO Center=  1.3D-16,  1.4D-15, -9.7D-15, r^2= 4.2D+00
   Bfn.  Coefficient  Atom+Function         Bfn.  Coefficient  Atom+Function  
  ----- ------------  ---------------      ----- ------------  ---------------
    13     -0.646968  1 Ni pz                17     -0.439887  1 Ni pz         
 
 Vector   17  Occ=0.000000D+00  E=-3.849779D-01  Symmetry=b2
              MO Center= -9.3D-18,  1.2D-16, -2.3D-16, r^2= 4.2D+00
   Bfn.  Coefficient  Atom+Function         Bfn.  Coefficient  Atom+Function  
  ----- ------------  ---------------      ----- ------------  ---------------
    12     -0.646968  1 Ni py                16     -0.439887  1 Ni py         
 
 Vector   18  Occ=0.000000D+00  E=-3.743534D-01  Symmetry=b1
              MO Center=  3.0D-15,  7.6D-17, -1.6D-16, r^2= 4.4D+00
   Bfn.  Coefficient  Atom+Function         Bfn.  Coefficient  Atom+Function  
  ----- ------------  ---------------      ----- ------------  ---------------
    11     -0.616944  1 Ni px                15     -0.471290  1 Ni px         
 
 Vector   19  Occ=0.000000D+00  E=-2.026104D-01  Symmetry=a1
              MO Center= -2.8D-14,  3.0D-16, -1.8D-15, r^2= 7.7D+00
   Bfn.  Coefficient  Atom+Function         Bfn.  Coefficient  Atom+Function  
  ----- ------------  ---------------      ----- ------------  ---------------
    14      1.846829  1 Ni s                 10      1.693418  1 Ni s          
 
 Vector   20  Occ=0.000000D+00  E=-1.249323D-01  Symmetry=a1
              MO Center=  1.1D-16, -3.5D-16,  1.3D-14, r^2= 8.7D+00
   Bfn.  Coefficient  Atom+Function         Bfn.  Coefficient  Atom+Function  
  ----- ------------  ---------------      ----- ------------  ---------------
    17     -1.355332  1 Ni pz                13      1.283071  1 Ni pz         
 
 Vector   21  Occ=0.000000D+00  E=-1.249322D-01  Symmetry=b2
              MO Center=  2.5D-17,  4.9D-17,  1.8D-16, r^2= 8.7D+00
   Bfn.  Coefficient  Atom+Function         Bfn.  Coefficient  Atom+Function  
  ----- ------------  ---------------      ----- ------------  ---------------
    16      1.355332  1 Ni py                12     -1.283071  1 Ni py         
 
 Vector   22  Occ=0.000000D+00  E=-1.171744D-01  Symmetry=b1
              MO Center=  2.4D-14,  1.1D-16,  7.6D-17, r^2= 8.5D+00
   Bfn.  Coefficient  Atom+Function         Bfn.  Coefficient  Atom+Function  
  ----- ------------  ---------------      ----- ------------  ---------------
    15      1.344727  1 Ni px                11     -1.297748  1 Ni px         
 
 Vector   23  Occ=0.000000D+00  E= 1.454634D+00  Symmetry=a2
              MO Center=  5.6D-16, -7.0D-16, -8.8D-17, r^2= 6.8D-01
   Bfn.  Coefficient  Atom+Function         Bfn.  Coefficient  Atom+Function  
  ----- ------------  ---------------      ----- ------------  ---------------
    23     -0.988609  1 Ni d -2              18      0.793240  1 Ni d -2       
 
 Vector   24  Occ=0.000000D+00  E= 1.454634D+00  Symmetry=b1
              MO Center=  1.2D-16, -1.6D-16, -2.1D-16, r^2= 6.8D-01
   Bfn.  Coefficient  Atom+Function         Bfn.  Coefficient  Atom+Function  
  ----- ------------  ---------------      ----- ------------  ---------------
    26     -0.988609  1 Ni d  1              21      0.793241  1 Ni d  1       
 

   alpha - beta orbital overlaps 
   ----------------------------- 


   alpha      1      2      3      4      5      6      7      8      9     10
    beta      1      2      4      3      5      6      9      8      7     15
 overlap   1.000  1.000  1.000  1.000  1.000  1.000  1.000  1.000  1.000  0.990


   alpha     11     12     13     14     15     16     17     18     19     20
    beta     14     11     10     12     13     16     17     18     19     20
 overlap   0.990  1.000  1.000  0.999  1.000  0.999  0.999  1.000  1.000  0.999


   alpha     21     22     23     24     25     26     27     28     29     30
    beta     21     22     27     26     24     23     25     33     34     29
 overlap   0.999  1.000  0.990  0.990  1.000  1.000  1.000  1.000  1.000  1.000


   alpha     31     32     33     34
    beta     28     30     31     32
 overlap   1.000  1.000  1.000  1.000

     --------------------------
     Expectation value of S2:  
     --------------------------
      <S2> =      2.0012 (Exact =     2.0000)
 

 Parallel integral file used       2 records with       0 large values


 Task  times  cpu:        1.5s     wall:        1.7s
 
 
                                NWChem Input Module
                                -------------------
 
 
                                 NWChem DFT Module
                                 -----------------
 
 
                                   old bq input
 
 
  Caching 1-el integrals 
 
            General Information
            -------------------
          SCF calculation type: DFT
          Wavefunction type:  spin polarized.
          No. of atoms     :     1
          No. of electrons :    26
           Alpha electrons :    12
            Beta electrons :    14
          Charge           :     2
          Spin multiplicity:    -3
          Use of symmetry is: on ; symmetry adaption is: on 
          Maximum number of iterations:  30
          AO basis - number of functions:    34
                     number of shells:    12
          Convergence on energy requested: 1.00D-06
          Convergence on density requested: 1.00D-05
          Convergence on gradient requested: 5.00D-04
 
              XC Information
              --------------
                     Hartree-Fock (Exact) Exchange  1.000          
  WARNING: Sum of local correlation is   0.000000000000000E+000
  Sum of components do not equal unity. 
 
          Convergence Information
          -----------------------
          Convergence aids based upon iterative change in 
          total energy or number of iterations. 
          Levelshifting, if invoked, occurs when the 
          HOMO/LUMO gap drops below (HL_TOL): 1.00D-02
          DIIS, if invoked, will attempt to extrapolate 
          using up to (NFOCK): 10 stored Fock matrices.

                    Damping( 0%)  Levelshifting(0.5)       DIIS
                  --------------- ------------------- ---------------
          dE  on:    start            ASAP                start   
          dE off:    2 iters         30 iters            30 iters 

 
      Screening Tolerance Information
      -------------------------------
          Density screening/tol_rho: 1.00D-10
          AO Gaussian exp screening on grid/accAOfunc:  14
          CD Gaussian exp screening on grid/accCDfunc:  20
          XC Gaussian exp screening on grid/accXCfunc:  20
          Schwarz screening/accCoul: 1.00D-08
          Spatial weight screening/radius(au): 1.77D+01

 
      Superposition of Atomic Density Guess
      -------------------------------------
 
 Sum of atomic energies:       -1506.56882330

 Renormalizing density from      28.00 to     26
 
      Non-variational initial energy
      ------------------------------

 Total energy =   -1437.216411
 1-e energy   =   -1944.026627
 2-e energy   =     506.810216
 HOMO         =      -2.674106
 LUMO         =      -2.674106
 

 !!!!!!!!!!!!!!!!!!!!!!!!!!!!!!!!!!!!!!!!!!!!!!!!!!!!!!!!!!!!!!!!!!!!!!
 Warning - the HOMO and LUMO are degenerate and you are using symmetry.
 This can lead to non-variational energies and poor convergence.
 Modify the initial guess, or use an open-shell wavefunction, or turn
 off symmetry.
 !!!!!!!!!!!!!!!!!!!!!!!!!!!!!!!!!!!!!!!!!!!!!!!!!!!!!!!!!!!!!!!!!!!!!!

 
   Symmetry analysis of molecular orbitals - initial alpha
   -------------------------------------------------------
 

 !! scf_movecs_sym_adapt:   29 vectors were symmetry contaminated

  Symmetry fudging

 !! scf_movecs_sym_adapt:   29 vectors were symmetry contaminated

  Numbering of irreducible representations: 
 
     1 a1          2 a2          3 b1          4 b2      
 
  Orbital symmetries:
 
     1 a1          2 a1          3 b2          4 b1          5 a1      
     6 a1          7 b2          8 b1          9 a1         10 a1      
    11 a1         12 a2         13 b1         14 b2         15 a1      
    16 a1         17 b2         18 b1         19 a1         20 b2      
    21 b1         22 a1      
 
 
   Symmetry analysis of molecular orbitals - initial beta
   ------------------------------------------------------
 

 !! scf_movecs_sym_adapt:   29 vectors were symmetry contaminated

  Symmetry fudging

 !! scf_movecs_sym_adapt:   29 vectors were symmetry contaminated

  Numbering of irreducible representations: 
 
     1 a1          2 a2          3 b1          4 b2      
 
  Orbital symmetries:
 
     1 a1          2 a1          3 b2          4 b1          5 a1      
     6 a1          7 b2          8 b1          9 a1         10 a1      
    11 a1         12 a2         13 b1         14 b2         15 a1      
    16 a1         17 b2         18 b1         19 a1         20 b2      
    21 b1         22 a1      
 
   Time after variat. SCF:      2.3
   Time prior to 1st pass:      2.3

 #quartets = 3.081D+03 #integrals = 2.369D+04 #direct =  0.0% #cached =100.0%


 Integral file          = ./bq_nio.aoints.0
 Record size in doubles =  65536        No. of integs per rec  =  43688
 Max. records in memory =      2        Max. records in file   =  28571
 No. of bits per label  =      8        No. of bits per value  =     64


File balance: exchanges=     0  moved=     0  time=   0.0


 !! scf_movecs_sym_adapt:   22 vectors were symmetry contaminated

  Symmetry fudging

 !! scf_movecs_sym_adapt:   18 vectors were symmetry contaminated


 !! scf_movecs_sym_adapt:   12 vectors were symmetry contaminated

  Symmetry fudging

 !! scf_movecs_sym_adapt:    6 vectors were symmetry contaminated


           Memory utilization after 1st SCF pass: 
           Heap Space remaining (MW):       12.97            12972425
          Stack Space remaining (MW):       13.11            13106827

   convergence    iter        energy       DeltaE   RMS-Dens  Diis-err    time
 ---------------- ----- ----------------- --------- --------- ---------  ------
 d= 0,ls=0.0,diis     1  -1504.5392144811 -1.50D+03  2.72D-02  3.73D+00     2.8
                                                     3.10D-02  5.23D+00

 !! scf_movecs_sym_adapt:   14 vectors were symmetry contaminated

  Symmetry fudging

 !! scf_movecs_sym_adapt:    8 vectors were symmetry contaminated


 !! scf_movecs_sym_adapt:   20 vectors were symmetry contaminated

  Symmetry fudging

 !! scf_movecs_sym_adapt:   16 vectors were symmetry contaminated

 d= 0,ls=0.0,diis     2  -1505.3667262153 -8.28D-01  9.55D-03  1.63D+00     2.9
                                                     1.07D-02  2.26D+00

 !! scf_movecs_sym_adapt:   14 vectors were symmetry contaminated

  Symmetry fudging

 !! scf_movecs_sym_adapt:   10 vectors were symmetry contaminated


 !! scf_movecs_sym_adapt:   14 vectors were symmetry contaminated

  Symmetry fudging

 !! scf_movecs_sym_adapt:    8 vectors were symmetry contaminated

 d= 0,ls=0.0,diis     3  -1505.7648677287 -3.98D-01  2.26D-04  4.06D-04     2.9
                                                     1.93D-04  3.96D-04

 !! scf_movecs_sym_adapt:   20 vectors were symmetry contaminated

  Symmetry fudging

 !! scf_movecs_sym_adapt:   16 vectors were symmetry contaminated


 !! scf_movecs_sym_adapt:   16 vectors were symmetry contaminated

  Symmetry fudging

 !! scf_movecs_sym_adapt:   10 vectors were symmetry contaminated

 d= 0,ls=0.0,diis     4  -1505.7649595072 -9.18D-05  4.72D-05  6.03D-06     2.9
                                                     3.60D-05  1.36D-06

 !! scf_movecs_sym_adapt:   18 vectors were symmetry contaminated

  Symmetry fudging

 !! scf_movecs_sym_adapt:   14 vectors were symmetry contaminated


 !! scf_movecs_sym_adapt:   16 vectors were symmetry contaminated

  Symmetry fudging

 !! scf_movecs_sym_adapt:   10 vectors were symmetry contaminated

 d= 0,ls=0.0,diis     5  -1505.7649623143 -2.81D-06  3.89D-05  7.21D-07     3.0
                                                     3.15D-05  3.89D-07

 !! scf_movecs_sym_adapt:   20 vectors were symmetry contaminated

  Symmetry fudging

 !! scf_movecs_sym_adapt:   18 vectors were symmetry contaminated


 !! scf_movecs_sym_adapt:   16 vectors were symmetry contaminated

  Symmetry fudging

 !! scf_movecs_sym_adapt:   14 vectors were symmetry contaminated

 d= 0,ls=0.0,diis     6  -1505.7649631412 -8.27D-07  9.54D-06  2.99D-08     3.0
                                                     7.31D-06  2.13D-08


         Total DFT energy =    -1505.764963141178
      One electron energy =    -2073.596616035466
           Coulomb energy =      629.263929463975
    Exchange-Corr. energy =      -61.432276569687
 Nuclear repulsion energy =        0.000000000000

 Numeric. integr. density =        0.000000000000

     Total iterative time =      0.7s


 
                    DFT Final Alpha Molecular Orbital Analysis
                    ------------------------------------------
 
 Vector    6  Occ=1.000000D+00  E=-5.485335D+00  Symmetry=a1
              MO Center=  6.7D-19,  1.1D-18,  1.1D-16, r^2= 1.8D-01
   Bfn.  Coefficient  Atom+Function         Bfn.  Coefficient  Atom+Function  
  ----- ------------  ---------------      ----- ------------  ---------------
     6     -1.084669  1 Ni s                  2      0.449519  1 Ni s          
 
 Vector    7  Occ=1.000000D+00  E=-3.880130D+00  Symmetry=b1
              MO Center=  6.9D-22, -2.6D-35,  4.4D-17, r^2= 2.0D-01
   Bfn.  Coefficient  Atom+Function         Bfn.  Coefficient  Atom+Function  
  ----- ------------  ---------------      ----- ------------  ---------------
     7     -1.065350  1 Ni px                 3      0.375570  1 Ni px         
 
 Vector    8  Occ=1.000000D+00  E=-3.880130D+00  Symmetry=b2
              MO Center=  1.0D-34,  7.0D-22, -3.9D-17, r^2= 2.0D-01
   Bfn.  Coefficient  Atom+Function         Bfn.  Coefficient  Atom+Function  
  ----- ------------  ---------------      ----- ------------  ---------------
     8      1.065350  1 Ni py                 4     -0.375570  1 Ni py         
 
 Vector    9  Occ=1.000000D+00  E=-3.827275D+00  Symmetry=a1
              MO Center=  1.3D-19,  2.4D-19,  3.3D-17, r^2= 2.0D-01
   Bfn.  Coefficient  Atom+Function         Bfn.  Coefficient  Atom+Function  
  ----- ------------  ---------------      ----- ------------  ---------------
     9      1.065467  1 Ni pz                 5     -0.374696  1 Ni pz         
 
 Vector   10  Occ=1.000000D+00  E=-1.372757D+00  Symmetry=a1
              MO Center= -3.5D-18,  1.2D-17, -3.4D-16, r^2= 3.1D-01
   Bfn.  Coefficient  Atom+Function         Bfn.  Coefficient  Atom+Function  
  ----- ------------  ---------------      ----- ------------  ---------------
    20     -0.746875  1 Ni d  0              25     -0.436140  1 Ni d  0       
 
 Vector   11  Occ=1.000000D+00  E=-1.295716D+00  Symmetry=a1
              MO Center= -1.2D-33, -4.4D-33,  3.8D-17, r^2= 3.2D-01
   Bfn.  Coefficient  Atom+Function         Bfn.  Coefficient  Atom+Function  
  ----- ------------  ---------------      ----- ------------  ---------------
    22      0.738746  1 Ni d  2              27      0.446333  1 Ni d  2       
 
 Vector   12  Occ=1.000000D+00  E=-1.295716D+00  Symmetry=a2
              MO Center=  5.4D-34,  1.1D-33,  4.5D-17, r^2= 3.2D-01
   Bfn.  Coefficient  Atom+Function         Bfn.  Coefficient  Atom+Function  
  ----- ------------  ---------------      ----- ------------  ---------------
    18     -0.738746  1 Ni d -2              23     -0.446333  1 Ni d -2       
 
 Vector   13  Occ=0.000000D+00  E=-5.612557D-01  Symmetry=a1
              MO Center= -1.1D-17, -8.9D-18,  3.6D-17, r^2= 2.5D+00
   Bfn.  Coefficient  Atom+Function         Bfn.  Coefficient  Atom+Function  
  ----- ------------  ---------------      ----- ------------  ---------------
    10     -0.779933  1 Ni s                 14      0.282437  1 Ni s          
     6      0.261037  1 Ni s          
 
 Vector   14  Occ=0.000000D+00  E=-4.082579D-01  Symmetry=b1
              MO Center=  3.8D-22, -5.3D-36,  1.2D-16, r^2= 4.0D-01
   Bfn.  Coefficient  Atom+Function         Bfn.  Coefficient  Atom+Function  
  ----- ------------  ---------------      ----- ------------  ---------------
    21     -0.643366  1 Ni d  1              26     -0.556159  1 Ni d  1       
 
 Vector   15  Occ=0.000000D+00  E=-4.082579D-01  Symmetry=b2
              MO Center=  7.6D-36,  7.5D-22,  1.9D-16, r^2= 4.0D-01
   Bfn.  Coefficient  Atom+Function         Bfn.  Coefficient  Atom+Function  
  ----- ------------  ---------------      ----- ------------  ---------------
    19      0.643366  1 Ni d -1              24      0.556159  1 Ni d -1       
 
 Vector   16  Occ=0.000000D+00  E=-3.847487D-01  Symmetry=a1
              MO Center=  8.8D-17, -7.7D-17,  3.2D-15, r^2= 4.2D+00
   Bfn.  Coefficient  Atom+Function         Bfn.  Coefficient  Atom+Function  
  ----- ------------  ---------------      ----- ------------  ---------------
    13      0.645594  1 Ni pz                17      0.441330  1 Ni pz         
 
 Vector   17  Occ=0.000000D+00  E=-3.793607D-01  Symmetry=b2
              MO Center= -5.0D-37,  1.6D-21, -3.6D-16, r^2= 4.3D+00
   Bfn.  Coefficient  Atom+Function         Bfn.  Coefficient  Atom+Function  
  ----- ------------  ---------------      ----- ------------  ---------------
    12      0.630631  1 Ni py                16      0.457056  1 Ni py         
 
 Vector   18  Occ=0.000000D+00  E=-3.793607D-01  Symmetry=b1
              MO Center=  3.4D-21,  7.2D-35, -1.9D-16, r^2= 4.3D+00
   Bfn.  Coefficient  Atom+Function         Bfn.  Coefficient  Atom+Function  
  ----- ------------  ---------------      ----- ------------  ---------------
    11      0.630631  1 Ni px                15      0.457056  1 Ni px         
 
 Vector   19  Occ=0.000000D+00  E=-2.023555D-01  Symmetry=a1
              MO Center=  4.3D-16,  3.4D-16,  1.6D-14, r^2= 7.7D+00
   Bfn.  Coefficient  Atom+Function         Bfn.  Coefficient  Atom+Function  
  ----- ------------  ---------------      ----- ------------  ---------------
    14      1.846552  1 Ni s                 10      1.694295  1 Ni s          
 
 Vector   20  Occ=0.000000D+00  E=-1.246361D-01  Symmetry=a1
              MO Center=  1.6D-17,  1.5D-17, -1.9D-14, r^2= 8.6D+00
   Bfn.  Coefficient  Atom+Function         Bfn.  Coefficient  Atom+Function  
  ----- ------------  ---------------      ----- ------------  ---------------
    17      1.354855  1 Ni pz                13     -1.283735  1 Ni pz         
 
 Vector   21  Occ=0.000000D+00  E=-1.207436D-01  Symmetry=b2
              MO Center= -1.4D-31, -3.3D-16, -3.7D-17, r^2= 8.6D+00
   Bfn.  Coefficient  Atom+Function         Bfn.  Coefficient  Atom+Function  
  ----- ------------  ---------------      ----- ------------  ---------------
    16      1.349643  1 Ni py                12     -1.291191  1 Ni py         
 
 Vector   22  Occ=0.000000D+00  E=-1.207436D-01  Symmetry=b1
              MO Center= -4.2D-16, -1.5D-31,  5.4D-16, r^2= 8.6D+00
   Bfn.  Coefficient  Atom+Function         Bfn.  Coefficient  Atom+Function  
  ----- ------------  ---------------      ----- ------------  ---------------
    15     -1.349643  1 Ni px                11      1.291191  1 Ni px         
 
 Vector   23  Occ=0.000000D+00  E= 1.413978D+00  Symmetry=a1
              MO Center= -1.2D-17,  1.6D-16, -3.0D-15, r^2= 6.9D-01
   Bfn.  Coefficient  Atom+Function         Bfn.  Coefficient  Atom+Function  
  ----- ------------  ---------------      ----- ------------  ---------------
    25     -0.992791  1 Ni d  0              20      0.786155  1 Ni d  0       
 
 
                     DFT Final Beta Molecular Orbital Analysis
                     -----------------------------------------
 
 Vector    6  Occ=1.000000D+00  E=-5.681713D+00  Symmetry=a1
              MO Center=  3.7D-17, -9.8D-16,  5.9D-16, r^2= 1.8D-01
   Bfn.  Coefficient  Atom+Function         Bfn.  Coefficient  Atom+Function  
  ----- ------------  ---------------      ----- ------------  ---------------
     6     -1.084951  1 Ni s                  2      0.451587  1 Ni s          
 
 Vector    7  Occ=1.000000D+00  E=-4.156877D+00  Symmetry=a1
              MO Center=  1.0D-17, -1.6D-16,  1.9D-16, r^2= 2.0D-01
   Bfn.  Coefficient  Atom+Function         Bfn.  Coefficient  Atom+Function  
  ----- ------------  ---------------      ----- ------------  ---------------
     9      1.066434  1 Ni pz                 5     -0.378703  1 Ni pz         
 
 Vector    8  Occ=1.000000D+00  E=-4.071281D+00  Symmetry=b1
              MO Center= -3.6D-17, -1.5D-32, -1.2D-17, r^2= 2.0D-01
   Bfn.  Coefficient  Atom+Function         Bfn.  Coefficient  Atom+Function  
  ----- ------------  ---------------      ----- ------------  ---------------
     7      1.066012  1 Ni px                 3     -0.377944  1 Ni px         
 
 Vector    9  Occ=1.000000D+00  E=-4.071281D+00  Symmetry=b2
              MO Center=  3.6D-31,  9.6D-16, -8.5D-17, r^2= 2.0D-01
   Bfn.  Coefficient  Atom+Function         Bfn.  Coefficient  Atom+Function  
  ----- ------------  ---------------      ----- ------------  ---------------
     8      1.066012  1 Ni py                 4     -0.377944  1 Ni py         
 
 Vector   10  Occ=1.000000D+00  E=-1.472487D+00  Symmetry=b2
              MO Center= -2.0D-17,  7.5D-17, -4.0D-16, r^2= 3.0D-01
   Bfn.  Coefficient  Atom+Function         Bfn.  Coefficient  Atom+Function  
  ----- ------------  ---------------      ----- ------------  ---------------
    19      0.761222  1 Ni d -1              24      0.417788  1 Ni d -1       
 
 Vector   11  Occ=1.000000D+00  E=-1.472487D+00  Symmetry=b1
              MO Center= -2.5D-18, -3.8D-17,  9.2D-17, r^2= 3.0D-01
   Bfn.  Coefficient  Atom+Function         Bfn.  Coefficient  Atom+Function  
  ----- ------------  ---------------      ----- ------------  ---------------
    21     -0.761222  1 Ni d  1              26     -0.417788  1 Ni d  1       
 
 Vector   12  Occ=1.000000D+00  E=-1.433947D+00  Symmetry=a1
              MO Center=  1.8D-17,  9.3D-17, -9.4D-16, r^2= 3.1D-01
   Bfn.  Coefficient  Atom+Function         Bfn.  Coefficient  Atom+Function  
  ----- ------------  ---------------      ----- ------------  ---------------
    20      0.756514  1 Ni d  0              25      0.423733  1 Ni d  0       
 
 Vector   13  Occ=1.000000D+00  E=-1.385704D+00  Symmetry=a1
              MO Center= -3.8D-32, -1.3D-32,  4.0D-17, r^2= 3.1D-01
   Bfn.  Coefficient  Atom+Function         Bfn.  Coefficient  Atom+Function  
  ----- ------------  ---------------      ----- ------------  ---------------
    22     -0.751609  1 Ni d  2              27     -0.430137  1 Ni d  2       
 
 Vector   14  Occ=1.000000D+00  E=-1.385704D+00  Symmetry=a2
              MO Center= -1.2D-34, -6.2D-31,  7.3D-17, r^2= 3.1D-01
   Bfn.  Coefficient  Atom+Function         Bfn.  Coefficient  Atom+Function  
  ----- ------------  ---------------      ----- ------------  ---------------
    18      0.751609  1 Ni d -2              23      0.430137  1 Ni d -2       
 
 Vector   15  Occ=0.000000D+00  E=-5.744183D-01  Symmetry=a1
              MO Center= -5.8D-17,  7.1D-16, -2.2D-16, r^2= 2.4D+00
   Bfn.  Coefficient  Atom+Function         Bfn.  Coefficient  Atom+Function  
  ----- ------------  ---------------      ----- ------------  ---------------
    10     -0.818336  1 Ni s                  6      0.257987  1 Ni s          
    14      0.240251  1 Ni s          
 
 Vector   16  Occ=0.000000D+00  E=-3.952618D-01  Symmetry=a1
              MO Center= -1.4D-17,  5.2D-16,  5.8D-16, r^2= 3.9D+00
   Bfn.  Coefficient  Atom+Function         Bfn.  Coefficient  Atom+Function  
  ----- ------------  ---------------      ----- ------------  ---------------
    13     -0.699930  1 Ni pz                17     -0.382957  1 Ni pz         
 
 Vector   17  Occ=0.000000D+00  E=-3.850184D-01  Symmetry=b1
              MO Center=  5.9D-17, -9.3D-32, -1.7D-18, r^2= 4.1D+00
   Bfn.  Coefficient  Atom+Function         Bfn.  Coefficient  Atom+Function  
  ----- ------------  ---------------      ----- ------------  ---------------
    11      0.661871  1 Ni px                15      0.424064  1 Ni px         
 
 Vector   18  Occ=0.000000D+00  E=-3.850184D-01  Symmetry=b2
              MO Center=  1.7D-31, -1.0D-15, -2.8D-16, r^2= 4.1D+00
   Bfn.  Coefficient  Atom+Function         Bfn.  Coefficient  Atom+Function  
  ----- ------------  ---------------      ----- ------------  ---------------
    12      0.661871  1 Ni py                16      0.424064  1 Ni py         
 
 Vector   19  Occ=0.000000D+00  E=-2.076098D-01  Symmetry=a1
              MO Center=  2.2D-15,  9.8D-15,  1.9D-14, r^2= 7.8D+00
   Bfn.  Coefficient  Atom+Function         Bfn.  Coefficient  Atom+Function  
  ----- ------------  ---------------      ----- ------------  ---------------
    14     -1.852490  1 Ni s                 10     -1.676001  1 Ni s          
 
 Vector   20  Occ=0.000000D+00  E=-1.365323D-01  Symmetry=a1
              MO Center= -1.3D-16, -8.1D-17, -1.9D-14, r^2= 8.9D+00
   Bfn.  Coefficient  Atom+Function         Bfn.  Coefficient  Atom+Function  
  ----- ------------  ---------------      ----- ------------  ---------------
    17      1.372501  1 Ni pz                13     -1.254947  1 Ni pz         
 
 Vector   21  Occ=0.000000D+00  E=-1.278224D-01  Symmetry=b1
              MO Center= -2.2D-15, -2.1D-30, -2.2D-16, r^2= 8.7D+00
   Bfn.  Coefficient  Atom+Function         Bfn.  Coefficient  Atom+Function  
  ----- ------------  ---------------      ----- ------------  ---------------
    15      1.360360  1 Ni px                11     -1.275429  1 Ni px         
 
 Vector   22  Occ=0.000000D+00  E=-1.278224D-01  Symmetry=b2
              MO Center=  3.0D-31, -9.5D-15, -6.0D-16, r^2= 8.7D+00
   Bfn.  Coefficient  Atom+Function         Bfn.  Coefficient  Atom+Function  
  ----- ------------  ---------------      ----- ------------  ---------------
    16      1.360360  1 Ni py                12     -1.275429  1 Ni py         
 
 Vector   23  Occ=0.000000D+00  E= 1.364388D+00  Symmetry=b1
              MO Center=  1.4D-16,  2.3D-32,  3.7D-16, r^2= 7.0D-01
   Bfn.  Coefficient  Atom+Function         Bfn.  Coefficient  Atom+Function  
  ----- ------------  ---------------      ----- ------------  ---------------
    26     -1.000667  1 Ni d  1              21      0.772283  1 Ni d  1       
 

   alpha - beta orbital overlaps 
   ----------------------------- 


   alpha      1      2      3      4      5      6      7      8      9     10
    beta      1      2      3      4      5      6      8      9      7     12
 overlap   1.000  1.000  1.000  1.000  1.000  1.000  1.000  1.000  1.000  1.000


   alpha     11     12     13     14     15     16     17     18     19     20
    beta     13     14     15     11     10     16     18     17     19     20
 overlap   1.000  1.000  1.000  0.990  0.990  0.999  1.000  1.000  1.000  0.999


   alpha     21     22     23     24     25     26     27     28     29     30
    beta     22     21     25     26     27     23     24     32     34     33
 overlap   1.000  1.000  1.000  1.000  1.000  0.990  0.990  1.000  1.000  1.000


   alpha     31     32     33     34
    beta     28     29     30     31
 overlap   1.000  1.000  1.000  1.000

     --------------------------
     Expectation value of S2:  
     --------------------------
      <S2> =      2.0013 (Exact =     0.0000)
 

 Parallel integral file used       2 records with       0 large values


 Task  times  cpu:        1.5s     wall:        1.6s
 
 
                                NWChem Input Module
                                -------------------
 
 
                                 NWChem DFT Module
                                 -----------------
 
 
                                   old bq input
 
 
  Caching 1-el integrals 
 
            General Information
            -------------------
          SCF calculation type: DFT
          Wavefunction type:  spin polarized.
          No. of atoms     :     1
          No. of electrons :    10
           Alpha electrons :     5
            Beta electrons :     5
          Charge           :    -2
          Spin multiplicity:     1
          Use of symmetry is: on ; symmetry adaption is: on 
          Maximum number of iterations:  30
          AO basis - number of functions:    14
                     number of shells:     6
          Convergence on energy requested: 1.00D-06
          Convergence on density requested: 1.00D-05
          Convergence on gradient requested: 5.00D-04
 
              XC Information
              --------------
                     Hartree-Fock (Exact) Exchange  1.000          
  WARNING: Sum of local correlation is   0.000000000000000E+000
  Sum of components do not equal unity. 
 
          Convergence Information
          -----------------------
          Convergence aids based upon iterative change in 
          total energy or number of iterations. 
          Levelshifting, if invoked, occurs when the 
          HOMO/LUMO gap drops below (HL_TOL): 1.00D-02
          DIIS, if invoked, will attempt to extrapolate 
          using up to (NFOCK): 10 stored Fock matrices.

                    Damping( 0%)  Levelshifting(0.5)       DIIS
                  --------------- ------------------- ---------------
          dE  on:    start            ASAP                start   
          dE off:    2 iters         30 iters            30 iters 

 
      Screening Tolerance Information
      -------------------------------
          Density screening/tol_rho: 1.00D-10
          AO Gaussian exp screening on grid/accAOfunc:  14
          CD Gaussian exp screening on grid/accCDfunc:  20
          XC Gaussian exp screening on grid/accXCfunc:  20
          Schwarz screening/accCoul: 1.00D-08
          Spatial weight screening/radius(au): 9.16D+00

 
      Superposition of Atomic Density Guess
      -------------------------------------
 
 Sum of atomic energies:         -74.75435223

 Renormalizing density from       8.00 to     10
 
      Non-variational initial energy
      ------------------------------

 Total energy =     -83.768979
 1-e energy   =    -128.988803
 2-e energy   =      45.219824
 HOMO         =       0.923700
 LUMO         =       2.565982
 
 
   Symmetry analysis of molecular orbitals - initial alpha
   -------------------------------------------------------
 

 !! scf_movecs_sym_adapt:   11 vectors were symmetry contaminated

  Symmetry fudging

 !! scf_movecs_sym_adapt:   11 vectors were symmetry contaminated

  Numbering of irreducible representations: 
 
     1 a1          2 a2          3 b1          4 b2      
 
  Orbital symmetries:
 
     1 a1          2 a1          3 a1          4 b2          5 b1      
     6 a1          7 b2          8 b1          9 a1         10 a1      
    11 a1         12 b2         13 b1         14 a2      
 
 
   Symmetry analysis of molecular orbitals - initial beta
   ------------------------------------------------------
 

 !! scf_movecs_sym_adapt:   11 vectors were symmetry contaminated

  Symmetry fudging

 !! scf_movecs_sym_adapt:   11 vectors were symmetry contaminated

  Numbering of irreducible representations: 
 
     1 a1          2 a2          3 b1          4 b2      
 
  Orbital symmetries:
 
     1 a1          2 a1          3 a1          4 b2          5 b1      
     6 a1          7 b2          8 b1          9 a1         10 a1      
    11 a1         12 b2         13 b1         14 a2      
 
   Time after variat. SCF:      3.0
   Time prior to 1st pass:      3.0

 #quartets = 2.310D+02 #integrals = 1.077D+03 #direct =  0.0% #cached =100.0%


 Integral file          = ./bq_nio.aoints.0
 Record size in doubles =  65536        No. of integs per rec  =  43688
 Max. records in memory =      2        Max. records in file   =  28571
 No. of bits per label  =      8        No. of bits per value  =     64


File balance: exchanges=     0  moved=     0  time=   0.0


 !! scf_movecs_sym_adapt:   11 vectors were symmetry contaminated

  Symmetry fudging

 !! scf_movecs_sym_adapt:   11 vectors were symmetry contaminated


 !! scf_movecs_sym_adapt:   10 vectors were symmetry contaminated

  Symmetry fudging

 !! scf_movecs_sym_adapt:    9 vectors were symmetry contaminated


           Memory utilization after 1st SCF pass: 
           Heap Space remaining (MW):       12.97            12974531
          Stack Space remaining (MW):       13.11            13106985

   convergence    iter        energy       DeltaE   RMS-Dens  Diis-err    time
 ---------------- ----- ----------------- --------- --------- ---------  ------
 d= 0,ls=0.0,diis     1    -73.5786189500 -7.36D+01  6.68D-02  1.58D+00     3.1
                                                     6.68D-02  1.58D+00

 !! scf_movecs_sym_adapt:    9 vectors were symmetry contaminated

  Symmetry fudging

 !! scf_movecs_sym_adapt:    7 vectors were symmetry contaminated


 !! scf_movecs_sym_adapt:    8 vectors were symmetry contaminated

  Symmetry fudging

 !! scf_movecs_sym_adapt:    8 vectors were symmetry contaminated

 d= 0,ls=0.0,diis     2    -73.9719481306 -3.93D-01  2.48D-02  5.88D-01     3.1
                                                     2.48D-02  5.88D-01

 !! scf_movecs_sym_adapt:    8 vectors were symmetry contaminated

  Symmetry fudging

 !! scf_movecs_sym_adapt:    8 vectors were symmetry contaminated


 !! scf_movecs_sym_adapt:    9 vectors were symmetry contaminated

  Symmetry fudging

 !! scf_movecs_sym_adapt:    9 vectors were symmetry contaminated

 d= 0,ls=0.0,diis     3    -74.1879931784 -2.16D-01  2.89D-04  5.09D-05     3.1
                                                     2.89D-04  5.09D-05

 !! scf_movecs_sym_adapt:    8 vectors were symmetry contaminated

  Symmetry fudging

 !! scf_movecs_sym_adapt:    8 vectors were symmetry contaminated


 !! scf_movecs_sym_adapt:    8 vectors were symmetry contaminated

  Symmetry fudging

 !! scf_movecs_sym_adapt:    6 vectors were symmetry contaminated

 d= 0,ls=0.0,diis     4    -74.1880100733 -1.69D-05  5.80D-05  1.03D-06     3.1
                                                     5.80D-05  1.03D-06

 !! scf_movecs_sym_adapt:    8 vectors were symmetry contaminated

  Symmetry fudging

 !! scf_movecs_sym_adapt:    8 vectors were symmetry contaminated


 !! scf_movecs_sym_adapt:    8 vectors were symmetry contaminated

  Symmetry fudging

 !! scf_movecs_sym_adapt:    8 vectors were symmetry contaminated

 d= 0,ls=0.0,diis     5    -74.1880106333 -5.60D-07  1.10D-05  5.77D-08     3.1
                                                     1.10D-05  5.77D-08

 !! scf_movecs_sym_adapt:    8 vectors were symmetry contaminated

  Symmetry fudging

 !! scf_movecs_sym_adapt:    6 vectors were symmetry contaminated


 !! scf_movecs_sym_adapt:    8 vectors were symmetry contaminated

  Symmetry fudging

 !! scf_movecs_sym_adapt:    8 vectors were symmetry contaminated

 d= 0,ls=0.0,diis     6    -74.1880106554 -2.20D-08  6.64D-08  4.36D-12     3.1
                                                     6.64D-08  4.36D-12


         Total DFT energy =      -74.188010655351
      One electron energy =     -111.475330219164
           Coulomb energy =       46.122367325706
    Exchange-Corr. energy =       -8.835047761893
 Nuclear repulsion energy =        0.000000000000

 Numeric. integr. density =        0.000000000000

     Total iterative time =      0.1s


 
                    DFT Final Alpha Molecular Orbital Analysis
                    ------------------------------------------
 
 Vector    2  Occ=1.000000D+00  E=-2.467179D-01  Symmetry=a1
              MO Center= -6.7D-17,  2.5D-32, -3.8D-17, r^2= 5.2D-01
   Bfn.  Coefficient  Atom+Function         Bfn.  Coefficient  Atom+Function  
  ----- ------------  ---------------      ----- ------------  ---------------
     6      0.645058  1 O  s                  2      0.440585  1 O  s          
     1     -0.224701  1 O  s          
 
 Vector    3  Occ=1.000000D+00  E= 4.585879D-01  Symmetry=b2
              MO Center= -2.3D-49, -9.2D-33, -3.3D-17, r^2= 7.3D-01
   Bfn.  Coefficient  Atom+Function         Bfn.  Coefficient  Atom+Function  
  ----- ------------  ---------------      ----- ------------  ---------------
     8      0.614838  1 O  py                 4      0.538437  1 O  py         
 
 Vector    4  Occ=1.000000D+00  E= 4.585879D-01  Symmetry=a1
              MO Center=  1.6D-36, -4.3D-36,  4.2D-17, r^2= 7.3D-01
   Bfn.  Coefficient  Atom+Function         Bfn.  Coefficient  Atom+Function  
  ----- ------------  ---------------      ----- ------------  ---------------
     9      0.614838  1 O  pz                 5      0.538437  1 O  pz         
 
 Vector    5  Occ=1.000000D+00  E= 4.585879D-01  Symmetry=b1
              MO Center=  1.2D-16,  3.3D-18, -9.7D-18, r^2= 7.3D-01
   Bfn.  Coefficient  Atom+Function         Bfn.  Coefficient  Atom+Function  
  ----- ------------  ---------------      ----- ------------  ---------------
     7     -0.614838  1 O  px                 3     -0.538437  1 O  px         
 
 Vector    6  Occ=0.000000D+00  E= 2.054752D+00  Symmetry=b1
              MO Center=  3.5D-15, -6.8D-19, -1.3D-18, r^2= 1.0D+00
   Bfn.  Coefficient  Atom+Function         Bfn.  Coefficient  Atom+Function  
  ----- ------------  ---------------      ----- ------------  ---------------
     3     -1.022806  1 O  px                 7      0.978785  1 O  px         
 
 Vector    7  Occ=0.000000D+00  E= 2.054752D+00  Symmetry=b2
              MO Center= -1.0D-39, -2.7D-32, -3.1D-17, r^2= 1.0D+00
   Bfn.  Coefficient  Atom+Function         Bfn.  Coefficient  Atom+Function  
  ----- ------------  ---------------      ----- ------------  ---------------
     4     -1.022806  1 O  py                 8      0.978785  1 O  py         
 
 Vector    8  Occ=0.000000D+00  E= 2.054752D+00  Symmetry=a1
              MO Center=  1.0D-32, -3.7D-34, -4.5D-16, r^2= 1.0D+00
   Bfn.  Coefficient  Atom+Function         Bfn.  Coefficient  Atom+Function  
  ----- ------------  ---------------      ----- ------------  ---------------
     5      1.022806  1 O  pz                 9     -0.978785  1 O  pz         
 
 Vector    9  Occ=0.000000D+00  E= 2.135484D+00  Symmetry=a1
              MO Center= -3.4D-15, -2.5D-33,  3.8D-16, r^2= 9.6D-01
   Bfn.  Coefficient  Atom+Function         Bfn.  Coefficient  Atom+Function  
  ----- ------------  ---------------      ----- ------------  ---------------
     2     -1.507570  1 O  s                  6      1.408394  1 O  s          
 
 Vector   10  Occ=0.000000D+00  E= 3.033147D+00  Symmetry=a1
              MO Center= -1.6D-19, -4.8D-34,  8.4D-17, r^2= 6.1D-01
   Bfn.  Coefficient  Atom+Function         Bfn.  Coefficient  Atom+Function  
  ----- ------------  ---------------      ----- ------------  ---------------
    12      0.996836  1 O  d  0       
 
 Vector   11  Occ=0.000000D+00  E= 3.033147D+00  Symmetry=a1
              MO Center= -1.1D-16,  8.1D-34, -1.4D-17, r^2= 6.1D-01
   Bfn.  Coefficient  Atom+Function         Bfn.  Coefficient  Atom+Function  
  ----- ------------  ---------------      ----- ------------  ---------------
    14      0.996836  1 O  d  2       
 
 Vector   12  Occ=0.000000D+00  E= 3.033147D+00  Symmetry=a2
              MO Center= -8.4D-34, -2.6D-18, -1.1D-33, r^2= 6.1D-01
   Bfn.  Coefficient  Atom+Function         Bfn.  Coefficient  Atom+Function  
  ----- ------------  ---------------      ----- ------------  ---------------
    10      1.000000  1 O  d -2       
 
 Vector   13  Occ=0.000000D+00  E= 3.033147D+00  Symmetry=b2
              MO Center=  6.3D-34,  9.3D-33,  6.4D-17, r^2= 6.1D-01
   Bfn.  Coefficient  Atom+Function         Bfn.  Coefficient  Atom+Function  
  ----- ------------  ---------------      ----- ------------  ---------------
    11     -1.000000  1 O  d -1       
 
 Vector   14  Occ=0.000000D+00  E= 3.033147D+00  Symmetry=b1
              MO Center= -5.5D-34, -4.8D-33,  1.1D-17, r^2= 6.1D-01
   Bfn.  Coefficient  Atom+Function         Bfn.  Coefficient  Atom+Function  
  ----- ------------  ---------------      ----- ------------  ---------------
    13      1.000000  1 O  d  1       
 
 
                     DFT Final Beta Molecular Orbital Analysis
                     -----------------------------------------
 
 Vector    2  Occ=1.000000D+00  E=-2.467179D-01  Symmetry=a1
              MO Center= -2.1D-31, -1.9D-33, -6.3D-16, r^2= 5.2D-01
   Bfn.  Coefficient  Atom+Function         Bfn.  Coefficient  Atom+Function  
  ----- ------------  ---------------      ----- ------------  ---------------
     6     -0.645058  1 O  s                  2     -0.440585  1 O  s          
     1      0.224701  1 O  s          
 
 Vector    3  Occ=1.000000D+00  E= 4.585879D-01  Symmetry=b2
              MO Center=  2.7D-50,  4.8D-33, -4.5D-17, r^2= 7.3D-01
   Bfn.  Coefficient  Atom+Function         Bfn.  Coefficient  Atom+Function  
  ----- ------------  ---------------      ----- ------------  ---------------
     8     -0.614838  1 O  py                 4     -0.538437  1 O  py         
 
 Vector    4  Occ=1.000000D+00  E= 4.585879D-01  Symmetry=b1
              MO Center=  1.6D-31,  1.1D-36, -2.9D-19, r^2= 7.3D-01
   Bfn.  Coefficient  Atom+Function         Bfn.  Coefficient  Atom+Function  
  ----- ------------  ---------------      ----- ------------  ---------------
     7     -0.614838  1 O  px                 3     -0.538437  1 O  px         
 
 Vector    5  Occ=1.000000D+00  E= 4.585879D-01  Symmetry=a1
              MO Center= -2.1D-16,  3.3D-17,  7.5D-16, r^2= 7.3D-01
   Bfn.  Coefficient  Atom+Function         Bfn.  Coefficient  Atom+Function  
  ----- ------------  ---------------      ----- ------------  ---------------
     9     -0.614838  1 O  pz                 5     -0.538437  1 O  pz         
 
 Vector    6  Occ=0.000000D+00  E= 2.054752D+00  Symmetry=b2
              MO Center= -1.7D-39,  2.0D-32, -2.8D-17, r^2= 1.0D+00
   Bfn.  Coefficient  Atom+Function         Bfn.  Coefficient  Atom+Function  
  ----- ------------  ---------------      ----- ------------  ---------------
     4      1.022806  1 O  py                 8     -0.978785  1 O  py         
 
 Vector    7  Occ=0.000000D+00  E= 2.054752D+00  Symmetry=b1
              MO Center= -2.8D-33,  4.9D-38,  1.7D-17, r^2= 1.0D+00
   Bfn.  Coefficient  Atom+Function         Bfn.  Coefficient  Atom+Function  
  ----- ------------  ---------------      ----- ------------  ---------------
     3      1.022806  1 O  px                 7     -0.978785  1 O  px         
 
 Vector    8  Occ=0.000000D+00  E= 2.054752D+00  Symmetry=a1
              MO Center= -4.2D-17, -2.1D-18, -5.2D-15, r^2= 1.0D+00
   Bfn.  Coefficient  Atom+Function         Bfn.  Coefficient  Atom+Function  
  ----- ------------  ---------------      ----- ------------  ---------------
     5      1.022806  1 O  pz                 9     -0.978785  1 O  pz         
 
 Vector    9  Occ=0.000000D+00  E= 2.135484D+00  Symmetry=a1
              MO Center= -2.8D-31,  2.9D-31,  5.1D-15, r^2= 9.6D-01
   Bfn.  Coefficient  Atom+Function         Bfn.  Coefficient  Atom+Function  
  ----- ------------  ---------------      ----- ------------  ---------------
     2     -1.507570  1 O  s                  6      1.408394  1 O  s          
 
 Vector   10  Occ=0.000000D+00  E= 3.033147D+00  Symmetry=a1
              MO Center=  1.8D-34, -4.5D-34, -1.2D-17, r^2= 6.1D-01
   Bfn.  Coefficient  Atom+Function         Bfn.  Coefficient  Atom+Function  
  ----- ------------  ---------------      ----- ------------  ---------------
    12     -0.996588  1 O  d  0       
 
 Vector   11  Occ=0.000000D+00  E= 3.033147D+00  Symmetry=a1
              MO Center= -8.1D-34, -2.1D-33,  4.9D-18, r^2= 6.1D-01
   Bfn.  Coefficient  Atom+Function         Bfn.  Coefficient  Atom+Function  
  ----- ------------  ---------------      ----- ------------  ---------------
    14     -0.996588  1 O  d  2       
 
 Vector   12  Occ=0.000000D+00  E= 3.033147D+00  Symmetry=b1
              MO Center=  2.5D-16, -2.6D-34, -1.7D-17, r^2= 6.1D-01
   Bfn.  Coefficient  Atom+Function         Bfn.  Coefficient  Atom+Function  
  ----- ------------  ---------------      ----- ------------  ---------------
    13      1.000000  1 O  d  1       
 
 Vector   13  Occ=0.000000D+00  E= 3.033147D+00  Symmetry=a2
              MO Center= -2.0D-33,  9.1D-34,  2.3D-33, r^2= 6.1D-01
   Bfn.  Coefficient  Atom+Function         Bfn.  Coefficient  Atom+Function  
  ----- ------------  ---------------      ----- ------------  ---------------
    10     -1.000000  1 O  d -2       
 
 Vector   14  Occ=0.000000D+00  E= 3.033147D+00  Symmetry=b2
              MO Center=  1.9D-33, -3.1D-17,  7.3D-17, r^2= 6.1D-01
   Bfn.  Coefficient  Atom+Function         Bfn.  Coefficient  Atom+Function  
  ----- ------------  ---------------      ----- ------------  ---------------
    11     -1.000000  1 O  d -1       
 

   alpha - beta orbital overlaps 
   ----------------------------- 


   alpha      1      2      3      4      5      6      7      8      9     10
    beta      1      2      3      5      4      7      6      8      9     10
 overlap   1.000  1.000  1.000  1.000  1.000  1.000  1.000  1.000  1.000  1.000


   alpha     11     12     13     14
    beta     11     13     14     12
 overlap   1.000  1.000  1.000  1.000

     --------------------------
     Expectation value of S2:  
     --------------------------
      <S2> =      0.0000 (Exact =     0.0000)
 

 Parallel integral file used       2 records with       0 large values


 Task  times  cpu:        0.2s     wall:        0.3s
 
 
                                NWChem Input Module
                                -------------------
 
 
                                 NWChem DFT Module
                                 -----------------
 
 
                                   old bq input
 
 
  Caching 1-el integrals 
 
            General Information
            -------------------
          SCF calculation type: DFT
          Wavefunction type:  spin polarized.
          No. of atoms     :    17
          No. of electrons :    62
           Alpha electrons :    31
            Beta electrons :    31
          Charge           :   -10
          Spin multiplicity:     1
          Use of symmetry is: on ; symmetry adaption is: on 
          Maximum number of iterations:  30
          AO basis - number of functions:    82
                     number of shells:    30
          Convergence on energy requested: 1.00D-06
          Convergence on density requested: 1.00D-05
          Convergence on gradient requested: 5.00D-04
 
              XC Information
              --------------
                     Hartree-Fock (Exact) Exchange  1.000          
  WARNING: Sum of local correlation is   0.000000000000000E+000
  Sum of components do not equal unity. 
 
          Convergence Information
          -----------------------
          Convergence aids based upon iterative change in 
          total energy or number of iterations. 
          Levelshifting, if invoked, occurs when the 
          HOMO/LUMO gap drops below (HL_TOL): 1.00D-02
          DIIS, if invoked, will attempt to extrapolate 
          using up to (NFOCK): 10 stored Fock matrices.

                    Damping( 0%)  Levelshifting(0.5)       DIIS
                  --------------- ------------------- ---------------
          dE  on:    start            ASAP                start   
          dE off:    2 iters         30 iters            30 iters 

 
      Screening Tolerance Information
      -------------------------------
          Density screening/tol_rho: 1.00D-10
          AO Gaussian exp screening on grid/accAOfunc:  14
          CD Gaussian exp screening on grid/accCDfunc:  20
          XC Gaussian exp screening on grid/accXCfunc:  20
          Schwarz screening/accCoul: 1.00D-08
          Spatial weight screening/radius(au): 2.96D+01

 
   Fragment Molecular Orbital Initial Guess
   ----------------------------------------
 
 title    old bq input
 basis    ao basis
 scftype  dft                 
 nbf          14
 nsets         2
 nmo          14
 nclosed       0
 nopen         5
 nvirtual      9

 title    old bq input
 basis    ao basis
 scftype  dft                 
 nbf          34
 nsets         2
 nmo          34
 nclosed       0
 nopen        14
 nvirtual     20

 title    old bq input
 basis    ao basis
 scftype  dft                 
 nbf          34
 nsets         2
 nmo          34
 nclosed       0
 nopen        12
 nvirtual     22

 
   Fragment Molecular Orbital Initial Guess
   ----------------------------------------
 
 title    old bq input
 basis    ao basis
 scftype  dft                 
 nbf          14
 nsets         2
 nmo          14
 nclosed       0
 nopen         5
 nvirtual      9

 title    old bq input
 basis    ao basis
 scftype  dft                 
 nbf          34
 nsets         2
 nmo          34
 nclosed       0
[...]
  ----- ------------  ---------------      ----- ------------  ---------------
    29      1.112347  2 Ni px                63     -1.106189  3 Ni px         
    25     -0.510913  2 Ni px                59      0.492296  3 Ni px         
 
 Vector   39  Occ=0.000000D+00  E= 1.601272D+00  Symmetry=a1
              MO Center=  3.2D-17,  3.5D-15,  1.6D+00, r^2= 1.9D+01
   Bfn.  Coefficient  Atom+Function         Bfn.  Coefficient  Atom+Function  
  ----- ------------  ---------------      ----- ------------  ---------------
    31      1.557819  2 Ni pz                65      1.176509  3 Ni pz         
    27     -0.775497  2 Ni pz                62      0.432262  3 Ni s          
    61     -0.334054  3 Ni pz                24     -0.284755  2 Ni s          
    28     -0.222968  2 Ni s                  9     -0.177140  1 O  pz         
 
 Vector   40  Occ=0.000000D+00  E= 1.605188D+00  Symmetry=a1
              MO Center= -8.2D-15,  6.7D-15, -1.5D+00, r^2= 9.5D+00
   Bfn.  Coefficient  Atom+Function         Bfn.  Coefficient  Atom+Function  
  ----- ------------  ---------------      ----- ------------  ---------------
    65      1.047476  3 Ni pz                61     -0.714845  3 Ni pz         
    24      0.454127  2 Ni s                 28     -0.414617  2 Ni s          
    58      0.397875  3 Ni s                 27      0.294455  2 Ni pz         
     6      0.191054  1 O  s                  2      0.175870  1 O  s          
    20     -0.155133  2 Ni s          
 
 Vector   41  Occ=0.000000D+00  E= 1.652040D+00  Symmetry=a1
              MO Center= -7.0D-15,  5.2D-15,  5.4D-02, r^2= 8.1D+00
   Bfn.  Coefficient  Atom+Function         Bfn.  Coefficient  Atom+Function  
  ----- ------------  ---------------      ----- ------------  ---------------
    62     -1.334785  3 Ni s                 31     -0.772464  2 Ni pz         
    28      0.690972  2 Ni s                 65     -0.426523  3 Ni pz         
    24     -0.314692  2 Ni s                  5     -0.277855  1 O  pz         
    58     -0.271593  3 Ni s                 54     -0.195140  3 Ni s          
     9     -0.183099  1 O  pz                20      0.182437  2 Ni s          
 
 
                     DFT Final Beta Molecular Orbital Analysis
                     -----------------------------------------
 
 Vector   20  Occ=1.000000D+00  E= 3.464813D-03  Symmetry=a1
              MO Center=  9.8D-17, -2.5D-17, -1.0D-02, r^2= 5.5D-01
   Bfn.  Coefficient  Atom+Function         Bfn.  Coefficient  Atom+Function  
  ----- ------------  ---------------      ----- ------------  ---------------
     6      0.599384  1 O  s                  2      0.458253  1 O  s          
     1     -0.223361  1 O  s          
 
 Vector   21  Occ=1.000000D+00  E= 3.641344D-01  Symmetry=b1
              MO Center= -1.9D-17,  1.9D-17, -2.1D+00, r^2= 2.9D-01
   Bfn.  Coefficient  Atom+Function         Bfn.  Coefficient  Atom+Function  
  ----- ------------  ---------------      ----- ------------  ---------------
    69     -0.797951  3 Ni d  1              74     -0.364856  3 Ni d  1       
 
 Vector   22  Occ=1.000000D+00  E= 3.641687D-01  Symmetry=b2
              MO Center=  2.9D-17, -2.7D-18, -2.1D+00, r^2= 2.8D-01
   Bfn.  Coefficient  Atom+Function         Bfn.  Coefficient  Atom+Function  
  ----- ------------  ---------------      ----- ------------  ---------------
    67     -0.797960  3 Ni d -1              72     -0.364872  3 Ni d -1       
 
 Vector   23  Occ=1.000000D+00  E= 3.721897D-01  Symmetry=a1
              MO Center= -1.5D-17, -2.4D-17, -2.1D+00, r^2= 2.7D-01
   Bfn.  Coefficient  Atom+Function         Bfn.  Coefficient  Atom+Function  
  ----- ------------  ---------------      ----- ------------  ---------------
    70      0.807137  3 Ni d  2              75      0.355593  3 Ni d  2       
 
 Vector   24  Occ=1.000000D+00  E= 4.137852D-01  Symmetry=a1
              MO Center= -3.0D-17,  6.1D-17, -2.0D+00, r^2= 4.2D-01
   Bfn.  Coefficient  Atom+Function         Bfn.  Coefficient  Atom+Function  
  ----- ------------  ---------------      ----- ------------  ---------------
    68     -0.785303  3 Ni d  0              73     -0.362239  3 Ni d  0       
 
 Vector   25  Occ=1.000000D+00  E= 4.214391D-01  Symmetry=a2
              MO Center= -1.1D-16, -7.1D-17, -2.1D+00, r^2= 2.7D-01
   Bfn.  Coefficient  Atom+Function         Bfn.  Coefficient  Atom+Function  
  ----- ------------  ---------------      ----- ------------  ---------------
    66     -0.797399  3 Ni d -2              71     -0.369234  3 Ni d -2       
 
 Vector   26  Occ=1.000000D+00  E= 5.622694D-01  Symmetry=b1
              MO Center=  2.4D-17, -6.1D-16,  2.1D+00, r^2= 3.7D-01
   Bfn.  Coefficient  Atom+Function         Bfn.  Coefficient  Atom+Function  
  ----- ------------  ---------------      ----- ------------  ---------------
    35      0.768462  2 Ni d  1              40      0.392373  2 Ni d  1       
 
 Vector   27  Occ=1.000000D+00  E= 5.680496D-01  Symmetry=a2
              MO Center= -1.1D-16,  7.0D-16,  2.1D+00, r^2= 2.9D-01
   Bfn.  Coefficient  Atom+Function         Bfn.  Coefficient  Atom+Function  
  ----- ------------  ---------------      ----- ------------  ---------------
    32      0.780462  2 Ni d -2              37      0.392345  2 Ni d -2       
 
 Vector   28  Occ=1.000000D+00  E= 7.206503D-01  Symmetry=b2
              MO Center=  4.5D-17,  6.1D-16, -1.0D-04, r^2= 9.5D-01
   Bfn.  Coefficient  Atom+Function         Bfn.  Coefficient  Atom+Function  
  ----- ------------  ---------------      ----- ------------  ---------------
     8     -0.596740  1 O  py                 4     -0.524394  1 O  py         
 
 Vector   29  Occ=1.000000D+00  E= 7.235031D-01  Symmetry=b1
              MO Center= -9.6D-16, -8.0D-19,  2.9D-02, r^2= 1.0D+00
   Bfn.  Coefficient  Atom+Function         Bfn.  Coefficient  Atom+Function  
  ----- ------------  ---------------      ----- ------------  ---------------
     7     -0.590463  1 O  px                 3     -0.524923  1 O  px         
 
 Vector   30  Occ=1.000000D+00  E= 7.285833D-01  Symmetry=a1
              MO Center= -2.5D-16,  5.9D-17, -3.0D-02, r^2= 9.4D-01
   Bfn.  Coefficient  Atom+Function         Bfn.  Coefficient  Atom+Function  
  ----- ------------  ---------------      ----- ------------  ---------------
     5      0.550993  1 O  pz                 9      0.511453  1 O  pz         
 
 Vector   31  Occ=1.000000D+00  E= 9.858625D-01  Symmetry=a1
              MO Center=  9.0D-16, -1.3D-15,  1.4D-03, r^2= 7.8D+00
   Bfn.  Coefficient  Atom+Function         Bfn.  Coefficient  Atom+Function  
  ----- ------------  ---------------      ----- ------------  ---------------
    65      0.658367  3 Ni pz                31     -0.655154  2 Ni pz         
    62      0.635897  3 Ni s                 28      0.631941  2 Ni s          
    58      0.507943  3 Ni s                 24      0.500514  2 Ni s          
     6     -0.347845  1 O  s                 61     -0.310616  3 Ni pz         
    27      0.305845  2 Ni pz         
 
 Vector   32  Occ=0.000000D+00  E= 1.351301D+00  Symmetry=b2
              MO Center=  1.3D-18, -6.5D-16, -1.5D-02, r^2= 1.3D+01
   Bfn.  Coefficient  Atom+Function         Bfn.  Coefficient  Atom+Function  
  ----- ------------  ---------------      ----- ------------  ---------------
    64     -0.861348  3 Ni py                30     -0.851349  2 Ni py         
    60      0.467797  3 Ni py                26      0.458656  2 Ni py         
     4      0.173647  1 O  py         
 
 Vector   33  Occ=0.000000D+00  E= 1.352179D+00  Symmetry=b1
              MO Center= -2.5D-15,  1.0D-17, -3.5D-02, r^2= 1.3D+01
   Bfn.  Coefficient  Atom+Function         Bfn.  Coefficient  Atom+Function  
  ----- ------------  ---------------      ----- ------------  ---------------
    63      0.866764  3 Ni px                29      0.845514  2 Ni px         
    59     -0.470891  3 Ni px                25     -0.453268  2 Ni px         
     3     -0.176383  1 O  px         
 
 Vector   34  Occ=0.000000D+00  E= 1.494797D+00  Symmetry=b2
              MO Center=  4.6D-19,  8.8D-17,  2.0D+00, r^2= 6.9D-01
   Bfn.  Coefficient  Atom+Function         Bfn.  Coefficient  Atom+Function  
  ----- ------------  ---------------      ----- ------------  ---------------
    33     -0.679315  2 Ni d -1              38     -0.502570  2 Ni d -1       
 
 Vector   35  Occ=0.000000D+00  E= 1.503522D+00  Symmetry=a1
              MO Center=  1.5D-16, -3.6D-16,  1.9D+00, r^2= 1.1D+00
   Bfn.  Coefficient  Atom+Function         Bfn.  Coefficient  Atom+Function  
  ----- ------------  ---------------      ----- ------------  ---------------
    34     -0.607955  2 Ni d  0              39     -0.435827  2 Ni d  0       
    36     -0.292955  2 Ni d  2              41     -0.206787  2 Ni d  2       
    62     -0.186866  3 Ni s                 31     -0.180113  2 Ni pz         
    28      0.155744  2 Ni s          
 
 Vector   36  Occ=0.000000D+00  E= 1.564038D+00  Symmetry=b2
              MO Center= -2.6D-17,  1.3D-14,  5.1D-02, r^2= 1.7D+01
   Bfn.  Coefficient  Atom+Function         Bfn.  Coefficient  Atom+Function  
  ----- ------------  ---------------      ----- ------------  ---------------
    30      1.124990  2 Ni py                64     -1.120339  3 Ni py         
    60      0.520184  3 Ni py                26     -0.507167  2 Ni py         
 
 Vector   37  Occ=0.000000D+00  E= 1.564131D+00  Symmetry=b1
              MO Center= -1.6D-14,  1.0D-17,  3.5D-02, r^2= 1.7D+01
   Bfn.  Coefficient  Atom+Function         Bfn.  Coefficient  Atom+Function  
  ----- ------------  ---------------      ----- ------------  ---------------
    29      1.134758  2 Ni px                63     -1.125768  3 Ni px         
    59      0.525144  3 Ni px                25     -0.518138  2 Ni px         
 
 Vector   38  Occ=0.000000D+00  E= 1.581669D+00  Symmetry=a1
              MO Center=  3.2D-15, -2.6D-15,  1.9D+00, r^2= 1.5D+00
   Bfn.  Coefficient  Atom+Function         Bfn.  Coefficient  Atom+Function  
  ----- ------------  ---------------      ----- ------------  ---------------
    36     -0.610855  2 Ni d  2              41     -0.448859  2 Ni d  2       
    31      0.290052  2 Ni pz                34      0.237965  2 Ni d  0       
    62      0.204004  3 Ni s                 39      0.183999  2 Ni d  0       
    58     -0.159728  3 Ni s          
 
 Vector   39  Occ=0.000000D+00  E= 1.600449D+00  Symmetry=a1
              MO Center=  8.5D-15, -6.4D-15, -1.9D+00, r^2= 1.7D+01
   Bfn.  Coefficient  Atom+Function         Bfn.  Coefficient  Atom+Function  
  ----- ------------  ---------------      ----- ------------  ---------------
    65      1.527407  3 Ni pz                31      1.046594  2 Ni pz         
    61     -0.802391  3 Ni pz                28     -0.443541  2 Ni s          
    58      0.343166  3 Ni s                 27     -0.255662  2 Ni pz         
     9     -0.177842  1 O  pz                62      0.171443  3 Ni s          
 
 Vector   40  Occ=0.000000D+00  E= 1.608350D+00  Symmetry=a1
              MO Center=  4.4D-15, -1.5D-15,  2.0D+00, r^2= 8.8D+00
   Bfn.  Coefficient  Atom+Function         Bfn.  Coefficient  Atom+Function  
  ----- ------------  ---------------      ----- ------------  ---------------
    31      1.113740  2 Ni pz                27     -0.726292  2 Ni pz         
    58     -0.409529  3 Ni s                 62      0.359342  3 Ni s          
    24     -0.333078  2 Ni s                 65      0.265367  3 Ni pz         
    61      0.182182  3 Ni pz                 6     -0.170957  1 O  s          
    28      0.163568  2 Ni s                 34     -0.153987  2 Ni d  0       
 
 Vector   41  Occ=0.000000D+00  E= 1.657003D+00  Symmetry=a1
              MO Center=  6.4D-16,  2.6D-16, -2.1D-01, r^2= 1.0D+01
   Bfn.  Coefficient  Atom+Function         Bfn.  Coefficient  Atom+Function  
  ----- ------------  ---------------      ----- ------------  ---------------
    28      1.407660  2 Ni s                 65     -0.808274  3 Ni pz         
    58      0.640186  3 Ni s                 24      0.531107  2 Ni s          
     5     -0.256545  1 O  pz                31     -0.216404  2 Ni pz         
    62     -0.210127  3 Ni s                  9     -0.163615  1 O  pz         
    20      0.159337  2 Ni s                 54     -0.152889  3 Ni s          
 
 Bq nuclear interaction energy is  -131.893864709209     

   alpha - beta orbital overlaps 
   ----------------------------- 


   alpha      1      2      3      4      5      6      7      8      9     10
    beta      1      2      4      3      8      9     10      7      6      5
 overlap   1.000  1.000  1.000  1.000  1.000  1.000  1.000  1.000  1.000  1.000


   alpha     11     12     13     14     15     16     17     18     19     20
    beta     11     13     12     18     19     17     14     16     15     20
 overlap   1.000  1.000  1.000  1.000  1.000  1.000  1.000  1.000  1.000  0.999


   alpha     21     22     23     24     25     26     27     28     29     30
    beta     34     35     38     26     27     24     25     28     29     30
 overlap   0.977  0.944  0.939  0.998  1.000  0.992  1.000  0.991  0.993  0.969


   alpha     31     32     33     34     35     36     37     38     39     40
    beta     31     32     33     22     21     23     36     37     40     39
 overlap   0.999  0.998  0.999  0.966  0.967  0.989  0.979  0.985  0.765  0.780


   alpha     41     42     43     44     45     46     47     48     49     50
    beta     42     41     43     44     45     46     47     48     49     51
 overlap   0.776  0.771  0.988  0.734  0.840  0.735  0.841  0.871  0.871  0.997


   alpha     51     52     53     54     55     56     57     58     59     60
    beta     50     52     53     54     56     55     57     58     62     65
 overlap   0.999  0.943  0.921  0.970  0.909  0.960  0.988  0.996  0.988  0.983


   alpha     61     62     63     64     65     66     67     68     69     70
    beta     59     66     64     60     63     61     70     67     73     76
 overlap   0.987  0.900  0.790  0.982  0.897  0.751  0.940  0.954  0.999  0.993


   alpha     71     72     73     74     75     76     77     78     79     80
    beta     80     77     78     79     68     72     71     69     75     74
 overlap   0.804  0.888  0.963  0.726  0.999  0.961  0.890  0.999  0.852  0.741


   alpha     81     82
    beta     81     82
 overlap   0.967  0.972

     --------------------------
     Expectation value of S2:  
     --------------------------
      <S2> =      3.0036 (Exact =     0.0000)
 

 center of mass
 --------------
 x =   0.00000000 y =   0.00000000 z =   0.00000000

 moments of inertia (a.u.)
 ------------------
        1824.775817269211           0.000000000000           0.000000000000
           0.000000000000        1824.775817269211           0.000000000000
           0.000000000000           0.000000000000           0.000000000000
 
     Multipole analysis of the density
     ---------------------------------
 
     L   x y z        total         alpha         beta         nuclear
     -   - - -        -----         -----         ----         -------
     0   0 0 0      2.000000    -31.000000    -31.000000     64.000000
 
     1   1 0 0      0.000000      0.000000      0.000000      0.000000
     1   0 1 0      0.000000      0.000000      0.000000      0.000000
     1   0 0 1     -0.050668    -11.874522     11.823854      0.000000
 
     2   2 0 0    -36.042935    -17.917687    -18.125249      0.000000
     2   1 1 0      0.000000      0.000000      0.000000      0.000000
     2   1 0 1      0.000000      0.000000      0.000000      0.000000
     2   0 2 0    -35.738021    -17.909826    -17.828195      0.000000
     2   0 1 1      0.000000      0.000000      0.000000      0.000000
     2   0 0 2     63.456172   -409.216421   -409.237449    881.910042
 

 Parallel integral file used      18 records with       0 large values


 Task  times  cpu:        5.8s     wall:        6.1s
 
 
                                NWChem Input Module
                                -------------------
 
 
 hdbm needs www www 
 Summary of allocated global arrays
-----------------------------------
  No active global arrays



                         GA Statistics for process    0
                         ------------------------------

       create   destroy   get      put      acc     scatter   gather  read&inc
calls: 2892     2892     9.53e+04 3.86e+04 5297        0        0        0     
number of processes/call 1.02e+00 1.03e+00 1.21e+00 0.00e+00 0.00e+00
bytes total:             2.36e+08 1.13e+08 9.29e+07 0.00e+00 0.00e+00 0.00e+00
bytes remote:            3.21e+07 9.44e+06 1.73e+07 0.00e+00 0.00e+00 0.00e+00
Max memory consumed for GA by this process: 3173728 bytes
 



                                  ACKNOWLEDGEMENT
                                  ---------------

            Please use the following acknowledgement where appropriate 
            for results obtained with NWChem:

            High Performance Computational Chemistry Group, "NWChem, A
            Computational Chemistry Package for Parallel Computers, 
            Version 4.7" (2005), Pacific Northwest National Laboratory,
            Richland, Washington 99352-0999, USA.


                                     CITATION
                                     --------

            Please use the following citation when publishing results
            obtained with NWChem:

            E. Apra, T. L. Windus, T. P. Straatsma, E. J. Bylaska, W. de Jong,
            S. Hirata, M. Valiev, M. T. Hackler, L. Pollack, K. Kowalski,
            R. J. Harrison, M. Dupuis, D. M. A. Smith, J. Nieplocha,
            V. Tipparaju, M. Krishnan, A. A. Auer, E. Brown, G. Cisneros,
            G. I. Fann, H. Fruchtl, J. Garza, K. Hirao, R. Kendall,
            J. A. Nichols, K. Tsemekhman, K. Wolinski, J. Anchell, D. Bernholdt,
            P. Borowski, T. Clark, D. Clerc, H. Dachsel, M. Deegan, K. Dyall,
            D. Elwood, E. Glendening, M. Gutowski, A. Hess, J. Jaffe, B. Johnson,
            J. Ju, R. Kobayashi, R. Kutteh, Z. Lin, R. Littlefield, X. Long,
            B. Meng, T. Nakajima, S. Niu, M. Rosing, G. Sandrone, M. Stave,
            H. Taylor, G. Thomas, J. van Lenthe, A. Wong, and Z. Zhang,
            "NWChem, A Computational Chemistry Package for Parallel Computers, 
            Version 4.7" (2005),
                      Pacific Northwest National Laboratory,
                      Richland, Washington 99352-0999, USA.


       Aggregate GFloating-point ops:      13.34
        Aggregate GFLOPS (Real_time):       0.83
        Aggregate GFLOPS (Proc_time):       0.93
                    Average   GFLOPS:       0.41
                    Max       GFLOPS:       0.47
                    Min       GFLOPS:       0.36

 Total times  cpu:       14.6s     wall:       16.2s
MA_summarize_allocated_blocks: starting scan ...
heap block 'bq:default:charge', handle 10, address 0xd621800:
	type of elements:		double precision
	number of elements:		14
	address of client space:	0xd621858
	index for client space:		6586268
	total number of bytes:		208
heap block 'bq:default:coord', handle 9, address 0xd621650:
	type of elements:		double precision
	number of elements:		42
	address of client space:	0xd6216a8
	index for client space:		6586214
	total number of bytes:		432
MA_summarize_allocated_blocks: scan completed: 2 heap blocks, 0 stack blocks
MA usage statistics:

	allocation statistics:
					      heap	     stack
					      ----	     -----
	current number of blocks	         2	         0
	maximum number of blocks	        22	        19
	current total bytes		       640	         0
	maximum total bytes		  16293328	  17922336
	maximum total K-bytes		     16294	     17923
	maximum total M-bytes		        17	        18
