 argument  1 = tcne-rt-tddft.nw



============================== echo of input deck ==============================

echo

title "Tetracyanoethylene"

start tcne-rt-tddft

memory total 2000 mb

##
## neutral geom optimized with 6-31G**/B3LYP
##
geometry "system" units angstroms noautosym nocenter noautoz
  C    -1.77225048     0.63206372     0.00003361
  N    -2.93383894     0.68453983     0.00004273
  C    -0.34308131     0.59426907     0.00003105
  C     0.34304541    -0.59421536    -0.00003051
  C     1.77222287    -0.63188734    -0.00003928
  N     2.93380012    -0.68481642    -0.00008349
  C    -0.33905245    -1.85067194    -0.00010892
  N    -0.87393440    -2.88313733    -0.00016968
  C     0.33888540     1.85079849     0.00010425
  N     0.87422877     2.88299883     0.00016742
end

set geometry "system"


##
## C, N: cc-pvdz
##
basis spherical
C    S
   6665.0000000              0.0006920             -0.0001460
   1000.0000000              0.0053290             -0.0011540
    228.0000000              0.0270770             -0.0057250
     64.7100000              0.1017180             -0.0233120
     21.0600000              0.2747400             -0.0639550
      7.4950000              0.4485640             -0.1499810
      2.7970000              0.2850740             -0.1272620
      0.5215000              0.0152040              0.5445290
C    S
      0.1596000              1.0000000
C    P
      9.4390000              0.0381090
      2.0020000              0.2094800
      0.5456000              0.5085570
C    P
      0.1517000              1.0000000
C    D
      0.5500000              1.0000000
N    S
   9046.0000000              0.0007000             -0.0001530
   1357.0000000              0.0053890             -0.0012080
    309.3000000              0.0274060             -0.0059920
     87.7300000              0.1032070             -0.0245440
     28.5600000              0.2787230             -0.0674590
     10.2100000              0.4485400             -0.1580780
      3.8380000              0.2782380             -0.1218310
      0.7466000              0.0154400              0.5490030
N    S
      0.2248000              1.0000000
N    P
     13.5500000              0.0399190
      2.9170000              0.2171690
      0.7973000              0.5103190
N    P
      0.2185000              1.0000000
N    D
      0.8170000              1.0000000
end

charge -1

dft
  mult 2
  odft
  xc b3lyp
end
task dft energy

rt_tddft
  tmax 2.0
  dt 0.2

  nrestarts 0

  field "ka"
    type delta
    polarization z
    max 0.001
    spin alpha
  end

  field "kb"
    type delta
    polarization z
    max 0.001
    spin beta
  end

  excite "system" with "ka"
  excite "system" with "kb"
end

task dft rt_tddft
================================================================================


                                         
                                         


             Northwest Computational Chemistry Package (NWChem) 6.1.1
             --------------------------------------------------------


                    Environmental Molecular Sciences Laboratory
                       Pacific Northwest National Laboratory
                                Richland, WA 99352

                              Copyright (c) 1994-2012
                       Pacific Northwest National Laboratory
                            Battelle Memorial Institute

             NWChem is an open-source computational chemistry package
                        distributed under the terms of the
                      Educational Community License (ECL) 2.0
             A copy of the license is included with this distribution
                              in the LICENSE.TXT file

                                  ACKNOWLEDGMENT
                                  --------------

            This software and its documentation were developed at the
            EMSL at Pacific Northwest National Laboratory, a multiprogram
            national laboratory, operated for the U.S. Department of Energy
            by Battelle under Contract Number DE-AC05-76RL01830. Support
            for this work was provided by the Department of Energy Office
            of Biological and Environmental Research, Office of Basic
            Energy Sciences, and the Office of Advanced Scientific Computing.


           Job information
           ---------------

    hostname        = orion
    program         = ../../../bin/LINUX64/nwchem
    date            = Mon Mar 11 14:20:28 2013

    compiled        = Sun_Mar_10_16:49:26_2013
    source          = /home/niri/nwchem/nwchem-dev
    nwchem branch   = Development
    nwchem revision = 23633
    ga revision     = 10143
    input           = tcne-rt-tddft.nw
    prefix          = tcne-rt-tddft.
    data base       = ./tcne-rt-tddft.db
    status          = startup
    nproc           =        4
    time left       =     -1s



           Memory information
           ------------------

    heap     =   65536001 doubles =    500.0 Mbytes
    stack    =   65536001 doubles =    500.0 Mbytes
    global   =  131072000 doubles =   1000.0 Mbytes (distinct from heap & stack)
    total    =  262144002 doubles =   2000.0 Mbytes
    verify   = yes
    hardfail = no 


           Directory information
           ---------------------

  0 permanent = .
  0 scratch   = .




                                NWChem Input Module
                                -------------------


                                Tetracyanoethylene
                                ------------------

 Scaling coordinates for geometry "system" by  1.889725989
 (inverse scale =  0.529177249)



                              Geometry "system" -> ""
                              -----------------------

 Output coordinates in angstroms (scale by  1.889725989 to convert to a.u.)

  No.       Tag          Charge          X              Y              Z
 ---- ---------------- ---------- -------------- -------------- --------------
    1 C                    6.0000    -1.77225048     0.63206372     0.00003361
    2 N                    7.0000    -2.93383894     0.68453983     0.00004273
    3 C                    6.0000    -0.34308131     0.59426907     0.00003105
    4 C                    6.0000     0.34304541    -0.59421536    -0.00003051
    5 C                    6.0000     1.77222287    -0.63188734    -0.00003928
    6 N                    7.0000     2.93380012    -0.68481642    -0.00008349
    7 C                    6.0000    -0.33905245    -1.85067194    -0.00010892
    8 N                    7.0000    -0.87393440    -2.88313733    -0.00016968
    9 C                    6.0000     0.33888540     1.85079849     0.00010425
   10 N                    7.0000     0.87422877     2.88299883     0.00016742

      Atomic Mass 
      ----------- 

      C                 12.000000
      N                 14.003070


 Effective nuclear repulsion energy (a.u.)     374.6926548725

            Nuclear Dipole moment (a.u.) 
            ----------------------------
        X                 Y               Z
 ---------------- ---------------- ----------------
     0.0007662650    -0.0014471333    -0.0006801880


            XYZ format geometry
            -------------------
    10
 system
 C                    -1.77225048     0.63206372     0.00003361
 N                    -2.93383894     0.68453983     0.00004273
 C                    -0.34308131     0.59426907     0.00003105
 C                     0.34304541    -0.59421536    -0.00003051
 C                     1.77222287    -0.63188734    -0.00003928
 N                     2.93380012    -0.68481642    -0.00008349
 C                    -0.33905245    -1.85067194    -0.00010892
 N                    -0.87393440    -2.88313733    -0.00016968
 C                     0.33888540     1.85079849     0.00010425
 N                     0.87422877     2.88299883     0.00016742

 ==============================================================================
                                internuclear distances
 ------------------------------------------------------------------------------
       center one      |      center two      | atomic units |  angstroms
 ------------------------------------------------------------------------------
    2 N                |   1 C                |     2.19732  |     1.16277
    3 C                |   1 C                |     2.70168  |     1.42967
    4 C                |   3 C                |     2.59331  |     1.37232
    5 C                |   4 C                |     2.70169  |     1.42967
    6 N                |   5 C                |     2.19734  |     1.16278
    7 C                |   4 C                |     2.70167  |     1.42966
    8 N                |   7 C                |     2.19736  |     1.16279
    9 C                |   3 C                |     2.70168  |     1.42967
   10 N                |   9 C                |     2.19731  |     1.16277
 ------------------------------------------------------------------------------
                         number of included internuclear distances:          9
 ==============================================================================



 ==============================================================================
                                 internuclear angles
 ------------------------------------------------------------------------------
        center 1       |       center 2       |       center 3       |  degrees
 ------------------------------------------------------------------------------
    2 N                |   1 C                |   3 C                |   178.93
    1 C                |   3 C                |   4 C                |   121.51
    1 C                |   3 C                |   9 C                |   116.98
    4 C                |   3 C                |   9 C                |   121.51
    3 C                |   4 C                |   5 C                |   121.51
    3 C                |   4 C                |   7 C                |   121.51
    5 C                |   4 C                |   7 C                |   116.99
    4 C                |   5 C                |   6 N                |   178.90
    4 C                |   7 C                |   8 N                |   178.89
    3 C                |   9 C                |  10 N                |   178.92
 ------------------------------------------------------------------------------
                            number of included internuclear angles:         10
 ==============================================================================



  library name resolved from: environment
  library file name is: </home/niri/nwchem/nwchem-dev/src/basis/libraries/>
  
                      Basis "ao basis" -> "" (spherical)
                      -----
  C (Carbon)
  ----------
            Exponent  Coefficients 
       -------------- ---------------------------------------------------------
  1 S  6.66500000E+03  0.000692
  1 S  1.00000000E+03  0.005329
  1 S  2.28000000E+02  0.027077
  1 S  6.47100000E+01  0.101718
  1 S  2.10600000E+01  0.274740
  1 S  7.49500000E+00  0.448564
  1 S  2.79700000E+00  0.285074
  1 S  5.21500000E-01  0.015204

  2 S  6.66500000E+03 -0.000146
  2 S  1.00000000E+03 -0.001154
  2 S  2.28000000E+02 -0.005725
  2 S  6.47100000E+01 -0.023312
  2 S  2.10600000E+01 -0.063955
  2 S  7.49500000E+00 -0.149981
  2 S  2.79700000E+00 -0.127262
  2 S  5.21500000E-01  0.544529

  3 S  1.59600000E-01  1.000000

  4 P  9.43900000E+00  0.038109
  4 P  2.00200000E+00  0.209480
  4 P  5.45600000E-01  0.508557

  5 P  1.51700000E-01  1.000000

  6 D  5.50000000E-01  1.000000

  N (Nitrogen)
  ------------
            Exponent  Coefficients 
       -------------- ---------------------------------------------------------
  1 S  9.04600000E+03  0.000700
  1 S  1.35700000E+03  0.005389
  1 S  3.09300000E+02  0.027406
  1 S  8.77300000E+01  0.103207
  1 S  2.85600000E+01  0.278723
  1 S  1.02100000E+01  0.448540
  1 S  3.83800000E+00  0.278238
  1 S  7.46600000E-01  0.015440

  2 S  9.04600000E+03 -0.000153
  2 S  1.35700000E+03 -0.001208
  2 S  3.09300000E+02 -0.005992
  2 S  8.77300000E+01 -0.024544
  2 S  2.85600000E+01 -0.067459
  2 S  1.02100000E+01 -0.158078
  2 S  3.83800000E+00 -0.121831
  2 S  7.46600000E-01  0.549003

  3 S  2.24800000E-01  1.000000

  4 P  1.35500000E+01  0.039919
  4 P  2.91700000E+00  0.217169
  4 P  7.97300000E-01  0.510319

  5 P  2.18500000E-01  1.000000

  6 D  8.17000000E-01  1.000000



 Summary of "ao basis" -> "" (spherical)
 ------------------------------------------------------------------------------
       Tag                 Description            Shells   Functions and Types
 ---------------- ------------------------------  ------  ---------------------
 C                       user specified              6       14   3s2p1d
 N                       user specified              6       14   3s2p1d



                                 NWChem DFT Module
                                 -----------------


                                Tetracyanoethylene


  Caching 1-el integrals 

            General Information
            -------------------
          SCF calculation type: DFT
          Wavefunction type:  spin polarized.
          No. of atoms     :    10
          No. of electrons :    65
           Alpha electrons :    33
            Beta electrons :    32
          Charge           :    -1
          Spin multiplicity:     2
          Use of symmetry is: off; symmetry adaption is: off
          Maximum number of iterations:  30
          AO basis - number of functions:   140
                     number of shells:    60
          Convergence on energy requested: 1.00D-06
          Convergence on density requested: 1.00D-05
          Convergence on gradient requested: 5.00D-04

              XC Information
              --------------
                         B3LYP Method XC Potential
                     Hartree-Fock (Exact) Exchange  0.200          
                        Slater Exchange Functional  0.800 local    
                    Becke 1988 Exchange Functional  0.720 non-local
              Lee-Yang-Parr Correlation Functional  0.810          
                  VWN I RPA Correlation Functional  0.190 local    

             Grid Information
             ----------------
          Grid used for XC integration:  medium    
          Radial quadrature: Mura-Knowles        
          Angular quadrature: Lebedev. 
          Tag              B.-S. Rad. Rad. Pts. Rad. Cut. Ang. Pts.
          ---              ---------- --------- --------- ---------
          C                   0.70       49          11.0       434
          N                   0.65       49          13.0       434
          Grid pruning is: on 
          Number of quadrature shells:   490
          Spatial weights used:  Erf1

          Convergence Information
          -----------------------
          Convergence aids based upon iterative change in 
          total energy or number of iterations. 
          Levelshifting, if invoked, occurs when the 
          HOMO/LUMO gap drops below (HL_TOL): 1.00D-02
          DIIS, if invoked, will attempt to extrapolate 
          using up to (NFOCK): 10 stored Fock matrices.

                    Damping( 0%)  Levelshifting(0.5)       DIIS
                  --------------- ------------------- ---------------
          dE  on:    start            ASAP                start   
          dE off:    2 iters         30 iters            30 iters 


      Screening Tolerance Information
      -------------------------------
          Density screening/tol_rho: 1.00D-10
          AO Gaussian exp screening on grid/accAOfunc:  14
          CD Gaussian exp screening on grid/accCDfunc:  20
          XC Gaussian exp screening on grid/accXCfunc:  20
          Schwarz screening/accCoul: 1.00D-08


      Superposition of Atomic Density Guess
      -------------------------------------

 Sum of atomic energies:        -443.19696922

 Renormalizing density from      64.00 to     65

      Non-variational initial energy
      ------------------------------

 Total energy =    -452.484028
 1-e energy   =   -1363.283584
 2-e energy   =     536.106901
 HOMO         =       0.110658
 LUMO         =       0.227589

   Time after variat. SCF:      1.6
   Time prior to 1st pass:      1.6

 Integral file          = ./tcne-rt-tddft.aoints.0
 Record size in doubles =  65536        No. of integs per rec  =  43688
 Max. records in memory =    378        Max. records in file   =   6883
 No. of bits per label  =      8        No. of bits per value  =     64


 #quartets = 1.156D+06 #integrals = 1.898D+07 #direct =  0.0% #cached =100.0%


File balance: exchanges=     4  moved=    16  time=   0.0


 Grid_pts file          = ./tcne-rt-tddft.gridpts.0
 Record size in doubles =  12289        No. of grid_pts per rec  =   3070
 Max. records in memory =     21        Max. recs in file   =     36710


           Memory utilization after 1st SCF pass: 
           Heap Space remaining (MW):       40.50            40497030
          Stack Space remaining (MW):       65.53            65534525

   convergence    iter        energy       DeltaE   RMS-Dens  Diis-err    time
 ---------------- ----- ----------------- --------- --------- ---------  ------
 d= 0,ls=0.0,diis     1   -447.1385256634 -8.22D+02  1.69D-02  9.23D-01     9.2
                                                     1.60D-02  9.15D-01
 d= 0,ls=0.0,diis     2   -444.1344746964  3.00D+00  1.33D-02  7.54D+00    11.9
                                                     1.26D-02  7.10D+00
 d= 0,ls=0.0,diis     3   -447.6445923956 -3.51D+00  1.44D-03  2.74D-02    14.6
                                                     1.42D-03  2.85D-02
 d= 0,ls=0.0,diis     4   -447.6569133718 -1.23D-02  4.22D-04  5.20D-03    17.3
                                                     3.85D-04  4.18D-03
 d= 0,ls=0.0,diis     5   -447.6590726406 -2.16D-03  5.97D-05  6.63D-05    20.2
                                                     7.23D-05  8.84D-05
  Resetting Diis
 d= 0,ls=0.0,diis     6   -447.6591236879 -5.10D-05  4.65D-05  5.37D-05    23.1
                                                     2.69D-05  1.46D-05
 d= 0,ls=0.0,diis     7   -447.6591548214 -3.11D-05  2.18D-05  2.53D-06    26.0
                                                     1.71D-05  2.91D-06
 d= 0,ls=0.0,diis     8   -447.6591599424 -5.12D-06  9.05D-06  1.74D-06    28.9
                                                     1.27D-05  2.90D-06
 d= 0,ls=0.0,diis     9   -447.6591612660 -1.32D-06  1.49D-05  2.97D-06    31.8
                                                     5.29D-06  8.19D-07
 d= 0,ls=0.0,diis    10   -447.6591628463 -1.58D-06  6.49D-06  4.08D-07    34.7
                                                     1.11D-05  1.49D-06
 d= 0,ls=0.0,diis    11   -447.6591637170 -8.71D-07  2.15D-06  4.07D-08    37.6
                                                     1.81D-06  2.84D-08


         Total DFT energy =     -447.659163717001
      One electron energy =    -1357.585193036211
           Coulomb energy =      595.482114381886
    Exchange-Corr. energy =      -60.248739935151
 Nuclear repulsion energy =      374.692654872476

 Numeric. integr. density =       65.000003035547

     Total iterative time =     36.0s



                    DFT Final Alpha Molecular Orbital Analysis
                    ------------------------------------------

 Vector   10  Occ=1.000000D+00  E=-1.010111D+01
              MO Center=  3.3D-02, -8.9D-01, -5.4D-05, r^2= 2.8D+00
   Bfn.  Coefficient  Atom+Function         Bfn.  Coefficient  Atom+Function  
  ----- ------------  ---------------      ----- ------------  ---------------
    85      0.732587   7 C  s                57      0.496891   5 C  s         
     1      0.376930   1 C  s               113      0.292007   9 C  s         

 Vector   11  Occ=1.000000D+00  E=-7.937809D-01
              MO Center= -1.3D-04, -1.3D-04, -5.7D-06, r^2= 5.4D+00
   Bfn.  Coefficient  Atom+Function         Bfn.  Coefficient  Atom+Function  
  ----- ------------  ---------------      ----- ------------  ---------------
     2      0.154845   1 C  s                58      0.154825   5 C  s         
    86      0.154828   7 C  s               114      0.154820   9 C  s         

 Vector   12  Occ=1.000000D+00  E=-7.795237D-01
              MO Center= -5.6D-04, -4.4D-04, -7.2D-06, r^2= 6.8D+00
   Bfn.  Coefficient  Atom+Function         Bfn.  Coefficient  Atom+Function  
  ----- ------------  ---------------      ----- ------------  ---------------
    16      0.175323   2 N  s                72     -0.175265   6 N  s         
   100     -0.175245   8 N  s               128      0.175150  10 N  s         

 Vector   13  Occ=1.000000D+00  E=-7.752478D-01
              MO Center=  1.2D-03, -1.8D-03, -7.6D-06, r^2= 7.0D+00
   Bfn.  Coefficient  Atom+Function         Bfn.  Coefficient  Atom+Function  
  ----- ------------  ---------------      ----- ------------  ---------------
    16      0.181439   2 N  s                72     -0.181678   6 N  s         
   100      0.181760   8 N  s               128     -0.181542  10 N  s         

 Vector   14  Occ=1.000000D+00  E=-7.725192D-01
              MO Center= -4.5D-04,  2.2D-03, -7.4D-06, r^2= 7.1D+00
   Bfn.  Coefficient  Atom+Function         Bfn.  Coefficient  Atom+Function  
  ----- ------------  ---------------      ----- ------------  ---------------
    16      0.184560   2 N  s                72      0.184417   6 N  s         
   100     -0.184359   8 N  s               128     -0.184637  10 N  s         
    17      0.151481   2 N  s                73      0.151363   6 N  s         
   101     -0.151315   8 N  s               129     -0.151543  10 N  s         

 Vector   15  Occ=1.000000D+00  E=-7.132825D-01
              MO Center= -9.2D-05,  2.1D-04, -2.4D-06, r^2= 3.2D+00
   Bfn.  Coefficient  Atom+Function         Bfn.  Coefficient  Atom+Function  
  ----- ------------  ---------------      ----- ------------  ---------------
    30      0.261213   3 C  s                44      0.261191   4 C  s         
    31      0.156995   3 C  s                45      0.156991   4 C  s         
     4      0.151079   1 C  px               60     -0.151049   5 C  px        

 Vector   16  Occ=1.000000D+00  E=-6.016196D-01
              MO Center= -5.2D-05,  1.0D-04, -1.4D-06, r^2= 2.8D+00
   Bfn.  Coefficient  Atom+Function         Bfn.  Coefficient  Atom+Function  
  ----- ------------  ---------------      ----- ------------  ---------------
    30      0.230310   3 C  s                44     -0.230358   4 C  s         
     4      0.173092   1 C  px               60      0.173084   5 C  px        

 Vector   17  Occ=1.000000D+00  E=-4.873709D-01
              MO Center=  2.4D-05, -4.1D-05, -9.0D-07, r^2= 2.4D+00
   Bfn.  Coefficient  Atom+Function         Bfn.  Coefficient  Atom+Function  
  ----- ------------  ---------------      ----- ------------  ---------------
    32      0.254970   3 C  px               46      0.254995   4 C  px        
     4     -0.167081   1 C  px               60     -0.167095   5 C  px        
    89     -0.167319   7 C  py              117     -0.167310   9 C  py        

 Vector   18  Occ=1.000000D+00  E=-4.140770D-01
              MO Center=  4.6D-05, -9.7D-05, -6.9D-07, r^2= 2.2D+00
   Bfn.  Coefficient  Atom+Function         Bfn.  Coefficient  Atom+Function  
  ----- ------------  ---------------      ----- ------------  ---------------
    33      0.334555   3 C  py               47     -0.334584   4 C  py        
    32     -0.193224   3 C  px               46      0.193231   4 C  px        

 Vector   19  Occ=1.000000D+00  E=-3.983242D-01
              MO Center= -1.0D-04,  1.4D-04, -1.3D-06, r^2= 3.0D+00
   Bfn.  Coefficient  Atom+Function         Bfn.  Coefficient  Atom+Function  
  ----- ------------  ---------------      ----- ------------  ---------------
     3      0.245846   1 C  s                59      0.245856   5 C  s         
    87     -0.245894   7 C  s               115     -0.245879   9 C  s         
    32     -0.240709   3 C  px               46      0.240678   4 C  px        
     4      0.179864   1 C  px               60     -0.179835   5 C  px        
    89     -0.171113   7 C  py              117      0.171145   9 C  py        

 Vector   20  Occ=1.000000D+00  E=-3.010727D-01
              MO Center= -1.0D-04,  1.5D-04, -1.6D-06, r^2= 3.6D+00
   Bfn.  Coefficient  Atom+Function         Bfn.  Coefficient  Atom+Function  
  ----- ------------  ---------------      ----- ------------  ---------------
    34      0.292424   3 C  pz               48      0.292393   4 C  pz        
     6      0.174609   1 C  pz               62      0.174579   5 C  pz        
    90      0.174579   7 C  pz              118      0.174608   9 C  pz        

 Vector   21  Occ=1.000000D+00  E=-2.473528D-01
              MO Center=  5.6D-03, -1.8D-02, -1.2D-05, r^2= 1.0D+01
   Bfn.  Coefficient  Atom+Function         Bfn.  Coefficient  Atom+Function  
  ----- ------------  ---------------      ----- ------------  ---------------
   103      0.233547   8 N  py              131     -0.231206  10 N  py        
    74     -0.219712   6 N  px               18      0.218163   2 N  px        
    45     -0.188987   4 C  s                31     -0.187025   3 C  s         
   106      0.156705   8 N  py              134     -0.155102  10 N  py        
    77     -0.151987   6 N  px               21      0.150914   2 N  px        

 Vector   22  Occ=1.000000D+00  E=-2.466085D-01
              MO Center=  1.9D-05, -2.5D-04, -9.0D-06, r^2= 6.1D+00
   Bfn.  Coefficient  Atom+Function         Bfn.  Coefficient  Atom+Function  
  ----- ------------  ---------------      ----- ------------  ---------------
     6      0.213328   1 C  pz               62     -0.213336   5 C  pz        
    90     -0.213331   7 C  pz              118      0.213305   9 C  pz        
    20      0.191504   2 N  pz               76     -0.191524   6 N  pz        
   104     -0.191528   8 N  pz              132      0.191470  10 N  pz        

 Vector   23  Occ=1.000000D+00  E=-2.444746D-01
              MO Center= -1.1D-02,  1.4D-02, -6.8D-06, r^2= 1.1D+01
   Bfn.  Coefficient  Atom+Function         Bfn.  Coefficient  Atom+Function  
  ----- ------------  ---------------      ----- ------------  ---------------
    18      0.243765   2 N  px               74      0.241625   6 N  px        
   131     -0.226321  10 N  py              103     -0.224602   8 N  py        
    31     -0.215686   3 C  s                45      0.213922   4 C  s         
    21      0.167878   2 N  px               77      0.166396   6 N  px        
   134     -0.155577  10 N  py              106     -0.154420   8 N  py        

 Vector   24  Occ=1.000000D+00  E=-2.428070D-01
              MO Center=  5.8D-03, -2.6D-03, -1.2D-05, r^2= 1.1D+01
   Bfn.  Coefficient  Atom+Function         Bfn.  Coefficient  Atom+Function  
  ----- ------------  ---------------      ----- ------------  ---------------
    18      0.241362   2 N  px               74      0.242407   6 N  px        
   103      0.194395   8 N  py              131      0.194227  10 N  py        
    21      0.164856   2 N  px               77      0.165563   6 N  px        

 Vector   25  Occ=1.000000D+00  E=-2.350888D-01
              MO Center= -3.9D-04,  5.2D-03, -1.1D-05, r^2= 1.0D+01
   Bfn.  Coefficient  Atom+Function         Bfn.  Coefficient  Atom+Function  
  ----- ------------  ---------------      ----- ------------  ---------------
    18      0.248884   2 N  px               74     -0.248569   6 N  px        
   103     -0.209821   8 N  py              131      0.210359  10 N  py        
    21      0.168932   2 N  px               77     -0.168707   6 N  px        

 Vector   26  Occ=1.000000D+00  E=-2.197753D-01
              MO Center=  6.7D-04, -1.3D-03, -5.8D-06, r^2= 7.3D+00
   Bfn.  Coefficient  Atom+Function         Bfn.  Coefficient  Atom+Function  
  ----- ------------  ---------------      ----- ------------  ---------------
    20      0.229705   2 N  pz               76     -0.229886   6 N  pz        
   104      0.229910   8 N  pz              132     -0.229703  10 N  pz        
     6      0.205191   1 C  pz               62     -0.205344   5 C  pz        
    90      0.205355   7 C  pz              118     -0.205207   9 C  pz        

 Vector   27  Occ=1.000000D+00  E=-2.172860D-01
              MO Center= -1.1D-03,  1.5D-03, -6.8D-06, r^2= 7.1D+00
   Bfn.  Coefficient  Atom+Function         Bfn.  Coefficient  Atom+Function  
  ----- ------------  ---------------      ----- ------------  ---------------
    19      0.217362   2 N  py               75      0.217106   6 N  py        
     5      0.215218   1 C  py               61      0.214980   5 C  py        
   102     -0.205116   8 N  px              130     -0.205272  10 N  px        
    88     -0.174788   7 C  px              116     -0.174909   9 C  px        

 Vector   28  Occ=1.000000D+00  E=-2.143185D-01
              MO Center= -6.1D-04,  1.2D-03, -6.3D-06, r^2= 7.5D+00
   Bfn.  Coefficient  Atom+Function         Bfn.  Coefficient  Atom+Function  
  ----- ------------  ---------------      ----- ------------  ---------------
    20      0.235664   2 N  pz               76      0.235500   6 N  pz        
   104     -0.235488   8 N  pz              132     -0.235661  10 N  pz        
     6      0.205222   1 C  pz               62      0.205069   5 C  pz        
    90     -0.205047   7 C  pz              118     -0.205238   9 C  pz        

 Vector   29  Occ=1.000000D+00  E=-2.128718D-01
              MO Center=  3.5D-04, -1.9D-03, -6.9D-06, r^2= 7.1D+00
   Bfn.  Coefficient  Atom+Function         Bfn.  Coefficient  Atom+Function  
  ----- ------------  ---------------      ----- ------------  ---------------
   102      0.221269   8 N  px              130     -0.220924  10 N  px        
    19      0.190677   2 N  py               75     -0.190745   6 N  py        
     5      0.175175   1 C  py               61     -0.175314   5 C  py        
    89     -0.159044   7 C  py              117      0.158901   9 C  py        

 Vector   30  Occ=1.000000D+00  E=-2.098062D-01
              MO Center=  1.3D-03, -5.7D-04, -7.6D-06, r^2= 7.5D+00
   Bfn.  Coefficient  Atom+Function         Bfn.  Coefficient  Atom+Function  
  ----- ------------  ---------------      ----- ------------  ---------------
    19      0.224139   2 N  py               75      0.224468   6 N  py        
    88      0.206078   7 C  px              116      0.206035   9 C  px        
     5      0.195673   1 C  py               61      0.195945   5 C  py        
   102      0.172274   8 N  px              130      0.172065  10 N  px        
   103     -0.150449   8 N  py              131     -0.150596  10 N  py        

 Vector   31  Occ=1.000000D+00  E=-1.956922D-01
              MO Center= -5.3D-04,  1.3D-03, -7.5D-06, r^2= 7.7D+00
   Bfn.  Coefficient  Atom+Function         Bfn.  Coefficient  Atom+Function  
  ----- ------------  ---------------      ----- ------------  ---------------
    19      0.241196   2 N  py               75     -0.241069   6 N  py        
     5      0.204748   1 C  py               61     -0.204622   5 C  py        
   102     -0.200776   8 N  px              130      0.200801  10 N  px        
    88     -0.197734   7 C  px              116      0.197919   9 C  px        

 Vector   32  Occ=1.000000D+00  E=-1.480503D-01
              MO Center=  6.1D-05, -3.0D-06, -5.0D-06, r^2= 6.1D+00
   Bfn.  Coefficient  Atom+Function         Bfn.  Coefficient  Atom+Function  
  ----- ------------  ---------------      ----- ------------  ---------------
    34      0.283021   3 C  pz               48      0.283038   4 C  pz        
    20     -0.230643   2 N  pz               76     -0.230654   6 N  pz        
   104     -0.230658   8 N  pz              132     -0.230658  10 N  pz        
    37      0.193706   3 C  pz               51      0.193714   4 C  pz        
    23     -0.152805   2 N  pz               79     -0.152812   6 N  pz        

 Vector   33  Occ=1.000000D+00  E=-3.404098D-02
              MO Center= -2.3D-05,  3.4D-05, -3.4D-06, r^2= 5.2D+00
   Bfn.  Coefficient  Atom+Function         Bfn.  Coefficient  Atom+Function  
  ----- ------------  ---------------      ----- ------------  ---------------
    37      0.350838   3 C  pz               51     -0.350839   4 C  pz        
    34      0.342859   3 C  pz               48     -0.342851   4 C  pz        
    20     -0.211982   2 N  pz               76      0.211970   6 N  pz        
   104      0.211971   8 N  pz              132     -0.211981  10 N  pz        
    23     -0.176450   2 N  pz               79      0.176435   6 N  pz        

 Vector   34  Occ=0.000000D+00  E= 1.275122D-01
              MO Center=  1.8D-03, -3.7D-03, -5.0D-06, r^2= 6.4D+00
   Bfn.  Coefficient  Atom+Function         Bfn.  Coefficient  Atom+Function  
  ----- ------------  ---------------      ----- ------------  ---------------
    31     -0.364547   3 C  s                45     -0.363968   4 C  s         
     3      0.352922   1 C  s                59      0.353570   5 C  s         
    87      0.353643   7 C  s               115      0.353018   9 C  s         
    22      0.250002   2 N  py               78     -0.250655   6 N  py        
    19      0.232891   2 N  py               75     -0.233494   6 N  py        

 Vector   35  Occ=0.000000D+00  E= 1.401650D-01
              MO Center= -2.3D-03,  4.0D-03, -5.0D-06, r^2= 6.7D+00
   Bfn.  Coefficient  Atom+Function         Bfn.  Coefficient  Atom+Function  
  ----- ------------  ---------------      ----- ------------  ---------------
    31      0.363036   3 C  s                45     -0.363690   4 C  s         
    36     -0.355580   3 C  py               50     -0.355488   4 C  py        
    22      0.258855   2 N  py               78      0.258059   6 N  py        
   105     -0.240584   8 N  px              133     -0.241221  10 N  px        
    19      0.229314   2 N  py               75      0.228634   6 N  py        

 Vector   36  Occ=0.000000D+00  E= 1.576612D-01
              MO Center=  5.2D-04, -1.1D-03, -1.0D-06, r^2= 6.7D+00
   Bfn.  Coefficient  Atom+Function         Bfn.  Coefficient  Atom+Function  
  ----- ------------  ---------------      ----- ------------  ---------------
     9      0.322230   1 C  pz               65     -0.322430   5 C  pz        
    93      0.322466   7 C  pz              121     -0.322207   9 C  pz        
    23     -0.288707   2 N  pz               79      0.288890   6 N  pz        
   107     -0.288907   8 N  pz              135      0.288697  10 N  pz        
     6      0.240540   1 C  pz               62     -0.240732   5 C  pz        

 Vector   37  Occ=0.000000D+00  E= 1.710720D-01
              MO Center= -2.0D-05,  5.7D-04, -5.5D-06, r^2= 6.4D+00
   Bfn.  Coefficient  Atom+Function         Bfn.  Coefficient  Atom+Function  
  ----- ------------  ---------------      ----- ------------  ---------------
     3      0.309786   1 C  s                59     -0.309324   5 C  s         
    87      0.309097   7 C  s               115     -0.309559   9 C  s         
    91      0.285655   7 C  px              119      0.285737   9 C  px        
    22     -0.257887   2 N  py               78     -0.257878   6 N  py        
    88      0.257637   7 C  px              116      0.257698   9 C  px        

 Vector   38  Occ=0.000000D+00  E= 1.831114D-01
              MO Center= -6.2D-04,  1.1D-03, -2.8D-06, r^2= 6.7D+00
   Bfn.  Coefficient  Atom+Function         Bfn.  Coefficient  Atom+Function  
  ----- ------------  ---------------      ----- ------------  ---------------
     9      0.311569   1 C  pz               65      0.311320   5 C  pz        
    93     -0.311302   7 C  pz              121     -0.311529   9 C  pz        
     6      0.285980   1 C  pz               62      0.285782   5 C  pz        
    90     -0.285772   7 C  pz              118     -0.285955   9 C  pz        
    23     -0.284208   2 N  pz               79     -0.283982   6 N  pz        

 Vector   39  Occ=0.000000D+00  E= 2.275491D-01
              MO Center=  3.6D-05,  1.5D-04,  5.0D-06, r^2= 5.9D+00
   Bfn.  Coefficient  Atom+Function         Bfn.  Coefficient  Atom+Function  
  ----- ------------  ---------------      ----- ------------  ---------------
     9      0.395116   1 C  pz               65      0.395099   5 C  pz        
    93      0.395101   7 C  pz              121      0.395163   9 C  pz        
    23     -0.286306   2 N  pz               79     -0.286301   6 N  pz        
   107     -0.286295   8 N  pz              135     -0.286354  10 N  pz        
    37     -0.260145   3 C  pz               51     -0.260085   4 C  pz        

 Vector   40  Occ=0.000000D+00  E= 2.302960D-01
              MO Center=  1.6D-04, -2.4D-04, -5.7D-06, r^2= 6.7D+00
   Bfn.  Coefficient  Atom+Function         Bfn.  Coefficient  Atom+Function  
  ----- ------------  ---------------      ----- ------------  ---------------
     8      0.335713   1 C  py               64     -0.336025   5 C  py        
     5      0.328080   1 C  py               61     -0.328140   5 C  py        
    88     -0.306598   7 C  px              116      0.306541   9 C  px        
    91     -0.297880   7 C  px              119      0.296704   9 C  px        
    22     -0.293252   2 N  py               78      0.293483   6 N  py        

 Vector   41  Occ=0.000000D+00  E= 2.814068D-01
              MO Center= -5.7D-04,  8.6D-04, -1.5D-05, r^2= 6.7D+00
   Bfn.  Coefficient  Atom+Function         Bfn.  Coefficient  Atom+Function  
  ----- ------------  ---------------      ----- ------------  ---------------
     3      1.327845   1 C  s                59      1.326528   5 C  s         
    87      1.326790   7 C  s               115      1.328002   9 C  s         
    17     -1.142083   2 N  s                73     -1.141353   6 N  s         
   101     -1.141446   8 N  s               129     -1.142062  10 N  s         
    92     -0.750839   7 C  py              120      0.750896   9 C  py        

 Vector   42  Occ=0.000000D+00  E= 2.871143D-01
              MO Center=  3.2D-04, -4.2D-04, -6.2D-06, r^2= 5.8D+00
   Bfn.  Coefficient  Atom+Function         Bfn.  Coefficient  Atom+Function  
  ----- ------------  ---------------      ----- ------------  ---------------
    17      1.177910   2 N  s                73     -1.178450   6 N  s         
   101      1.178892   8 N  s               129     -1.178454  10 N  s         
     7      1.142776   1 C  px               63      1.143539   5 C  px        
    92      0.946000   7 C  py              120      0.944752   9 C  py        
     3     -0.696719   1 C  s                59      0.696506   5 C  s         

 Vector   43  Occ=0.000000D+00  E= 3.011376D-01
              MO Center=  6.7D-04, -1.2D-03,  3.8D-05, r^2= 6.0D+00
   Bfn.  Coefficient  Atom+Function         Bfn.  Coefficient  Atom+Function  
  ----- ------------  ---------------      ----- ------------  ---------------
    17     -1.073036   2 N  s                73      1.074348   6 N  s         
   101      1.073872   8 N  s               129     -1.072423  10 N  s         
     3      1.002309   1 C  s                59     -1.003701   5 C  s         
    87     -1.003437   7 C  s               115      1.002054   9 C  s         
     7     -0.843462   1 C  px               63     -0.844327   5 C  px        

 Vector   44  Occ=0.000000D+00  E= 3.288536D-01
              MO Center=  3.7D-05, -1.1D-05, -4.5D-05, r^2= 4.8D+00
   Bfn.  Coefficient  Atom+Function         Bfn.  Coefficient  Atom+Function  
  ----- ------------  ---------------      ----- ------------  ---------------
    37      0.628704   3 C  pz               51     -0.628713   4 C  pz        
     9     -0.463573   1 C  pz               65      0.463594   5 C  pz        
    93      0.463591   7 C  pz              121     -0.463582   9 C  pz        
    34      0.432821   3 C  pz               48     -0.432860   4 C  pz        
    23      0.278535   2 N  pz               79     -0.278544   6 N  pz        

 Vector   45  Occ=0.000000D+00  E= 3.985027D-01
              MO Center= -5.1D-04,  9.0D-04, -3.8D-06, r^2= 8.8D+00
   Bfn.  Coefficient  Atom+Function         Bfn.  Coefficient  Atom+Function  
  ----- ------------  ---------------      ----- ------------  ---------------
    35      2.857926   3 C  px               49     -2.857705   4 C  px        
     7      2.583063   1 C  px               63     -2.581797   5 C  px        
    92     -2.366419   7 C  py              120      2.367311   9 C  py        
    17      1.806073   2 N  s                73      1.805005   6 N  s         
   101     -1.805102   8 N  s               129     -1.806176  10 N  s         

 Vector   46  Occ=0.000000D+00  E= 4.504247D-01
              MO Center=  3.3D-04, -6.1D-04, -1.7D-06, r^2= 6.8D+00
   Bfn.  Coefficient  Atom+Function         Bfn.  Coefficient  Atom+Function  
  ----- ------------  ---------------      ----- ------------  ---------------
     7      2.275559   1 C  px               63      2.278387   5 C  px        
    92      2.134029   7 C  py              120      2.131129   9 C  py        
    35      1.733856   3 C  px               49      1.738198   4 C  px        
    17      1.566765   2 N  s                73     -1.568287   6 N  s         
   101      1.568176   8 N  s               129     -1.566545  10 N  s         

 Vector   47  Occ=0.000000D+00  E= 4.800604D-01
              MO Center=  4.5D-04, -7.8D-04, -3.9D-06, r^2= 7.4D+00
   Bfn.  Coefficient  Atom+Function         Bfn.  Coefficient  Atom+Function  
  ----- ------------  ---------------      ----- ------------  ---------------
    31      3.979498   3 C  s                45      3.984450   4 C  s         
     7     -2.215929   1 C  px               63      2.217467   5 C  px        
    92     -1.753276   7 C  py              120      1.751727   9 C  py        
    17     -1.643373   2 N  s                73     -1.644341   6 N  s         
   101     -1.644014   8 N  s               129     -1.643172  10 N  s         

 Vector   48  Occ=0.000000D+00  E= 4.845725D-01
              MO Center= -5.8D-04,  1.0D-03,  1.4D-06, r^2= 7.3D+00
   Bfn.  Coefficient  Atom+Function         Bfn.  Coefficient  Atom+Function  
  ----- ------------  ---------------      ----- ------------  ---------------
    31      4.580111   3 C  s                45     -4.575741   4 C  s         
     7     -2.373137   1 C  px               63     -2.371042   5 C  px        
    92      2.190999   7 C  py              120      2.192674   9 C  py        
    17     -1.750886   2 N  s                73      1.749563   6 N  s         
   101      1.749872   8 N  s               129     -1.751295  10 N  s         

 Vector   49  Occ=0.000000D+00  E= 5.524140D-01
              MO Center= -1.2D-04,  2.5D-04,  6.6D-06, r^2= 4.6D+00
   Bfn.  Coefficient  Atom+Function         Bfn.  Coefficient  Atom+Function  
  ----- ------------  ---------------      ----- ------------  ---------------
     6      0.411868   1 C  pz               62      0.411816   5 C  pz        
    90      0.411805   7 C  pz              118      0.411877   9 C  pz        
     9     -0.387885   1 C  pz               65     -0.387828   5 C  pz        
    93     -0.387810   7 C  pz              121     -0.387899   9 C  pz        
    34      0.348967   3 C  pz               48      0.348927   4 C  pz        


                     DFT Final Beta Molecular Orbital Analysis
                     -----------------------------------------

 Vector   10  Occ=1.000000D+00  E=-1.010210D+01
              MO Center=  6.2D-02, -8.7D-01, -5.3D-05, r^2= 2.8D+00
   Bfn.  Coefficient  Atom+Function         Bfn.  Coefficient  Atom+Function  
  ----- ------------  ---------------      ----- ------------  ---------------
    85      0.724129   7 C  s                57      0.508392   5 C  s         
     1      0.373843   1 C  s               113      0.296851   9 C  s         

 Vector   11  Occ=1.000000D+00  E=-7.881810D-01
              MO Center= -1.2D-04, -1.5D-04, -5.8D-06, r^2= 5.5D+00
   Bfn.  Coefficient  Atom+Function         Bfn.  Coefficient  Atom+Function  
  ----- ------------  ---------------      ----- ------------  ---------------
     2      0.157381   1 C  s                58      0.157364   5 C  s         
    86      0.157365   7 C  s               114      0.157355   9 C  s         

 Vector   12  Occ=1.000000D+00  E=-7.747140D-01
              MO Center= -5.1D-04, -3.7D-04, -7.1D-06, r^2= 6.7D+00
   Bfn.  Coefficient  Atom+Function         Bfn.  Coefficient  Atom+Function  
  ----- ------------  ---------------      ----- ------------  ---------------
    16      0.172856   2 N  s                72     -0.172803   6 N  s         
   100     -0.172770   8 N  s               128      0.172688  10 N  s         

 Vector   13  Occ=1.000000D+00  E=-7.706326D-01
              MO Center=  1.1D-03, -1.6D-03, -7.5D-06, r^2= 6.9D+00
   Bfn.  Coefficient  Atom+Function         Bfn.  Coefficient  Atom+Function  
  ----- ------------  ---------------      ----- ------------  ---------------
    16      0.178495   2 N  s                72     -0.178707   6 N  s         
   100      0.178793   8 N  s               128     -0.178603  10 N  s         

 Vector   14  Occ=1.000000D+00  E=-7.677506D-01
              MO Center= -4.0D-04,  1.9D-03, -7.3D-06, r^2= 7.0D+00
   Bfn.  Coefficient  Atom+Function         Bfn.  Coefficient  Atom+Function  
  ----- ------------  ---------------      ----- ------------  ---------------
    16      0.181678   2 N  s                72      0.181554   6 N  s         
   100     -0.181506   8 N  s               128     -0.181748  10 N  s         

 Vector   15  Occ=1.000000D+00  E=-7.031133D-01
              MO Center= -8.9D-05,  1.9D-04, -2.2D-06, r^2= 3.0D+00
   Bfn.  Coefficient  Atom+Function         Bfn.  Coefficient  Atom+Function  
  ----- ------------  ---------------      ----- ------------  ---------------
    30      0.259750   3 C  s                44      0.259730   4 C  s         
    31      0.154536   3 C  s                45      0.154537   4 C  s         
     4      0.151569   1 C  px               60     -0.151540   5 C  px        

 Vector   16  Occ=1.000000D+00  E=-5.889056D-01
              MO Center= -6.4D-05,  1.2D-04, -1.4D-06, r^2= 2.8D+00
   Bfn.  Coefficient  Atom+Function         Bfn.  Coefficient  Atom+Function  
  ----- ------------  ---------------      ----- ------------  ---------------
    30      0.226016   3 C  s                44     -0.226060   4 C  s         
     4      0.176521   1 C  px               60      0.176510   5 C  px        

 Vector   17  Occ=1.000000D+00  E=-4.836749D-01
              MO Center=  2.9D-05, -4.9D-05, -9.3D-07, r^2= 2.5D+00
   Bfn.  Coefficient  Atom+Function         Bfn.  Coefficient  Atom+Function  
  ----- ------------  ---------------      ----- ------------  ---------------
    32      0.252075   3 C  px               46      0.252101   4 C  px        
     4     -0.169888   1 C  px               60     -0.169904   5 C  px        
    89     -0.170256   7 C  py              117     -0.170245   9 C  py        

 Vector   18  Occ=1.000000D+00  E=-4.107651D-01
              MO Center=  5.2D-05, -1.1D-04, -6.9D-07, r^2= 2.2D+00
   Bfn.  Coefficient  Atom+Function         Bfn.  Coefficient  Atom+Function  
  ----- ------------  ---------------      ----- ------------  ---------------
    33      0.332009   3 C  py               47     -0.332039   4 C  py        
    32     -0.191752   3 C  px               46      0.191760   4 C  px        

 Vector   19  Occ=1.000000D+00  E=-3.947079D-01
              MO Center= -1.1D-04,  1.5D-04, -1.3D-06, r^2= 3.0D+00
   Bfn.  Coefficient  Atom+Function         Bfn.  Coefficient  Atom+Function  
  ----- ------------  ---------------      ----- ------------  ---------------
     3      0.263022   1 C  s                59      0.263033   5 C  s         
    87     -0.263073   7 C  s               115     -0.263056   9 C  s         
    32     -0.238354   3 C  px               46      0.238321   4 C  px        
     4      0.183417   1 C  px               60     -0.183387   5 C  px        
    89     -0.174590   7 C  py              117      0.174623   9 C  py        

 Vector   20  Occ=1.000000D+00  E=-2.818743D-01
              MO Center= -9.6D-05,  1.3D-04, -2.1D-06, r^2= 3.9D+00
   Bfn.  Coefficient  Atom+Function         Bfn.  Coefficient  Atom+Function  
  ----- ------------  ---------------      ----- ------------  ---------------
    34      0.258238   3 C  pz               48      0.258216   4 C  pz        
     6      0.188428   1 C  pz               62      0.188400   5 C  pz        
    90      0.188399   7 C  pz              118      0.188426   9 C  pz        

 Vector   21  Occ=1.000000D+00  E=-2.430443D-01
              MO Center=  4.6D-03, -1.5D-02, -1.2D-05, r^2= 1.0D+01
   Bfn.  Coefficient  Atom+Function         Bfn.  Coefficient  Atom+Function  
  ----- ------------  ---------------      ----- ------------  ---------------
   103      0.231393   8 N  py              131     -0.229377  10 N  py        
    74     -0.213725   6 N  px               18      0.212466   2 N  px        
    45     -0.187421   4 C  s                31     -0.185727   3 C  s         
   106      0.157202   8 N  py              134     -0.155801  10 N  py        
    77     -0.150607   6 N  px        

 Vector   22  Occ=1.000000D+00  E=-2.395547D-01
              MO Center= -9.5D-03,  1.2D-02, -1.3D-05, r^2= 1.1D+01
   Bfn.  Coefficient  Atom+Function         Bfn.  Coefficient  Atom+Function  
  ----- ------------  ---------------      ----- ------------  ---------------
    18      0.241472   2 N  px               74      0.239649   6 N  px        
   131     -0.226650  10 N  py              103     -0.225240   8 N  py        
    31     -0.216976   3 C  s                45      0.215460   4 C  s         
    21      0.169348   2 N  px               77      0.168062   6 N  px        
   134     -0.158062  10 N  py              106     -0.157103   8 N  py        

 Vector   23  Occ=1.000000D+00  E=-2.382948D-01
              MO Center=  5.4D-03, -2.7D-03, -1.2D-05, r^2= 1.1D+01
   Bfn.  Coefficient  Atom+Function         Bfn.  Coefficient  Atom+Function  
  ----- ------------  ---------------      ----- ------------  ---------------
    18      0.238692   2 N  px               74      0.239678   6 N  px        
   103      0.189737   8 N  py              131      0.189543  10 N  py        
    21      0.165895   2 N  px               77      0.166573   6 N  px        
   102      0.150608   8 N  px              130      0.150434  10 N  px        

 Vector   24  Occ=1.000000D+00  E=-2.324353D-01
              MO Center=  2.4D-05, -2.1D-04, -3.2D-06, r^2= 6.2D+00
   Bfn.  Coefficient  Atom+Function         Bfn.  Coefficient  Atom+Function  
  ----- ------------  ---------------      ----- ------------  ---------------
     6      0.222083   1 C  pz               62     -0.222090   5 C  pz        
    90     -0.222080   7 C  pz              118      0.222059   9 C  pz        
    20      0.188437   2 N  pz               76     -0.188456   6 N  pz        
   104     -0.188454   8 N  pz              132      0.188407  10 N  pz        

 Vector   25  Occ=1.000000D+00  E=-2.304872D-01
              MO Center= -2.6D-04,  5.0D-03, -1.1D-05, r^2= 1.1D+01
   Bfn.  Coefficient  Atom+Function         Bfn.  Coefficient  Atom+Function  
  ----- ------------  ---------------      ----- ------------  ---------------
    18      0.247565   2 N  px               74     -0.247282   6 N  px        
   103     -0.207903   8 N  py              131      0.208406  10 N  py        
    21      0.171146   2 N  px               77     -0.170939   6 N  px        

 Vector   26  Occ=1.000000D+00  E=-2.157718D-01
              MO Center= -1.0D-03,  1.5D-03, -6.7D-06, r^2= 7.0D+00
   Bfn.  Coefficient  Atom+Function         Bfn.  Coefficient  Atom+Function  
  ----- ------------  ---------------      ----- ------------  ---------------
     5      0.218065   1 C  py               61      0.217830   5 C  py        
    19      0.213141   2 N  py               75      0.212892   6 N  py        
   102     -0.204443   8 N  px              130     -0.204609  10 N  px        
    88     -0.175411   7 C  px              116     -0.175530   9 C  px        

 Vector   27  Occ=1.000000D+00  E=-2.109250D-01
              MO Center=  5.3D-04, -1.8D-03, -7.0D-06, r^2= 7.1D+00
   Bfn.  Coefficient  Atom+Function         Bfn.  Coefficient  Atom+Function  
  ----- ------------  ---------------      ----- ------------  ---------------
   102      0.219365   8 N  px              130     -0.219051  10 N  px        
    19      0.183659   2 N  py               75     -0.183745   6 N  py        
     5      0.174304   1 C  py               61     -0.174469   5 C  py        
    89     -0.162531   7 C  py              117      0.162389   9 C  py        

 Vector   28  Occ=1.000000D+00  E=-2.093760D-01
              MO Center=  4.7D-04, -8.6D-04, -2.9D-06, r^2= 7.1D+00
   Bfn.  Coefficient  Atom+Function         Bfn.  Coefficient  Atom+Function  
  ----- ------------  ---------------      ----- ------------  ---------------
     6      0.217120   1 C  pz               62     -0.217231   5 C  pz        
    90      0.217244   7 C  pz              118     -0.217140   9 C  pz        
    20      0.216021   2 N  pz               76     -0.216142   6 N  pz        
   104      0.216163   8 N  pz              132     -0.216026  10 N  pz        

 Vector   29  Occ=1.000000D+00  E=-2.080059D-01
              MO Center=  1.1D-03, -5.8D-04, -9.9D-06, r^2= 7.5D+00
   Bfn.  Coefficient  Atom+Function         Bfn.  Coefficient  Atom+Function  
  ----- ------------  ---------------      ----- ------------  ---------------
    19      0.219989   2 N  py               75      0.220299   6 N  py        
    88      0.209626   7 C  px              116      0.209574   9 C  px        
     5      0.197439   1 C  py               61      0.197701   5 C  py        
   102      0.165583   8 N  px              130      0.165340  10 N  px        
   103     -0.153736   8 N  py              131     -0.153898  10 N  py        

 Vector   30  Occ=1.000000D+00  E=-2.027658D-01
              MO Center= -4.0D-04,  8.2D-04, -5.8D-06, r^2= 7.2D+00
   Bfn.  Coefficient  Atom+Function         Bfn.  Coefficient  Atom+Function  
  ----- ------------  ---------------      ----- ------------  ---------------
    20      0.221854   2 N  pz               76      0.221753   6 N  pz        
   104     -0.221743   8 N  pz              132     -0.221852  10 N  pz        
     6      0.218207   1 C  pz               62      0.218094   5 C  pz        
    90     -0.218077   7 C  pz              118     -0.218220   9 C  pz        

 Vector   31  Occ=1.000000D+00  E=-1.937244D-01
              MO Center= -5.4D-04,  1.2D-03, -7.5D-06, r^2= 7.6D+00
   Bfn.  Coefficient  Atom+Function         Bfn.  Coefficient  Atom+Function  
  ----- ------------  ---------------      ----- ------------  ---------------
    19      0.237912   2 N  py               75     -0.237788   6 N  py        
     5      0.208092   1 C  py               61     -0.207965   5 C  py        
    88     -0.201590   7 C  px              116      0.201773   9 C  px        
   102     -0.196875   8 N  px              130      0.196887  10 N  px        

 Vector   32  Occ=1.000000D+00  E=-1.201087D-01
              MO Center=  3.1D-05, -1.7D-05, -4.2D-06, r^2= 5.6D+00
   Bfn.  Coefficient  Atom+Function         Bfn.  Coefficient  Atom+Function  
  ----- ------------  ---------------      ----- ------------  ---------------
    34      0.294405   3 C  pz               48      0.294413   4 C  pz        
    37      0.218975   3 C  pz               51      0.218971   4 C  pz        
    20     -0.214326   2 N  pz               76     -0.214333   6 N  pz        
   104     -0.214340   8 N  pz              132     -0.214334  10 N  pz        

 Vector   33  Occ=0.000000D+00  E= 3.950974D-02
              MO Center= -3.3D-05,  6.1D-06, -3.6D-06, r^2= 5.4D+00
   Bfn.  Coefficient  Atom+Function         Bfn.  Coefficient  Atom+Function  
  ----- ------------  ---------------      ----- ------------  ---------------
    37      0.335491   3 C  pz               51     -0.335489   4 C  pz        
    34      0.313163   3 C  pz               48     -0.313150   4 C  pz        
    20     -0.211293   2 N  pz               76      0.211283   6 N  pz        
   104      0.211289   8 N  pz              132     -0.211288  10 N  pz        
    23     -0.193126   2 N  pz               79      0.193111   6 N  pz        

 Vector   34  Occ=0.000000D+00  E= 1.301380D-01
              MO Center=  1.9D-03, -3.8D-03, -5.2D-06, r^2= 6.5D+00
   Bfn.  Coefficient  Atom+Function         Bfn.  Coefficient  Atom+Function  
  ----- ------------  ---------------      ----- ------------  ---------------
    31     -0.357067   3 C  s                45     -0.356514   4 C  s         
     3      0.342344   1 C  s                59      0.342994   5 C  s         
    87      0.343066   7 C  s               115      0.342441   9 C  s         
    22      0.253705   2 N  py               78     -0.254371   6 N  py        
    19      0.234872   2 N  py               75     -0.235486   6 N  py        

 Vector   35  Occ=0.000000D+00  E= 1.427447D-01
              MO Center= -2.4D-03,  4.0D-03, -5.1D-06, r^2= 6.8D+00
   Bfn.  Coefficient  Atom+Function         Bfn.  Coefficient  Atom+Function  
  ----- ------------  ---------------      ----- ------------  ---------------
    31      0.345865   3 C  s                45     -0.346517   4 C  s         
    36     -0.341741   3 C  py               50     -0.341655   4 C  py        
    22      0.262330   2 N  py               78      0.261518   6 N  py        
   105     -0.242872   8 N  px              133     -0.243524  10 N  px        
    19      0.231077   2 N  py               75      0.230386   6 N  py        

 Vector   36  Occ=0.000000D+00  E= 1.704672D-01
              MO Center=  5.9D-04, -1.2D-03,  3.3D-06, r^2= 7.0D+00
   Bfn.  Coefficient  Atom+Function         Bfn.  Coefficient  Atom+Function  
  ----- ------------  ---------------      ----- ------------  ---------------
     9      0.318150   1 C  pz               65     -0.318368   5 C  pz        
    93      0.318404   7 C  pz              121     -0.318126   9 C  pz        
    23     -0.300361   2 N  pz               79      0.300572   6 N  pz        
   107     -0.300592   8 N  pz              135      0.300349  10 N  pz        
     6      0.233482   1 C  pz               20     -0.233098   2 N  pz        

 Vector   37  Occ=0.000000D+00  E= 1.720805D-01
              MO Center= -1.3D-05,  5.8D-04, -1.0D-05, r^2= 6.4D+00
   Bfn.  Coefficient  Atom+Function         Bfn.  Coefficient  Atom+Function  
  ----- ------------  ---------------      ----- ------------  ---------------
     3      0.311377   1 C  s                59     -0.310916   5 C  s         
    87      0.310698   7 C  s               115     -0.311155   9 C  s         
    91      0.281390   7 C  px              119      0.281475   9 C  px        
    22     -0.259863   2 N  py               78     -0.259854   6 N  py        
    88      0.256430   7 C  px              116      0.256490   9 C  px        

 Vector   38  Occ=0.000000D+00  E= 1.964667D-01
              MO Center= -6.8D-04,  1.2D-03, -3.3D-06, r^2= 7.0D+00
   Bfn.  Coefficient  Atom+Function         Bfn.  Coefficient  Atom+Function  
  ----- ------------  ---------------      ----- ------------  ---------------
     9      0.305773   1 C  pz               65      0.305507   5 C  pz        
    93     -0.305487   7 C  pz              121     -0.305736   9 C  pz        
    23     -0.295897   2 N  pz               79     -0.295642   6 N  pz        
   107      0.295615   8 N  pz              135      0.295879  10 N  pz        
     6      0.279894   1 C  pz               62      0.279685   5 C  pz        

 Vector   39  Occ=0.000000D+00  E= 2.306350D-01
              MO Center=  1.8D-04, -2.6D-04, -5.9D-06, r^2= 6.8D+00
   Bfn.  Coefficient  Atom+Function         Bfn.  Coefficient  Atom+Function  
  ----- ------------  ---------------      ----- ------------  ---------------
     8      0.333058   1 C  py               64     -0.333368   5 C  py        
     5      0.326855   1 C  py               61     -0.326917   5 C  py        
    88     -0.305416   7 C  px              116      0.305358   9 C  px        
    91     -0.297221   7 C  px               22     -0.295688   2 N  py        
    78      0.295920   6 N  py              119      0.296070   9 C  px        

 Vector   40  Occ=0.000000D+00  E= 2.399876D-01
              MO Center=  5.3D-05,  1.3D-04,  6.2D-06, r^2= 6.1D+00
   Bfn.  Coefficient  Atom+Function         Bfn.  Coefficient  Atom+Function  
  ----- ------------  ---------------      ----- ------------  ---------------
     9      0.393616   1 C  pz               65      0.393605   5 C  pz        
    93      0.393605   7 C  pz              121      0.393662   9 C  pz        
    23     -0.297952   2 N  pz               79     -0.297950   6 N  pz        
   107     -0.297943   8 N  pz              135     -0.298001  10 N  pz        
    37     -0.271149   3 C  pz               51     -0.271099   4 C  pz        

 Vector   41  Occ=0.000000D+00  E= 2.850330D-01
              MO Center= -6.0D-04,  7.1D-04, -1.7D-05, r^2= 6.8D+00
   Bfn.  Coefficient  Atom+Function         Bfn.  Coefficient  Atom+Function  
  ----- ------------  ---------------      ----- ------------  ---------------
     3      1.337464   1 C  s                59      1.336191   5 C  s         
    87      1.336508   7 C  s               115      1.337554   9 C  s         
    17     -1.170970   2 N  s                73     -1.170205   6 N  s         
   101     -1.170398   8 N  s               129     -1.170841  10 N  s         
    92     -0.773810   7 C  py              120      0.773743   9 C  py        

 Vector   42  Occ=0.000000D+00  E= 2.886602D-01
              MO Center=  3.9D-04, -3.5D-04, -6.4D-06, r^2= 5.8D+00
   Bfn.  Coefficient  Atom+Function         Bfn.  Coefficient  Atom+Function  
  ----- ------------  ---------------      ----- ------------  ---------------
    17      1.185350   2 N  s                73     -1.185990   6 N  s         
   101      1.186244   8 N  s               129     -1.185919  10 N  s         
     7      1.151065   1 C  px               63      1.151895   5 C  px        
    92      0.952908   7 C  py              120      0.951744   9 C  py        
     3     -0.695494   1 C  s                59      0.695392   5 C  s         

 Vector   43  Occ=0.000000D+00  E= 3.065472D-01
              MO Center=  6.1D-04, -1.1D-03,  1.9D-05, r^2= 6.1D+00
   Bfn.  Coefficient  Atom+Function         Bfn.  Coefficient  Atom+Function  
  ----- ------------  ---------------      ----- ------------  ---------------
    17      1.119251   2 N  s                73     -1.120479   6 N  s         
   101     -1.120105   8 N  s               129      1.118735  10 N  s         
     3     -1.004014   1 C  s                59      1.005304   5 C  s         
    87      1.005095   7 C  s               115     -1.003821   9 C  s         
     7      0.897067   1 C  px               63      0.897878   5 C  px        

 Vector   44  Occ=0.000000D+00  E= 3.541488D-01
              MO Center=  2.5D-05,  3.2D-06, -2.5D-05, r^2= 4.6D+00
   Bfn.  Coefficient  Atom+Function         Bfn.  Coefficient  Atom+Function  
  ----- ------------  ---------------      ----- ------------  ---------------
    37      0.691125   3 C  pz               51     -0.691131   4 C  pz        
     9     -0.462514   1 C  pz               65      0.462526   5 C  pz        
    93      0.462525   7 C  pz              121     -0.462524   9 C  pz        
    34      0.442651   3 C  pz               48     -0.442686   4 C  pz        
    23      0.279446   2 N  pz               79     -0.279449   6 N  pz        

 Vector   45  Occ=0.000000D+00  E= 4.000109D-01
              MO Center= -5.1D-04,  9.2D-04, -3.6D-06, r^2= 8.9D+00
   Bfn.  Coefficient  Atom+Function         Bfn.  Coefficient  Atom+Function  
  ----- ------------  ---------------      ----- ------------  ---------------
    35      2.876339   3 C  px               49     -2.876088   4 C  px        
     7      2.597974   1 C  px               63     -2.596678   5 C  px        
    92     -2.381338   7 C  py              120      2.382279   9 C  py        
    17      1.816639   2 N  s                73      1.815552   6 N  s         
   101     -1.815634   8 N  s               129     -1.816745  10 N  s         

 Vector   46  Occ=0.000000D+00  E= 4.507916D-01
              MO Center=  3.4D-04, -6.3D-04, -1.6D-06, r^2= 6.7D+00
   Bfn.  Coefficient  Atom+Function         Bfn.  Coefficient  Atom+Function  
  ----- ------------  ---------------      ----- ------------  ---------------
     7      2.262114   1 C  px               63      2.264998   5 C  px        
    92      2.121391   7 C  py              120      2.118427   9 C  py        
    35      1.727844   3 C  px               49      1.732250   4 C  px        
    17      1.559587   2 N  s                73     -1.561149   6 N  s         
   101      1.561141   8 N  s               129     -1.559454  10 N  s         

 Vector   47  Occ=0.000000D+00  E= 4.847192D-01
              MO Center=  2.6D-04, -4.5D-04, -4.1D-06, r^2= 7.4D+00
   Bfn.  Coefficient  Atom+Function         Bfn.  Coefficient  Atom+Function  
  ----- ------------  ---------------      ----- ------------  ---------------
    31      4.011214   3 C  s                45      4.014671   4 C  s         
     7     -2.221226   1 C  px               63      2.221981   5 C  px        
    92     -1.749664   7 C  py              120      1.748858   9 C  py        
    17     -1.630001   2 N  s                73     -1.630375   6 N  s         
   101     -1.630055   8 N  s               129     -1.629817  10 N  s         

 Vector   48  Occ=0.000000D+00  E= 4.925128D-01
              MO Center= -4.2D-04,  7.6D-04,  1.5D-06, r^2= 7.3D+00
   Bfn.  Coefficient  Atom+Function         Bfn.  Coefficient  Atom+Function  
  ----- ------------  ---------------      ----- ------------  ---------------
    31      4.613893   3 C  s                45     -4.610793   4 C  s         
     7     -2.396938   1 C  px               63     -2.395521   5 C  px        
    92      2.207472   7 C  py              120      2.208609   9 C  py        
    17     -1.749570   2 N  s                73      1.748742   6 N  s         
   101      1.748967   8 N  s               129     -1.749886  10 N  s         

 Vector   49  Occ=0.000000D+00  E= 5.563824D-01
              MO Center= -1.4D-04,  2.8D-04,  6.2D-06, r^2= 4.8D+00
   Bfn.  Coefficient  Atom+Function         Bfn.  Coefficient  Atom+Function  
  ----- ------------  ---------------      ----- ------------  ---------------
     9     -0.422843   1 C  pz               65     -0.422770   5 C  pz        
    93     -0.422752   7 C  pz              121     -0.422856   9 C  pz        
     6      0.417649   1 C  pz               62      0.417590   5 C  pz        
    90      0.417578   7 C  pz              118      0.417657   9 C  pz        
    34      0.332517   3 C  pz               48      0.332478   4 C  pz        


   alpha - beta orbital overlaps 
   ----------------------------- 


   alpha      1      2      3      4      5      6      7      8      9     10
    beta      1      2      3      4      5      6      7      8      9     10
 overlap   1.000  1.000  1.000  1.000  1.000  1.000  1.000  0.999  0.999  1.000


   alpha     11     12     13     14     15     16     17     18     19     20
    beta     11     12     13     14     15     16     17     18     19     20
 overlap   1.000  1.000  1.000  1.000  1.000  1.000  1.000  1.000  1.000  0.997


   alpha     21     22     23     24     25     26     27     28     29     30
    beta     21     24     22     23     25     28     26     30     27     29
 overlap   0.999  0.999  1.000  1.000  1.000  0.999  1.000  0.999  0.999  1.000


   alpha     31     32     33     34     35     36     37     38     39     40
    beta     31     32     33     34     35     36     37     38     40     39
 overlap   1.000  0.997  0.998  1.000  1.000  0.999  1.000  0.999  0.999  1.000


   alpha     41     42     43     44     45     46     47     48     49     50
    beta     41     42     43     44     45     46     47     48     49     50
 overlap   1.000  1.000  0.999  0.997  1.000  1.000  0.999  0.999  0.999  1.000


   alpha     51     52     53     54     55     56     57     58     59     60
    beta     51     53     54     52     55     56     57     58     59     60
 overlap   0.999  1.000  0.998  1.000  0.999  1.000  0.998  1.000  0.999  0.999


   alpha     61     62     63     64     65     66     67     68     69     70
    beta     61     62     63     64     65     66     68     67     69     70
 overlap   1.000  1.000  1.000  1.000  1.000  1.000  1.000  1.000  1.000  1.000


   alpha     71     72     73     74     75     76     77     78     79     80
    beta     71     72     73     74     75     76     77     78     79     80
 overlap   1.000  1.000  1.000  1.000  1.000  1.000  1.000  1.000  1.000  1.000


   alpha     81     82     83     84     85     86     87     88     89     90
    beta     81     82     83     84     85     87     86     88     89     90
 overlap   1.000  1.000  1.000  1.000  1.000  0.997  1.000  1.000  1.000  0.997


   alpha     91     92     93     94     95     96     97     98     99    100
    beta     91     92     93     94     95     96     97     98     99    100
 overlap   1.000  1.000  1.000  1.000  0.909  0.909  1.000  1.000  1.000  1.000


   alpha    101    102    103    104    105    106    107    108    109    110
    beta    101    103    102    105    104    106    107    108    109    110
 overlap   1.000  1.000  1.000  1.000  1.000  1.000  1.000  1.000  0.999  1.000


   alpha    111    112    113    114    115    116    117    118    119    120
    beta    111    112    113    114    115    116    117    118    119    120
 overlap   1.000  1.000  1.000  1.000  1.000  1.000  1.000  1.000  1.000  0.999


   alpha    121    122    123    124    125    126    127    128    129    130
    beta    121    122    123    124    125    126    127    128    129    130
 overlap   1.000  0.999  0.999  1.000  1.000  1.000  1.000  1.000  1.000  1.000


   alpha    131    132    133    134    135    136    137    138    139    140
    beta    131    132    133    134    135    136    137    138    139    140
 overlap   1.000  1.000  1.000  1.000  1.000  1.000  1.000  1.000  1.000  1.000


     --------------------------
     Expectation value of S2:  
     --------------------------
      <S2> =      0.7583 (Exact =     0.7500)


 center of mass
 --------------
 x =   0.00001198 y =  -0.00002263 z =  -0.00001063

 moments of inertia (a.u.)
 ------------------
        1236.244832072204           8.559125353376           0.007127275214
           8.559125353376        1226.361856483602          -0.073369495774
           0.007127275214          -0.073369495774        2462.606679682553

     Multipole analysis of the density
     ---------------------------------

     L   x y z        total         alpha         beta         nuclear
     -   - - -        -----         -----         ----         -------
     0   0 0 0     -1.000000    -33.000000    -32.000000     64.000000

     1   1 0 0     -0.000094     -0.000426     -0.000434      0.000766
     1   0 1 0      0.000728      0.001109      0.001065     -0.001447
     1   0 0 1      0.000028      0.000359      0.000349     -0.000680

     2   2 0 0    -65.874255   -344.248066   -334.704375    613.078187
     2   1 1 0     -2.501868      0.923744      0.859556     -4.285168
     2   1 0 1      0.000052      0.001843      0.001773     -0.003563
     2   0 2 0    -62.985606   -345.314824   -335.696929    618.026148
     2   0 1 1     -0.001328     -0.019235     -0.018772      0.036679
     2   0 0 2    -41.516479    -21.575696    -19.940785      0.000002


 Parallel integral file used     436 records with       0 large values


 Task  times  cpu:       37.7s     wall:       39.4s


                                NWChem Input Module
                                -------------------



                           NWChem Real-Time TDDFT Module
                           -----------------------------


                                Tetracyanoethylene



  The DFT is already converged 

         Total DFT energy =   -447.659163717001

  Caching 1-el integrals 

            General Information
            -------------------
          SCF calculation type: DFT
          Wavefunction type:  spin polarized.
          No. of atoms     :    10
          No. of electrons :    65
           Alpha electrons :    33
            Beta electrons :    32
          Charge           :    -1
          Spin multiplicity:     2
          Use of symmetry is: off; symmetry adaption is: off
          Maximum number of iterations:  30
          AO basis - number of functions:   140
                     number of shells:    60
          Convergence on energy requested: 1.00D-06
          Convergence on density requested: 1.00D-05
          Convergence on gradient requested: 5.00D-04

              XC Information
              --------------
                         B3LYP Method XC Potential
                     Hartree-Fock (Exact) Exchange  0.200          
                        Slater Exchange Functional  0.800 local    
                    Becke 1988 Exchange Functional  0.720 non-local
              Lee-Yang-Parr Correlation Functional  0.810          
                  VWN I RPA Correlation Functional  0.190 local    

             Grid Information
             ----------------
          Grid used for XC integration:  medium    
          Radial quadrature: Mura-Knowles        
          Angular quadrature: Lebedev. 
          Tag              B.-S. Rad. Rad. Pts. Rad. Cut. Ang. Pts.
          ---              ---------- --------- --------- ---------
          C                   0.70       49          11.0       434
          N                   0.65       49          13.0       434
          Grid pruning is: on 
          Number of quadrature shells:   490
          Spatial weights used:  Erf1

          Convergence Information
          -----------------------
          Convergence aids based upon iterative change in 
          total energy or number of iterations. 
          Levelshifting, if invoked, occurs when the 
          HOMO/LUMO gap drops below (HL_TOL): 1.00D-02
          DIIS, if invoked, will attempt to extrapolate 
          using up to (NFOCK): 10 stored Fock matrices.

                    Damping( 0%)  Levelshifting(0.5)       DIIS
                  --------------- ------------------- ---------------
          dE  on:    start            ASAP                start   
          dE off:    2 iters         30 iters            30 iters 


      Screening Tolerance Information
      -------------------------------
          Density screening/tol_rho: 1.00D-10
          AO Gaussian exp screening on grid/accAOfunc:  14
          CD Gaussian exp screening on grid/accCDfunc:  20
          XC Gaussian exp screening on grid/accXCfunc:  20
          Schwarz screening/accCoul: 1.00D-08

 
 ***********************
 * Open-shell RT-TDDFT *
 ***********************
 
 
****************************** WARNING ****************************** 
  Schwartz screening tolerance is similar to the Magnus interpolation  
  tolerance--this may cause problems with convergence.  If  
  so, try loosening tol_interpol. 
********************************************************************* 
 
 
 
 Geometry               Atoms      Basis func.   Nuc. charge          Nuc. dip. mom.
 -----------------------------------------------------------------------------------------
 *system              10 (100% )   140 (100% )     64.00        0.00      0.00      0.00

=============== Geometry Initialization ===============
  Active geometry: "system"
  No linear dependencies
  Number of atomic orbitals    = 140
  Number of molecular orbitals = 140
=======================================================

 
 
             System parameters
             -----------------
     No. atoms              : 10
     Wavefunction type      : spin polarized
     No. alpha electrons    : 33
     No. beta electrons     : 32
     Total no. electrons    : 65
     System charge          : -1
 
 
               2e integrals
               ------------
     tol2e for real part of Fock matrix: 1.0000E-08
     tol2e for imag part of Fock matrix: 1.0000E-10
 
 
                    Propagation parameters
                    ----------------------
     End time (tmax)       : 2.0000E+00 au = 4.8378E-02 fs
     Time step (dt)        : 2.0000E-01 au = 4.8378E-03 fs
     No. time steps (nt)   : 10
     Progagation method    : 2nd order Magnus w/ self-consistent interpolation
     Exponentiation method : Adaptive contractive power series
 
 
                        Tolerances
                        ----------
     Zero / comparison / check tolerance  : 1.0000E-08
     Series convergence tolerance         : 1.0000E-10
     Interpolation convergence tolerance  : 1.0000E-07
     Reqd no. zero terms in series        : 3
     Reqd no. zero terms in interpolation : 1
 
 
                Output and checking parameters
                ------------------------------
     Quantites to print : messages, dipole, field, energy, <S^2>
     No. print points   : 10 (once every 1 time steps)
     No. checks         : 10 (once every 1 time steps)
     No. restart points : None
     Checking level     : 1 (checkpoints only)
     Profiling          : No
 
 
 Dipole and quadrupole matrices
 ------------------------------
     Center of mass = ( 1.1983E-05, -2.2628E-05, -1.0629E-05)
     norm[D_x]  = 2.6867E+01
     norm[D_y]  = 2.8799E+01
     norm[D_z]  = 1.2712E+01
     norm[Q_xx] = 1.2319E+02
     norm[Q_xy] = 4.2299E+01
     norm[Q_xz] = 2.1481E+01
     norm[Q_yy] = 1.2590E+02
     norm[Q_yz] = 3.8683E+01
     norm[Q_zz] = 2.2487E+01
 
 
         Applied fields
         --------------
 
               "ka"
     Type            : delta
     Polarization    : z
     Field maximum   : 1.0000E-03 au = 5.1421E-01 V/nm
 
               "kb"
     Type            : delta
     Polarization    : z
     Field maximum   : 1.0000E-03 au = 5.1421E-01 V/nm
 
 
        Excitation rules
        ----------------
     Excite geometry "system" with "ka"
     Excite geometry "system" with "kb"
 
 
                              Open shell propagation
                              ----------------------
 
 
 Initial state: Imported open shell MO eigenvectors
 --------------------------------------------------
 
****************************** WARNING ****************************** 
  Starting movecs not specified--trying SCF output: 
   ./tcne-rt-tddft.movecs 
********************************************************************* 
 
 
****************************** WARNING ****************************** 
  Didnt check mo_ns_mo(2) == ns_mo 
********************************************************************* 
 
 
   Vector      Occupation     Eigenvalue [au]
[...]
        53        0.00        6.17251152E-01
        54        0.00        6.22611177E-01
        55        0.00        6.34842748E-01
        56        0.00        6.45826623E-01
        57        0.00        6.78601124E-01
        58        0.00        7.14156199E-01
        59        0.00        7.44766303E-01
        60        0.00        7.45142930E-01
        61        0.00        7.49237406E-01
        62        0.00        7.76262020E-01
        63        0.00        7.99580387E-01
        64        0.00        8.03945542E-01
        65        0.00        8.12762040E-01
        66        0.00        8.43511470E-01
        67        0.00        8.67368156E-01
        68        0.00        8.68464192E-01
        69        0.00        9.41981660E-01
        70        0.00        9.43669968E-01
        71        0.00        9.55301564E-01
        72        0.00        9.80036302E-01
        73        0.00        9.83588233E-01
        74        0.00        1.00372307E+00
        75        0.00        1.00551541E+00
        76        0.00        1.02321218E+00
        77        0.00        1.04904149E+00
        78        0.00        1.07111177E+00
        79        0.00        1.08445320E+00
        80        0.00        1.09821949E+00
        81        0.00        1.11554139E+00
        82        0.00        1.11894064E+00
        83        0.00        1.17755942E+00
        84        0.00        1.18851801E+00
        85        0.00        1.19997459E+00
        86        0.00        1.21326362E+00
        87        0.00        1.21482122E+00
        88        0.00        1.21642313E+00
        89        0.00        1.29320849E+00
        90        0.00        1.30331774E+00
        91        0.00        1.31324353E+00
        92        0.00        1.33676658E+00
        93        0.00        1.46075560E+00
        94        0.00        1.48436486E+00
        95        0.00        1.49099891E+00
        96        0.00        1.50036587E+00
        97        0.00        1.50239560E+00
        98        0.00        1.59659794E+00
        99        0.00        1.60617343E+00
       100        0.00        1.65494609E+00
       101        0.00        1.66391022E+00
       102        0.00        1.68821569E+00
       103        0.00        1.69032021E+00
       104        0.00        1.73734954E+00
       105        0.00        1.74035139E+00
       106        0.00        1.79839765E+00
       107        0.00        1.82458097E+00
       108        0.00        1.83616826E+00
       109        0.00        1.87184469E+00
       110        0.00        1.91087790E+00
       111        0.00        1.94479528E+00
       112        0.00        2.00090660E+00
       113        0.00        2.03737899E+00
       114        0.00        2.04025624E+00
       115        0.00        2.04238708E+00
       116        0.00        2.05382640E+00
       117        0.00        2.05739443E+00
       118        0.00        2.06307277E+00
       119        0.00        2.07787721E+00
       120        0.00        2.13791422E+00
       121        0.00        2.16056465E+00
       122        0.00        2.21386764E+00
       123        0.00        2.39767979E+00
       124        0.00        2.44732780E+00
       125        0.00        2.64930922E+00
       126        0.00        2.64971845E+00
       127        0.00        2.70047136E+00
       128        0.00        2.71881907E+00
       129        0.00        2.81471885E+00
       130        0.00        2.85317882E+00
       131        0.00        2.88182416E+00
       132        0.00        2.90216392E+00
       133        0.00        2.91975612E+00
       134        0.00        2.96430613E+00
       135        0.00        3.01981164E+00
       136        0.00        3.02941708E+00
       137        0.00        3.03942306E+00
       138        0.00        3.06419211E+00
       139        0.00        3.21397298E+00
       140        0.00        3.29277852E+00
 

 Integral file          = ./tcne-rt-tddft.aoints.0
 Record size in doubles =  65536        No. of integs per rec  =  43688
 Max. records in memory =    378        Max. records in file   =   6881
 No. of bits per label  =      8        No. of bits per value  =     64


 #quartets = 1.160D+06 #integrals = 2.209D+07 #direct =  0.0% #cached =100.0%


File balance: exchanges=     3  moved=    22  time=   0.0


 Grid_pts file          = ./tcne-rt-tddft.gridpts.0
 Record size in doubles =  12289        No. of grid_pts per rec  =   3070
 Max. records in memory =     21        Max. recs in file   =     36700

<rt_tddft>:      0.00000        ### Propagation started ###
<rt_tddft>:      0.00000        ### Checks passed ###
<rt_tddft>:      0.00000   3.746926548725E+002     # Enuc
<rt_tddft>:      0.00000  -1.357585641999E+003     # Ecore
<rt_tddft>:      0.00000   5.954826601474E+002     # Ecoul
<rt_tddft>:      0.00000  -6.024883678914E+001     # Exc(1)
<rt_tddft>:      0.00000   0.000000000000E+000     # Exc(2)
<rt_tddft>:      0.00000  -4.476591637681E+002     # Etot
<rt_tddft>:      0.00000  -2.273736754432E-013     # Eadded
<rt_tddft>:      0.00000   7.583350352863E-001     # <S^2>
<rt_tddft>:      0.00000  -9.410000564181E-005   7.276948897275E-004   2.810472415996E-005     # Dipole moment [system] (total spin)
<rt_tddft>:      0.00000   0.000000000000E+000   0.000000000000E+000   1.000000000000E-003     # Applied E-field [system] (alpha spin)
<rt_tddft>:      0.00000   0.000000000000E+000   0.000000000000E+000   1.000000000000E-003     # Applied E-field [system] (beta spin)
<rt_tddft>:      0.00000   1.463729730311E-006     # Magnus interpol (matrix 1 of 2)
<rt_tddft>:      0.00000   1.437930922776E-006     # Magnus interpol (matrix 2 of 2)
<rt_tddft>:      0.00000   1.084941088081E-007     # Magnus interpol (matrix 1 of 2)
<rt_tddft>:      0.00000   1.070440602824E-007     # Magnus interpol (matrix 2 of 2)
<rt_tddft>:      0.00000   2.340067695172E-009     # Magnus interpol (matrix 1 of 2)
<rt_tddft>:      0.00000   2.311370206343E-009     # Magnus interpol (matrix 2 of 2)
<rt_tddft>:      0.00000                     4     # Magnus total interpolations
<rt_tddft>:      0.20000        ### Checks passed ###
<rt_tddft>:      0.20000        ### Estimated time remaining: 2 minute(s) 38 second(s) ###
<rt_tddft>:      0.20000   3.746926548725E+002     # Enuc
<rt_tddft>:      0.20000  -1.357585639747E+003     # Ecore
<rt_tddft>:      0.20000   5.954826575965E+002     # Ecoul
<rt_tddft>:      0.20000  -6.024883623870E+001     # Exc(1)
<rt_tddft>:      0.20000   0.000000000000E+000     # Exc(2)
<rt_tddft>:      0.20000  -4.476591635165E+002     # Etot
<rt_tddft>:      0.20000   2.515669166314E-007     # Eadded
<rt_tddft>:      0.20000   7.583352320681E-001     # <S^2>
<rt_tddft>:      0.20000  -9.482747448608E-005   7.240068394481E-004   5.312335097004E-004     # Dipole moment [system] (total spin)
<rt_tddft>:      0.20000   0.000000000000E+000   0.000000000000E+000   0.000000000000E+000     # Applied E-field [system] (alpha spin)
<rt_tddft>:      0.20000   0.000000000000E+000   0.000000000000E+000   0.000000000000E+000     # Applied E-field [system] (beta spin)
<rt_tddft>:      0.20000   1.727796386852E-006     # Magnus interpol (matrix 1 of 2)
<rt_tddft>:      0.20000   1.707265188777E-006     # Magnus interpol (matrix 2 of 2)
<rt_tddft>:      0.20000   1.056637186636E-007     # Magnus interpol (matrix 1 of 2)
<rt_tddft>:      0.20000   1.046510007541E-007     # Magnus interpol (matrix 2 of 2)
<rt_tddft>:      0.20000   2.458051095999E-009     # Magnus interpol (matrix 1 of 2)
<rt_tddft>:      0.20000   2.436153945240E-009     # Magnus interpol (matrix 2 of 2)
<rt_tddft>:      0.20000                     4     # Magnus total interpolations
<rt_tddft>:      0.40000        ### Checks passed ###
<rt_tddft>:      0.40000        ### Estimated time remaining: 2 minute(s) 7 second(s) ###
<rt_tddft>:      0.40000   3.746926548725E+002     # Enuc
<rt_tddft>:      0.40000  -1.357585635123E+003     # Ecore
<rt_tddft>:      0.40000   5.954826512609E+002     # Ecoul
<rt_tddft>:      0.40000  -6.024883452650E+001     # Exc(1)
<rt_tddft>:      0.40000   0.000000000000E+000     # Exc(2)
<rt_tddft>:      0.40000  -4.476591635165E+002     # Etot
<rt_tddft>:      0.40000   2.515655523894E-007     # Eadded
<rt_tddft>:      0.40000   7.583351713155E-001     # <S^2>
<rt_tddft>:      0.40000  -9.673115334330E-005   7.145284007795E-004   1.389020518086E-003     # Dipole moment [system] (total spin)
<rt_tddft>:      0.40000   0.000000000000E+000   0.000000000000E+000   0.000000000000E+000     # Applied E-field [system] (alpha spin)
<rt_tddft>:      0.40000   0.000000000000E+000   0.000000000000E+000   0.000000000000E+000     # Applied E-field [system] (beta spin)
<rt_tddft>:      0.40000   6.965450882745E-009     # Magnus interpol (matrix 1 of 2)
<rt_tddft>:      0.40000   7.213598163247E-009     # Magnus interpol (matrix 2 of 2)
<rt_tddft>:      0.40000                     2     # Magnus total interpolations
<rt_tddft>:      0.60000        ### Checks passed ###
<rt_tddft>:      0.60000        ### Estimated time remaining: 1 minute(s) 32 second(s) ###
<rt_tddft>:      0.60000   3.746926548725E+002     # Enuc
<rt_tddft>:      0.60000  -1.357585628346E+003     # Ecore
<rt_tddft>:      0.60000   5.954826416012E+002     # Ecoul
<rt_tddft>:      0.60000  -6.024883164464E+001     # Exc(1)
<rt_tddft>:      0.60000   0.000000000000E+000     # Exc(2)
<rt_tddft>:      0.60000  -4.476591635165E+002     # Etot
<rt_tddft>:      0.60000   2.515649839552E-007     # Eadded
<rt_tddft>:      0.60000   7.583350788678E-001     # <S^2>
<rt_tddft>:      0.60000  -9.972258458824E-005   6.990118928680E-004   2.130186277044E-003     # Dipole moment [system] (total spin)
<rt_tddft>:      0.60000   0.000000000000E+000   0.000000000000E+000   0.000000000000E+000     # Applied E-field [system] (alpha spin)
<rt_tddft>:      0.60000   0.000000000000E+000   0.000000000000E+000   0.000000000000E+000     # Applied E-field [system] (beta spin)
<rt_tddft>:      0.60000   1.466487153934E-008     # Magnus interpol (matrix 1 of 2)
<rt_tddft>:      0.60000   1.424751605583E-008     # Magnus interpol (matrix 2 of 2)
<rt_tddft>:      0.60000                     2     # Magnus total interpolations
<rt_tddft>:      0.80000        ### Checks passed ###
<rt_tddft>:      0.80000        ### Estimated time remaining: 1 minute(s) 10 second(s) ###
<rt_tddft>:      0.80000   3.746926548725E+002     # Enuc
<rt_tddft>:      0.80000  -1.357585625788E+003     # Ecore
<rt_tddft>:      0.80000   5.954826365090E+002     # Ecoul
<rt_tddft>:      0.80000  -6.024882910964E+001     # Exc(1)
<rt_tddft>:      0.80000   0.000000000000E+000     # Exc(2)
<rt_tddft>:      0.80000  -4.476591635165E+002     # Etot
<rt_tddft>:      0.80000   2.515671440051E-007     # Eadded
<rt_tddft>:      0.80000   7.583349836828E-001     # <S^2>
<rt_tddft>:      0.80000  -1.036743227250E-004   6.796668053255E-004   2.664379792284E-003     # Dipole moment [system] (total spin)
<rt_tddft>:      0.80000   0.000000000000E+000   0.000000000000E+000   0.000000000000E+000     # Applied E-field [system] (alpha spin)
<rt_tddft>:      0.80000   0.000000000000E+000   0.000000000000E+000   0.000000000000E+000     # Applied E-field [system] (beta spin)
<rt_tddft>:      0.80000   1.176028519012E-008     # Magnus interpol (matrix 1 of 2)
<rt_tddft>:      0.80000   1.162933616072E-008     # Magnus interpol (matrix 2 of 2)
<rt_tddft>:      0.80000                     2     # Magnus total interpolations
<rt_tddft>:      1.00000        ### Checks passed ###
<rt_tddft>:      1.00000        ### Estimated time remaining: 53 second(s) ###
<rt_tddft>:      1.00000   3.746926548725E+002     # Enuc
<rt_tddft>:      1.00000  -1.357585625753E+003     # Ecore
<rt_tddft>:      1.00000   5.954826332835E+002     # Ecoul
<rt_tddft>:      1.00000  -6.024882591920E+001     # Exc(1)
<rt_tddft>:      1.00000   0.000000000000E+000     # Exc(2)
<rt_tddft>:      1.00000  -4.476591635165E+002     # Etot
<rt_tddft>:      1.00000   2.515630512789E-007     # Eadded
<rt_tddft>:      1.00000   7.583349085249E-001     # <S^2>
<rt_tddft>:      1.00000  -1.081272892041E-004   6.573001710173E-004   2.898095914533E-003     # Dipole moment [system] (total spin)
<rt_tddft>:      1.00000   0.000000000000E+000   0.000000000000E+000   0.000000000000E+000     # Applied E-field [system] (alpha spin)
<rt_tddft>:      1.00000   0.000000000000E+000   0.000000000000E+000   0.000000000000E+000     # Applied E-field [system] (beta spin)
<rt_tddft>:      1.00000   6.662040696881E-009     # Magnus interpol (matrix 1 of 2)
<rt_tddft>:      1.00000   6.487747672423E-009     # Magnus interpol (matrix 2 of 2)
<rt_tddft>:      1.00000                     2     # Magnus total interpolations
<rt_tddft>:      1.20000        ### Checks passed ###
<rt_tddft>:      1.20000        ### Estimated time remaining: 38 second(s) ###
<rt_tddft>:      1.20000   3.746926548725E+002     # Enuc
<rt_tddft>:      1.20000  -1.357585633421E+003     # Ecore
<rt_tddft>:      1.20000   5.954826388011E+002     # Ecoul
<rt_tddft>:      1.20000  -6.024882376881E+001     # Exc(1)
<rt_tddft>:      1.20000   0.000000000000E+000     # Exc(2)
<rt_tddft>:      1.20000  -4.476591635165E+002     # Etot
<rt_tddft>:      1.20000   2.515640744605E-007     # Eadded
<rt_tddft>:      1.20000   7.583348596216E-001     # <S^2>
<rt_tddft>:      1.20000  -1.128405061781E-004   6.331344106645E-004   2.853799228276E-003     # Dipole moment [system] (total spin)
<rt_tddft>:      1.20000   0.000000000000E+000   0.000000000000E+000   0.000000000000E+000     # Applied E-field [system] (alpha spin)
<rt_tddft>:      1.20000   0.000000000000E+000   0.000000000000E+000   0.000000000000E+000     # Applied E-field [system] (beta spin)
<rt_tddft>:      1.20000   3.833451778235E-009     # Magnus interpol (matrix 1 of 2)
<rt_tddft>:      1.20000   3.627858458088E-009     # Magnus interpol (matrix 2 of 2)
<rt_tddft>:      1.20000                     2     # Magnus total interpolations
<rt_tddft>:      1.40000        ### Checks passed ###
<rt_tddft>:      1.40000        ### Estimated time remaining: 24 second(s) ###
<rt_tddft>:      1.40000   3.746926548725E+002     # Enuc
<rt_tddft>:      1.40000  -1.357585646129E+003     # Ecore
<rt_tddft>:      1.40000   5.954826496926E+002     # Ecoul
<rt_tddft>:      1.40000  -6.024882195273E+001     # Exc(1)
<rt_tddft>:      1.40000   0.000000000000E+000     # Exc(2)
<rt_tddft>:      1.40000  -4.476591635165E+002     # Etot
<rt_tddft>:      1.40000   2.515622554711E-007     # Eadded
<rt_tddft>:      1.40000   7.583348341462E-001     # <S^2>
<rt_tddft>:      1.40000  -1.175896224641E-004   6.082299556418E-004   2.644520249601E-003     # Dipole moment [system] (total spin)
<rt_tddft>:      1.40000   0.000000000000E+000   0.000000000000E+000   0.000000000000E+000     # Applied E-field [system] (alpha spin)
<rt_tddft>:      1.40000   0.000000000000E+000   0.000000000000E+000   0.000000000000E+000     # Applied E-field [system] (beta spin)
<rt_tddft>:      1.40000   5.145022186070E-009     # Magnus interpol (matrix 1 of 2)
<rt_tddft>:      1.40000   5.130026625721E-009     # Magnus interpol (matrix 2 of 2)
<rt_tddft>:      1.40000                     2     # Magnus total interpolations
<rt_tddft>:      1.60000        ### Checks passed ###
<rt_tddft>:      1.60000        ### Estimated time remaining: 12 second(s) ###
<rt_tddft>:      1.60000   3.746926548725E+002     # Enuc
<rt_tddft>:      1.60000  -1.357585663757E+003     # Ecore
<rt_tddft>:      1.60000   5.954826663593E+002     # Ecoul
<rt_tddft>:      1.60000  -6.024882099169E+001     # Exc(1)
<rt_tddft>:      1.60000   0.000000000000E+000     # Exc(2)
<rt_tddft>:      1.60000  -4.476591635165E+002     # Etot
<rt_tddft>:      1.60000   2.515645292078E-007     # Eadded
<rt_tddft>:      1.60000   7.583348237178E-001     # <S^2>
<rt_tddft>:      1.60000  -1.219238539978E-004   5.831022596983E-004   2.196287299015E-003     # Dipole moment [system] (total spin)
<rt_tddft>:      1.60000   0.000000000000E+000   0.000000000000E+000   0.000000000000E+000     # Applied E-field [system] (alpha spin)
<rt_tddft>:      1.60000   0.000000000000E+000   0.000000000000E+000   0.000000000000E+000     # Applied E-field [system] (beta spin)
<rt_tddft>:      1.60000   9.820706026176E-009     # Magnus interpol (matrix 1 of 2)
<rt_tddft>:      1.60000   9.582318938328E-009     # Magnus interpol (matrix 2 of 2)
<rt_tddft>:      1.60000                     2     # Magnus total interpolations
<rt_tddft>:      1.80000        ### Propagation finished ###

 Parallel integral file used     508 records with       0 large values


 Task  times  cpu:      113.7s     wall:      115.6s


                                NWChem Input Module
                                -------------------


 Summary of allocated global arrays
-----------------------------------
  No active global arrays



                         GA Statistics for process    0
                         ------------------------------

       create   destroy   get      put      acc     scatter   gather  read&inc
calls: 2733     2733     1.64e+05 7.74e+04 9.61e+04    0        0        0     
number of processes/call 1.19e+00 1.32e+00 1.01e+00 0.00e+00 0.00e+00
bytes total:             7.79e+08 3.14e+08 1.87e+08 0.00e+00 0.00e+00 0.00e+00
bytes remote:            4.50e+08 4.38e+07 1.32e+08 0.00e+00 0.00e+00 0.00e+00
Max memory consumed for GA by this process: 3802400 bytes

MA_summarize_allocated_blocks: starting scan ...
MA_summarize_allocated_blocks: scan completed: 0 heap blocks, 0 stack blocks
MA usage statistics:

	allocation statistics:
					      heap	     stack
					      ----	     -----
	current number of blocks	         0	         0
	maximum number of blocks	        23	        47
	current total bytes		         0	         0
	maximum total bytes		 200311768	  22520568
	maximum total K-bytes		    200312	     22521
	maximum total M-bytes		       201	        23


                                     CITATION
                                     --------
                Please cite the following reference when publishing
                           results obtained with NWChem:

                 M. Valiev, E.J. Bylaska, N. Govind, K. Kowalski,
              T.P. Straatsma, H.J.J. van Dam, D. Wang, J. Nieplocha,
                        E. Apra, T.L. Windus, W.A. de Jong
                 "NWChem: a comprehensive and scalable open-source
                  solution for large scale molecular simulations"
                      Comput. Phys. Commun. 181, 1477 (2010)
                           doi:10.1016/j.cpc.2010.04.018

                              AUTHORS & CONTRIBUTORS
                              ----------------------
          E. Apra, E. J. Bylaska, W. A. de Jong, N. Govind, K. Kowalski,
       T. P. Straatsma, M. Valiev, H. J. J. van Dam, D. Wang, T. L. Windus,
    J. Hammond, J. Autschbach, F. Aquino, S. Hirata, M. T. Hackler, K. Lopata,
      J. Mullin, P. Nichols, R. Peverati, Y. Zhao, P.-D. Fan, R. J. Harrison,
        M. Dupuis, D. M. A. Smith, J. Nieplocha, V. Tipparaju, M. Krishnan,
       B. E. Van Kuiken, A. Vazquez-Mayagoitia, L. Jensen, M. Swart, Q. Wu,
   T. Van Voorhis, A. A. Auer, M. Nooijen, L. D. Crosby, E. Brown, G. Cisneros,
      G. I. Fann, H. Fruchtl, J. Garza, K. Hirao, R. Kendall, J. A. Nichols,
        K. Tsemekhman, K. Wolinski, J. Anchell, D. Bernholdt, P. Borowski,
  T. Clark, D. Clerc, H. Dachsel, M. Deegan, K. Dyall, D. Elwood, E. Glendening,
         M. Gutowski, A. Hess, J. Jaffe, B. Johnson, J. Ju, R. Kobayashi,
     R. Kutteh, Z. Lin, R. Littlefield, X. Long, B. Meng, T. Nakajima, S. Niu,
      L. Pollack, M. Rosing, K. Glaesemann, G. Sandrone, M. Stave, H. Taylor,
                  G. Thomas, J. H. van Lenthe, A. Wong, Z. Zhang.

 Total times  cpu:      151.4s     wall:      156.2s
