 argument  1 = gw_openshell.nw



============================== echo of input deck ==============================
title "GW Trifluoroacetamide"
start
echo

memory 2000 mb

geometry
F  -1.0459    -1.2746    -0.0047
F  -1.1324     0.6060     1.0928
F  -1.1342     0.6142    -1.0878
O   1.5154     1.1380    -0.0012
N   1.4926    -1.1655    -0.0010
C  -0.5961     0.0059    -0.0002
C   0.9005     0.0760     0.0021
H   2.5025    -1.2628    -0.0022
H   0.9511    -2.0241    -0.0008
end

basis "ao basis" spherical
 * library cc-pvdz
end

basis "cd basis" spherical
 * library cc-pvdz-rifit
end

charge -1.0

dft
 odft
 mult 2
 xc pbe96
 direct
 grid fine nodisk
 tolerances accCoul 12
 noprint "final vectors analysis"
end

gw
 states alpha occ 5 vir 5
 states beta occ 5 vir 5
 method cdgw
 solver newton 15
end

task dft gw



dft
 noscf
end

gw
 states alpha occ 5 vir 5
 states beta occ 5 vir 5
 method cdgw 128
 solver graph
end

task dft gw

dft
 noscf
end

gw
 states alpha occ 5 vir 5
 states beta occ 5 vir 5
 solver newton 15
end

task dft gw

dft; noscf; end

gw
 states alpha occ 5 vir 5
 states beta occ 5 vir 5
 solver graph
end

task dft gw
================================================================================


                                         
                                         


             Northwest Computational Chemistry Package (NWChem) 7.0.1
             --------------------------------------------------------


                    Environmental Molecular Sciences Laboratory
                       Pacific Northwest National Laboratory
                                Richland, WA 99352

                              Copyright (c) 1994-2020
                       Pacific Northwest National Laboratory
                            Battelle Memorial Institute

             NWChem is an open-source computational chemistry package
                        distributed under the terms of the
                      Educational Community License (ECL) 2.0
             A copy of the license is included with this distribution
                              in the LICENSE.TXT file

                                  ACKNOWLEDGMENT
                                  --------------

            This software and its documentation were developed at the
            EMSL at Pacific Northwest National Laboratory, a multiprogram
            national laboratory, operated for the U.S. Department of Energy
            by Battelle under Contract Number DE-AC05-76RL01830. Support
            for this work was provided by the Department of Energy Office
            of Biological and Environmental Research, Office of Basic
            Energy Sciences, and the Office of Advanced Scientific Computing.


           Job information
           ---------------

    hostname        = dmejiar-VirtualBox
    program         = nwchem
    date            = Wed Feb  2 13:01:33 2022

    compiled        = Wed_Feb_02_12:41:12_2022
    source          = /home/dmejiar/Software/nwchem_gfortran_gw
    nwchem branch   = 7.0.0
    nwchem revision = nwchem_on_git-3444-ge9bfc90177
    ga revision     = 5.8.0
    use scalapack   = T
    input           = gw_openshell.nw
    prefix          = gw_openshell.
    data base       = ./gw_openshell.db
    status          = startup
    nproc           =        2
    time left       =     -1s



           Memory information
           ------------------

    heap     =   65535994 doubles =    500.0 Mbytes
    stack    =   65535999 doubles =    500.0 Mbytes
    global   =  131072000 doubles =   1000.0 Mbytes (distinct from heap & stack)
    total    =  262143993 doubles =   2000.0 Mbytes
    verify   = yes
    hardfail = no 


           Directory information
           ---------------------

  0 permanent = .
  0 scratch   = .




                                NWChem Input Module
                                -------------------


                               GW Trifluoroacetamide
                               ---------------------

 Scaling coordinates for geometry "geometry" by  1.889725989
 (inverse scale =  0.529177249)

 C1  symmetry detected

          ------
          auto-z
          ------
  no constraints, skipping    0.0000000000000000     
  no constraints, skipping    0.0000000000000000     


                             Geometry "geometry" -> ""
                             -------------------------

 Output coordinates in angstroms (scale by  1.889725989 to convert to a.u.)

  No.       Tag          Charge          X              Y              Z
 ---- ---------------- ---------- -------------- -------------- --------------
    1 F                    9.0000    -1.26531513     0.96989958    -0.00462346
    2 F                    9.0000     0.61149144     1.11813369     1.09276827
    3 F                    9.0000     0.61951743     1.12000872    -1.08783232
    4 O                    8.0000     1.22999737    -1.51088887    -0.00103045
    5 N                    7.0000    -1.07301103    -1.56365574    -0.00070901
    6 C                    6.0000     0.02924952     0.56234230    -0.00015303
    7 C                    6.0000     0.14840029    -0.93115295     0.00227309
    8 H                    1.0000    -1.13713409    -2.57620388    -0.00181615
    9 H                    1.0000    -1.94891020    -1.05060909    -0.00051000

      Atomic Mass 
      ----------- 

      F                 18.998400
      O                 15.994910
      N                 14.003070
      C                 12.000000
      H                  1.007825


 Effective nuclear repulsion energy (a.u.)     334.9698997738

            Nuclear Dipole moment (a.u.) 
            ----------------------------
        X                 Y               Z
 ---------------- ---------------- ----------------
    -0.0000000000     0.0000000000     0.0000000000



                                Z-matrix (autoz)
                                -------- 

 Units are Angstrom for bonds and degrees for angles

      Type          Name      I     J     K     L     M      Value
      ----------- --------  ----- ----- ----- ----- ----- ----------
    1 Stretch                  1     6                       1.35721
    2 Stretch                  2     6                       1.35735
    3 Stretch                  3     6                       1.35737
    4 Stretch                  4     7                       1.22717
    5 Stretch                  5     7                       1.37547
    6 Stretch                  5     8                       1.01458
    7 Stretch                  5     9                       1.01509
    8 Stretch                  6     7                       1.49824
    9 Bend                     1     6     2               106.78906
   10 Bend                     1     6     3               106.78478
   11 Bend                     1     6     7               112.03670
   12 Bend                     2     6     3               106.88464
   13 Bend                     2     6     7               111.88559
   14 Bend                     3     6     7               112.10195
   15 Bend                     4     7     5               124.43086
   16 Bend                     4     7     6               122.75221
   17 Bend                     5     7     6               112.81550
   18 Bend                     7     5     8               121.00086
   19 Bend                     7     5     9               122.26360
   20 Bend                     8     5     9               116.73547
   21 Torsion                  1     6     7     4         179.59088
   22 Torsion                  1     6     7     5           0.00775
   23 Torsion                  2     6     7     4         -60.51389
   24 Torsion                  2     6     7     5         119.90299
   25 Torsion                  3     6     7     4          59.54967
   26 Torsion                  3     6     7     5        -120.03345
   27 Torsion                  4     7     5     8           0.27386
   28 Torsion                  4     7     5     9        -179.81955
   29 Torsion                  6     7     5     8         179.84879
   30 Torsion                  6     7     5     9          -0.24462


            XYZ format geometry
            -------------------
     9
 geometry
 F                    -1.26531513     0.96989958    -0.00462346
 F                     0.61149144     1.11813369     1.09276827
 F                     0.61951743     1.12000872    -1.08783232
 O                     1.22999737    -1.51088887    -0.00103045
 N                    -1.07301103    -1.56365574    -0.00070901
 C                     0.02924952     0.56234230    -0.00015303
 C                     0.14840029    -0.93115295     0.00227309
 H                    -1.13713409    -2.57620388    -0.00181615
 H                    -1.94891020    -1.05060909    -0.00051000

 ==============================================================================
                                internuclear distances
 ------------------------------------------------------------------------------
       center one      |      center two      | atomic units |  angstroms
 ------------------------------------------------------------------------------
    6 C                |   1 F                |     2.56476  |     1.35721
    6 C                |   2 F                |     2.56501  |     1.35735
    6 C                |   3 F                |     2.56506  |     1.35737
    7 C                |   4 O                |     2.31902  |     1.22717
    7 C                |   5 N                |     2.59926  |     1.37547
    7 C                |   6 C                |     2.83127  |     1.49824
    8 H                |   5 N                |     1.91727  |     1.01458
    9 H                |   5 N                |     1.91825  |     1.01509
 ------------------------------------------------------------------------------
                         number of included internuclear distances:          8
 ==============================================================================



 ==============================================================================
                                 internuclear angles
 ------------------------------------------------------------------------------
        center 1       |       center 2       |       center 3       |  degrees
 ------------------------------------------------------------------------------
    7 C                |   5 N                |   8 H                |   121.00
    7 C                |   5 N                |   9 H                |   122.26
    8 H                |   5 N                |   9 H                |   116.74
    1 F                |   6 C                |   2 F                |   106.79
    1 F                |   6 C                |   3 F                |   106.78
    1 F                |   6 C                |   7 C                |   112.04
    2 F                |   6 C                |   3 F                |   106.88
    2 F                |   6 C                |   7 C                |   111.89
    3 F                |   6 C                |   7 C                |   112.10
    4 O                |   7 C                |   5 N                |   124.43
    4 O                |   7 C                |   6 C                |   122.75
    5 N                |   7 C                |   6 C                |   112.82
 ------------------------------------------------------------------------------
                            number of included internuclear angles:         12
 ==============================================================================



  library name resolved from: environment
  library file name is: </home/dmejiar/Software/nwchem_gfortran_gw/src/basis/libraries.bse/>
  


 Summary of "ao basis" -> "" (spherical)
 ------------------------------------------------------------------------------
       Tag                 Description            Shells   Functions and Types
 ---------------- ------------------------------  ------  ---------------------
 *                          cc-pvdz                   on all atoms 


  library name resolved from: environment
  library file name is: </home/dmejiar/Software/nwchem_gfortran_gw/src/basis/libraries.bse/>
  


 Summary of "cd basis" -> "" (spherical)
 ------------------------------------------------------------------------------
       Tag                 Description            Shells   Functions and Types
 ---------------- ------------------------------  ------  ---------------------
 *                       cc-pvdz-rifit                on all atoms 



                               NWChem GW@DFT Module
                               --------------------


                               GW Trifluoroacetamide



                                 NWChem DFT Module
                                 -----------------


                               GW Trifluoroacetamide


                      Basis "ao basis" -> "ao basis" (spherical)
                      -----
  F (Fluorine)
  ------------
            Exponent  Coefficients 
       -------------- ---------------------------------------------------------
  1 S  1.47100000E+04  0.000721
  1 S  2.20700000E+03  0.005553
  1 S  5.02800000E+02  0.028267
  1 S  1.42600000E+02  0.106444
  1 S  4.64700000E+01  0.286814
  1 S  1.67000000E+01  0.448641
  1 S  6.35600000E+00  0.264761
  1 S  1.31600000E+00  0.015333

  2 S  1.47100000E+04 -0.000165
  2 S  2.20700000E+03 -0.001308
  2 S  5.02800000E+02 -0.006495
  2 S  1.42600000E+02 -0.026691
  2 S  4.64700000E+01 -0.073690
  2 S  1.67000000E+01 -0.170776
  2 S  6.35600000E+00 -0.112327
  2 S  1.31600000E+00  0.562814

  3 S  3.89700000E-01  1.000000

  4 P  2.26700000E+01  0.044878
  4 P  4.97700000E+00  0.235718
  4 P  1.34700000E+00  0.508521

  5 P  3.47100000E-01  1.000000

  6 D  1.64000000E+00  1.000000

  O (Oxygen)
  ----------
            Exponent  Coefficients 
       -------------- ---------------------------------------------------------
  1 S  1.17200000E+04  0.000710
  1 S  1.75900000E+03  0.005470
  1 S  4.00800000E+02  0.027837
  1 S  1.13700000E+02  0.104800
  1 S  3.70300000E+01  0.283062
  1 S  1.32700000E+01  0.448719
  1 S  5.02500000E+00  0.270952
  1 S  1.01300000E+00  0.015458

  2 S  1.17200000E+04 -0.000160
  2 S  1.75900000E+03 -0.001263
  2 S  4.00800000E+02 -0.006267
  2 S  1.13700000E+02 -0.025716
  2 S  3.70300000E+01 -0.070924
  2 S  1.32700000E+01 -0.165411
  2 S  5.02500000E+00 -0.116955
  2 S  1.01300000E+00  0.557368

  3 S  3.02300000E-01  1.000000

  4 P  1.77000000E+01  0.043018
  4 P  3.85400000E+00  0.228913
  4 P  1.04600000E+00  0.508728

  5 P  2.75300000E-01  1.000000

  6 D  1.18500000E+00  1.000000

  N (Nitrogen)
  ------------
            Exponent  Coefficients 
       -------------- ---------------------------------------------------------
  1 S  9.04600000E+03  0.000700
  1 S  1.35700000E+03  0.005389
  1 S  3.09300000E+02  0.027406
  1 S  8.77300000E+01  0.103207
  1 S  2.85600000E+01  0.278723
  1 S  1.02100000E+01  0.448540
  1 S  3.83800000E+00  0.278238
  1 S  7.46600000E-01  0.015440

  2 S  9.04600000E+03 -0.000153
  2 S  1.35700000E+03 -0.001208
  2 S  3.09300000E+02 -0.005992
  2 S  8.77300000E+01 -0.024544
  2 S  2.85600000E+01 -0.067459
  2 S  1.02100000E+01 -0.158078
  2 S  3.83800000E+00 -0.121831
  2 S  7.46600000E-01  0.549003

  3 S  2.24800000E-01  1.000000

  4 P  1.35500000E+01  0.039919
  4 P  2.91700000E+00  0.217169
  4 P  7.97300000E-01  0.510319

  5 P  2.18500000E-01  1.000000

  6 D  8.17000000E-01  1.000000

  C (Carbon)
  ----------
            Exponent  Coefficients 
       -------------- ---------------------------------------------------------
  1 S  6.66500000E+03  0.000692
  1 S  1.00000000E+03  0.005329
  1 S  2.28000000E+02  0.027077
  1 S  6.47100000E+01  0.101718
  1 S  2.10600000E+01  0.274740
  1 S  7.49500000E+00  0.448564
  1 S  2.79700000E+00  0.285074
  1 S  5.21500000E-01  0.015204

  2 S  6.66500000E+03 -0.000146
  2 S  1.00000000E+03 -0.001154
  2 S  2.28000000E+02 -0.005725
  2 S  6.47100000E+01 -0.023312
  2 S  2.10600000E+01 -0.063955
  2 S  7.49500000E+00 -0.149981
  2 S  2.79700000E+00 -0.127262
  2 S  5.21500000E-01  0.544529

  3 S  1.59600000E-01  1.000000

  4 P  9.43900000E+00  0.038109
  4 P  2.00200000E+00  0.209480
  4 P  5.45600000E-01  0.508557

  5 P  1.51700000E-01  1.000000

  6 D  5.50000000E-01  1.000000

  H (Hydrogen)
  ------------
            Exponent  Coefficients 
       -------------- ---------------------------------------------------------
  1 S  1.30100000E+01  0.019685
  1 S  1.96200000E+00  0.137977
  1 S  4.44600000E-01  0.478148

  2 S  1.22000000E-01  1.000000

  3 P  7.27000000E-01  1.000000



 Summary of "ao basis" -> "ao basis" (spherical)
 ------------------------------------------------------------------------------
       Tag                 Description            Shells   Functions and Types
 ---------------- ------------------------------  ------  ---------------------
 F                          cc-pvdz                  6       14   3s2p1d
 O                          cc-pvdz                  6       14   3s2p1d
 N                          cc-pvdz                  6       14   3s2p1d
 C                          cc-pvdz                  6       14   3s2p1d
 H                          cc-pvdz                  3        5   2s1p


                      Basis "cd basis" -> "cd basis" (spherical)
                      -----
  F (Fluorine)
  ------------
            Exponent  Coefficients 
       -------------- ---------------------------------------------------------
  1 S  1.30337000E+02  1.000000

  2 S  3.18393000E+01  1.000000

  3 S  1.10179000E+01  1.000000

  4 S  3.70677000E+00  1.000000

  5 S  1.73657000E+00  1.000000

  6 S  1.08424000E+00  1.000000

  7 S  5.36595000E-01  1.000000

  8 P  4.29271000E+01  1.000000

  9 P  1.26314000E+01  1.000000

 10 P  4.25791000E+00  1.000000

 11 P  1.91218000E+00  1.000000

 12 P  7.86730000E-01  1.000000

 13 D  1.99253000E+01  1.000000

 14 D  5.96664000E+00  1.000000

 15 D  2.44678000E+00  1.000000

 16 D  7.43695000E-01  1.000000

 17 F  5.75413000E+00  1.000000

 18 F  2.44579000E+00  1.000000

  O (Oxygen)
  ----------
            Exponent  Coefficients 
       -------------- ---------------------------------------------------------
  1 S  1.09461000E+02  1.000000

  2 S  2.55780000E+01  1.000000

  3 S  9.55148000E+00  1.000000

  4 S  2.93960000E+00  1.000000

  5 S  1.39638000E+00  1.000000

  6 S  9.05061000E-01  1.000000

  7 S  4.21376000E-01  1.000000

  8 P  3.61292000E+01  1.000000

  9 P  1.08817000E+01  1.000000

 10 P  3.20594000E+00  1.000000

 11 P  1.40387000E+00  1.000000

 12 P  6.12763000E-01  1.000000

 13 D  1.52511000E+01  1.000000

 14 D  4.52087000E+00  1.000000

 15 D  1.81221000E+00  1.000000

 16 D  5.92201000E-01  1.000000

 17 F  4.22194000E+00  1.000000

 18 F  1.79021000E+00  1.000000

  N (Nitrogen)
  ------------
            Exponent  Coefficients 
       -------------- ---------------------------------------------------------
  1 S  8.76864000E+01  1.000000

  2 S  2.04679000E+01  1.000000

  3 S  7.62436000E+00  1.000000

  4 S  2.34426000E+00  1.000000

  5 S  1.12324000E+00  1.000000

  6 S  7.23539000E-01  1.000000

  7 S  3.27261000E-01  1.000000

  8 P  2.92373000E+01  1.000000

  9 P  8.55299000E+00  1.000000

 10 P  2.53364000E+00  1.000000

 11 P  1.09461000E+00  1.000000

 12 P  4.61104000E-01  1.000000

 13 D  1.23278000E+01  1.000000

 14 D  3.42816000E+00  1.000000

 15 D  1.28537000E+00  1.000000

 16 D  4.77850000E-01  1.000000

 17 F  3.40118000E+00  1.000000

 18 F  1.33473000E+00  1.000000

  C (Carbon)
  ----------
            Exponent  Coefficients 
       -------------- ---------------------------------------------------------
  1 S  6.27453000E+01  1.000000

  2 S  1.38045000E+01  1.000000

  3 S  4.77277000E+00  1.000000

  4 S  1.51333000E+00  1.000000

  5 S  7.82697000E-01  1.000000

  6 S  4.09072000E-01  1.000000

  7 S  2.06796000E-01  1.000000

  8 P  2.08851000E+01  1.000000

  9 P  6.00523000E+00  1.000000

 10 P  1.72060000E+00  1.000000

 11 P  7.54465000E-01  1.000000

 12 P  3.21667000E-01  1.000000

 13 D  1.01715000E+01  1.000000

 14 D  2.67844000E+00  1.000000

 15 D  9.22515000E-01  1.000000

 16 D  3.40842000E-01  1.000000

 17 F  2.74293000E+00  1.000000

 18 F  8.95756000E-01  1.000000

  H (Hydrogen)
  ------------
            Exponent  Coefficients 
       -------------- ---------------------------------------------------------
  1 S  5.11588952E+00  1.000000

  2 S  1.14296528E+00  1.000000

  3 S  2.91661530E-01  1.000000

  4 P  1.91496403E+00  1.000000

  5 P  9.86401240E-01  1.000000

  6 D  1.17208347E+00  1.000000



 Summary of "cd basis" -> "cd basis" (spherical)
 ------------------------------------------------------------------------------
       Tag                 Description            Shells   Functions and Types
 ---------------- ------------------------------  ------  ---------------------
 F                       cc-pvdz-rifit              18       56   7s5p4d2f
 O                       cc-pvdz-rifit              18       56   7s5p4d2f
 N                       cc-pvdz-rifit              18       56   7s5p4d2f
 C                       cc-pvdz-rifit              18       56   7s5p4d2f
 H                       cc-pvdz-rifit               6       14   3s2p1d




 Summary of "ao basis" -> "ao basis" (spherical)
 ------------------------------------------------------------------------------
       Tag                 Description            Shells   Functions and Types
 ---------------- ------------------------------  ------  ---------------------
 F                          cc-pvdz                  6       14   3s2p1d
 O                          cc-pvdz                  6       14   3s2p1d
 N                          cc-pvdz                  6       14   3s2p1d
 C                          cc-pvdz                  6       14   3s2p1d
 H                          cc-pvdz                  3        5   2s1p


  Caching 1-el integrals 

            General Information
            -------------------
          SCF calculation type: DFT
          Wavefunction type:  spin polarized.
          No. of atoms     :     9
          No. of electrons :    57
           Alpha electrons :    29
            Beta electrons :    28
          Charge           :    -1
          Spin multiplicity:     2
          Use of symmetry is: off; symmetry adaption is: off
          Maximum number of iterations:  50
          This is a Direct SCF calculation.
          AO basis - number of functions:   108
                     number of shells:    48
          A Charge density fitting basis will be used.
          CD basis - number of functions:   420
                     number of shells:   138
          Convergence on energy requested:  1.00D-06
          Convergence on density requested:  1.00D-05
          Convergence on gradient requested:  5.00D-04

              XC Information
              --------------
                        PBE96 Method XC Functional
          PerdewBurkeErnzerhof Exchange Functional  1.000          
            Perdew 1991 LDA Correlation Functional  1.000 local    
           PerdewBurkeErnz. Correlation Functional  1.000 non-local

             Grid Information
             ----------------
          Grid used for XC integration:  fine      
          Radial quadrature: Mura-Knowles        
          Angular quadrature: Lebedev. 
          Tag              B.-S. Rad. Rad. Pts. Rad. Cut. Ang. Pts.
          ---              ---------- --------- --------- ---------
          F                   0.50       70          11.0       590
          O                   0.60       70          10.0       590
          N                   0.65       70           8.0       590
          C                   0.70       70          10.0       590
          H                   0.35       60          10.0       590
          Grid pruning is: on 
          Number of quadrature shells:   610
          Spatial weights used:  Erf1

          Convergence Information
          -----------------------
          Convergence aids based upon iterative change in 
          total energy or number of iterations. 
          Levelshifting, if invoked, occurs when the 
          HOMO/LUMO gap drops below (HL_TOL):  1.00D-02
          DIIS, if invoked, will attempt to extrapolate 
          using up to (NFOCK): 10 stored Fock matrices.

                    Damping( 0%)  Levelshifting(0.5)       DIIS
                  --------------- ------------------- ---------------
          dE  on:    start            ASAP                start   
          dE off:    2 iters         50 iters            50 iters 


      Screening Tolerance Information
      -------------------------------
          Density screening/tol_rho:  1.00D-10
          AO Gaussian exp screening on grid/accAOfunc:  14
          CD Gaussian exp screening on grid/accCDfunc:  20
          XC Gaussian exp screening on grid/accXCfunc:  20
          Schwarz screening/accCoul:  1.00D-12


      Superposition of Atomic Density Guess
      -------------------------------------

 Sum of atomic energies:        -503.54614302

 Renormalizing density from      56.00 to     57

      Non-variational initial energy
      ------------------------------

 Total energy =    -511.552981
 1-e energy   =   -1388.212463
 2-e energy   =     541.689582
 HOMO         =       0.316818
 LUMO         =       0.323513

   Time after variat. SCF:      0.8

      3 Center 2 Electron Integral Information
      ----------------------------------------
          Maximum number of 3-center 2e- integrals is:         4898880.
            This is reduced with Schwarz screening to:         2717820.
            Incore requires a per proc buffer size of:         1377181.
          Minimum dble words available (all nodes) is:       131060572
                   This is reduced (for later use) to:       130736062
                      proc 0 Suggested buffer size is:         1377181
                         Max Suggested buffer size is:         1377181
                              no. integral batches is:            1000

          Incore memory use for 3-center 2e- integrals is turned off. 
   Time prior to 1st pass:      0.8

           Memory utilization after 1st SCF pass: 
           Heap Space remaining (MW):       65.53            65525786
          Stack Space remaining (MW):       65.53            65534740

   convergence    iter        energy       DeltaE   RMS-Dens  Diis-err    time
 ---------------- ----- ----------------- --------- --------- ---------  ------
 d= 0,ls=0.0,diis     1   -505.9509224078 -8.41D+02  4.22D-02  8.68D-01     3.4
                                                     1.64D-02  8.69D-01
 d= 0,ls=0.0,diis     2   -503.7942546729  2.16D+00  1.67D-02  6.60D+00     6.2
                                                     1.27D-02  6.44D+00
 d= 0,ls=0.0,diis     3   -506.2282738913 -2.43D+00  3.74D-02  3.25D-01     8.8
                                                     5.95D-03  3.58D-01
 d= 0,ls=0.0,diis     4   -506.2176208352  1.07D-02  3.73D-02  2.81D-01    11.5
                                                     3.56D-03  2.83D-01
 d= 0,ls=0.0,diis     5   -506.3653157394 -1.48D-01  1.59D-03  4.89D-02    14.3
                                                     1.43D-03  5.92D-02
  Resetting Diis
 d= 0,ls=0.0,diis     6   -506.3877247164 -2.24D-02  8.76D-04  1.37D-02    17.2
                                                     9.89D-04  1.57D-02
 d= 0,ls=0.5,diis     7   -506.3954795288 -7.75D-03  2.48D-04  7.57D-04    20.1
                                                     2.75D-04  1.05D-03
 d= 0,ls=0.5,diis     8   -506.3957467028 -2.67D-04  7.59D-05  4.74D-04    23.0
                                                     7.71D-05  3.87D-04
 d= 0,ls=0.5,diis     9   -506.3958842661 -1.38D-04  3.92D-05  5.22D-05    25.8
                                                     3.82D-05  3.66D-05
 d= 0,ls=0.5,diis    10   -506.3959042664 -2.00D-05  2.48D-05  8.97D-06    28.7
                                                     2.25D-05  5.63D-06
 d= 0,ls=0.5,diis    11   -506.3959088002 -4.53D-06  1.42D-05  1.20D-06    31.6
                                                     1.34D-05  8.66D-07
 d= 0,ls=0.5,diis    12   -506.3959099937 -1.19D-06  7.91D-06  1.65D-07    34.5
                                                     9.18D-06  3.02D-07
 d= 0,ls=0.5,diis    13   -506.3959104462 -4.53D-07  5.61D-06  7.03D-08    37.3
                                                     6.35D-06  1.16D-07


         Total DFT energy =     -506.395910656137
      One electron energy =    -1379.594707665119
           Coulomb energy =      596.650563389521
    Exchange-Corr. energy =      -58.421666154293
 Nuclear repulsion energy =      334.969899773753

 Numeric. integr. density =       57.000003136387

     Total iterative time =     39.4s



   alpha - beta orbital overlaps 
   ----------------------------- 


   alpha      1      2      3      4      5      6      7      8      9     10
    beta      1      2      3      4      5      6      7      8      9     10
 overlap   1.000  1.000  1.000  1.000  1.000  1.000  1.000  1.000  1.000  1.000


   alpha     11     12     13     14     15     16     17     18     19     20
    beta     11     12     13     14     15     16     17     18     19     20
 overlap   1.000  1.000  0.998  0.997  1.000  1.000  0.999  1.000  1.000  1.000


   alpha     21     22     23     24     25     26     27     28     29     30
    beta     21     22     23     24     26     25     27     28     30     29
 overlap   0.995  0.991  0.994  0.999  0.981  0.991  0.997  1.000  0.997  1.000


   alpha     31     32     33     34     35     36     37     38     39     40
    beta     31     32     33     34     35     36     37     38     39     40
 overlap   1.000  1.000  0.999  0.998  0.997  1.000  0.997  0.997  0.995  0.999


   alpha     41     42     43     44     45     46     47     48     49     50
    beta     41     42     44     43     45     46     47     48     49     50
 overlap   0.999  0.998  0.993  0.996  0.999  0.998  1.000  0.999  1.000  0.997


   alpha     51     52     53     54     55     56     57     58     59     60
    beta     51     52     53     54     55     56     57     58     59     60
 overlap   0.998  0.997  1.000  0.989  0.991  0.998  0.996  0.997  0.998  0.999


   alpha     61     62     63     64     65     66     67     68     69     70
    beta     61     62     63     64     65     66     67     68     69     70
 overlap   1.000  1.000  0.999  1.000  1.000  1.000  1.000  0.999  0.982  0.981


   alpha     71     72     73     74     75     76     77     78     79     80
    beta     71     72     73     74     75     76     77     78     79     80
 overlap   0.999  0.999  0.999  1.000  0.998  0.996  0.998  1.000  1.000  0.995


   alpha     81     82     83     84     85     86     87     88     89     90
    beta     81     82     83     84     85     86     88     87     89     90
 overlap   0.995  1.000  1.000  1.000  0.999  0.998  0.995  0.992  0.999  1.000


   alpha     91     92     93     94     95     96     97     98     99    100
    beta     91     92     93     94     95     96     97     98     99    100
 overlap   1.000  0.999  0.999  0.998  1.000  1.000  0.999  0.999  1.000  1.000


   alpha    101    102    103    104    105    106    107    108
    beta    101    102    103    104    105    106    107    108
 overlap   1.000  1.000  1.000  1.000  1.000  1.000  1.000  1.000

     --------------------------
     Expectation value of S2:  
     --------------------------
      <S2> =      0.7512 (Exact =     0.7500)


 center of mass
 --------------
 x =   0.05046829 y =   0.11377991 z =   0.00004386

 moments of inertia (a.u.)
 ------------------
         724.808949354496           0.000000000000           0.000000000000
           0.000000000000         484.336918953950          -0.000000000000
           0.000000000000          -0.000000000000         886.538753836127

     Multipole analysis of the density
     ---------------------------------

     L   x y z        total         alpha         beta         nuclear
     -   - - -        -----         -----         ----         -------
     0   0 0 0     -1.000000    -29.000000    -28.000000     56.000000

     1   1 0 0     -1.330314     -0.896695     -0.433619     -0.000000
     1   0 1 0      0.878866      1.152953     -0.274087      0.000000
     1   0 0 1     -0.001678     -0.003977      0.002299      0.000000

     2   2 0 0    -32.558267   -100.860509    -98.180508    166.482750
     2   1 1 0      3.939322     -1.995196     -2.912919      8.847437
     2   1 0 1     -0.001225     -0.004518     -0.001991      0.005284
     2   0 2 0    -34.805938   -164.883043   -159.985449    290.062553
     2   0 1 1     -0.000701     -0.001488     -0.010533      0.011320
     2   0 0 2    -31.185405    -54.765171    -52.833632     76.413398

  
                      ***********************
                      ***      GW@DFT     ***
                      ***********************
  

                 Memory Information
                 ------------------
          Available GA per process is           999.8 MBs
          Available stack per process is        500.0 MBs
          Available heap per process is         499.9 MBs

          Peak memory in Initialization
              Peak GA per process is                 11.9 MBs
              Peak stack per process is               0.1 MBs
              Peak heap per process is               12.9 MBs
              Memory not in MA per process            0.0 MBs

          Peak memory in CDGW Calculation
              Peak GA per process is                 13.3 MBs
              Peak stack per process is               2.7 MBs
              Peak heap per process is                3.8 MBs
              Memory not in MA per process            0.0 MBs

          Computing 2-center integrals
          Computing Inverse Cholesky factor
          Computing 3-center integrals
          Computing Vxc
          Computing Sigma_x
          Computing W(iw) on the imaginary grid
          Solving quasiparticle equations

                  Alpha Orbitals
          State     Energy (eV)     Error (eV)
          -----------------------------------
@GW        25         -5.434           0.002
@GW        26         -5.402           0.006
@GW        27         -2.264           0.009
@GW        28         -1.527           0.003
@GW        29          3.272           0.000
@GW        30          9.011           0.003
@GW        31         10.466           0.000
@GW        32         13.044           0.000
@GW        33         14.274           0.000
@GW        34         14.481           0.001

                   Beta Orbitals
          State     Energy (eV)     Error (eV)
          -----------------------------------
@GW        24         -7.024           0.000
@GW        25         -4.566           0.000
@GW        26         -4.507           0.000
@GW        27         -1.789           0.000
@GW        28         -1.280           0.000
@GW        29          9.049           0.000
@GW        30         10.335           0.004
@GW        31         10.489           0.003
@GW        32         13.167           0.002
@GW        33         14.381           0.005

     GW Timing Statistics
   ------------------------
   Init.   :          0.1s
     ERIs  :          1.3s
     Distr.:          0.0s
     Vxc   :          2.1s
   Vmo     :          0.0s
   iW      :          5.4s
   I_n     :          0.0s
   R_n     :          4.5s
   GW total:         13.5s


 Task  times  cpu:       53.5s     wall:       53.7s


                                NWChem Input Module
                                -------------------



                               NWChem GW@DFT Module
                               --------------------


                               GW Trifluoroacetamide



                                 NWChem DFT Module
                                 -----------------


                               GW Trifluoroacetamide




 Summary of "ao basis" -> "ao basis" (spherical)
 ------------------------------------------------------------------------------
       Tag                 Description            Shells   Functions and Types
 ---------------- ------------------------------  ------  ---------------------
 F                          cc-pvdz                  6       14   3s2p1d
 O                          cc-pvdz                  6       14   3s2p1d
 N                          cc-pvdz                  6       14   3s2p1d
 C                          cc-pvdz                  6       14   3s2p1d
 H                          cc-pvdz                  3        5   2s1p


  Caching 1-el integrals 

            General Information
            -------------------
          SCF calculation type: DFT
          Wavefunction type:  spin polarized.
          No. of atoms     :     9
          No. of electrons :    57
           Alpha electrons :    29
            Beta electrons :    28
          Charge           :    -1
          Spin multiplicity:     2
          Use of symmetry is: off; symmetry adaption is: off
          Maximum number of iterations:  50
          This is a Direct SCF calculation.
          AO basis - number of functions:   108
                     number of shells:    48
          A Charge density fitting basis will be used.
          CD basis - number of functions:   420
                     number of shells:   138
          Convergence on energy requested:  1.00D-06
          Convergence on density requested:  1.00D-05
          Convergence on gradient requested:  5.00D-04

              XC Information
              --------------
                        PBE96 Method XC Functional
          PerdewBurkeErnzerhof Exchange Functional  1.000          
            Perdew 1991 LDA Correlation Functional  1.000 local    
           PerdewBurkeErnz. Correlation Functional  1.000 non-local

             Grid Information
             ----------------
          Grid used for XC integration:  fine      
          Radial quadrature: Mura-Knowles        
          Angular quadrature: Lebedev. 
          Tag              B.-S. Rad. Rad. Pts. Rad. Cut. Ang. Pts.
          ---              ---------- --------- --------- ---------
          F                   0.50       70          11.0       590
          O                   0.60       70          10.0       590
          N                   0.65       70           8.0       590
          C                   0.70       70          10.0       590
          H                   0.35       60          10.0       590
          Grid pruning is: on 
          Number of quadrature shells:   610
          Spatial weights used:  Erf1

          Convergence Information
          -----------------------
          Convergence aids based upon iterative change in 
          total energy or number of iterations. 
          Levelshifting, if invoked, occurs when the 
          HOMO/LUMO gap drops below (HL_TOL):  1.00D-02
          DIIS, if invoked, will attempt to extrapolate 
          using up to (NFOCK): 10 stored Fock matrices.

                    Damping( 0%)  Levelshifting(0.5)       DIIS
                  --------------- ------------------- ---------------
          dE  on:    start            ASAP                start   
          dE off:    2 iters         50 iters            50 iters 


      Screening Tolerance Information
      -------------------------------
          Density screening/tol_rho:  1.00D-10
          AO Gaussian exp screening on grid/accAOfunc:  14
          CD Gaussian exp screening on grid/accCDfunc:  20
          XC Gaussian exp screening on grid/accXCfunc:  20
          Schwarz screening/accCoul:  1.00D-12


 Loading old vectors from job with title :

GW Trifluoroacetamide

   Time after variat. SCF:     53.8

      3 Center 2 Electron Integral Information
      ----------------------------------------
          Maximum number of 3-center 2e- integrals is:         4898880.
            This is reduced with Schwarz screening to:         2717820.
            Incore requires a per proc buffer size of:         1377181.
          Minimum dble words available (all nodes) is:       131060572
                   This is reduced (for later use) to:       130464662
                      proc 0 Suggested buffer size is:         1377181
                         Max Suggested buffer size is:         1377181
                              no. integral batches is:            1000

          Incore memory use for 3-center 2e- integrals is turned off. 
   Time prior to 1st pass:     53.8


         Total DFT energy =     -506.395910657434
      One electron energy =    -1379.594707665120
           Coulomb energy =      596.650563389522
    Exchange-Corr. energy =      -58.421666155589
 Nuclear repulsion energy =      334.969899773753

 Numeric. integr. density =       57.000003148416

     Total iterative time =      2.8s



   alpha - beta orbital overlaps 
   ----------------------------- 


   alpha      1      2      3      4      5      6      7      8      9     10
    beta      1      2      3      4      5      6      7      8      9     10
 overlap   1.000  1.000  1.000  1.000  1.000  1.000  1.000  1.000  1.000  1.000


   alpha     11     12     13     14     15     16     17     18     19     20
    beta     11     12     13     14     15     16     17     18     19     20
 overlap   1.000  1.000  0.998  0.997  1.000  1.000  0.999  1.000  1.000  1.000


   alpha     21     22     23     24     25     26     27     28     29     30
    beta     21     22     23     24     26     25     27     28     30     29
 overlap   0.995  0.991  0.994  0.999  0.981  0.991  0.997  1.000  0.997  1.000


   alpha     31     32     33     34     35     36     37     38     39     40
    beta     31     32     33     34     35     36     37     38     39     40
 overlap   1.000  1.000  0.999  0.998  0.997  1.000  0.997  0.997  0.995  0.999


   alpha     41     42     43     44     45     46     47     48     49     50
    beta     41     42     44     43     45     46     47     48     49     50
 overlap   0.999  0.998  0.993  0.996  0.999  0.998  1.000  0.999  1.000  0.997


   alpha     51     52     53     54     55     56     57     58     59     60
    beta     51     52     53     54     55     56     57     58     59     60
 overlap   0.998  0.997  1.000  0.989  0.991  0.998  0.996  0.997  0.998  0.999


   alpha     61     62     63     64     65     66     67     68     69     70
    beta     61     62     63     64     65     66     67     68     69     70
 overlap   1.000  1.000  0.999  1.000  1.000  1.000  1.000  0.999  0.982  0.981


   alpha     71     72     73     74     75     76     77     78     79     80
    beta     71     72     73     74     75     76     77     78     79     80
 overlap   0.999  0.999  0.999  1.000  0.998  0.996  0.998  1.000  1.000  0.995


   alpha     81     82     83     84     85     86     87     88     89     90
    beta     81     82     83     84     85     86     88     87     89     90
 overlap   0.995  1.000  1.000  1.000  0.999  0.998  0.995  0.992  0.999  1.000


   alpha     91     92     93     94     95     96     97     98     99    100
    beta     91     92     93     94     95     96     97     98     99    100
 overlap   1.000  0.999  0.999  0.998  1.000  1.000  0.999  0.999  1.000  1.000


   alpha    101    102    103    104    105    106    107    108
    beta    101    102    103    104    105    106    107    108
 overlap   1.000  1.000  1.000  1.000  1.000  1.000  1.000  1.000

     --------------------------
     Expectation value of S2:  
     --------------------------
      <S2> =      0.7512 (Exact =     0.7500)


 center of mass
 --------------
 x =   0.05046829 y =   0.11377991 z =   0.00004386

 moments of inertia (a.u.)
 ------------------
         724.808949354496           0.000000000000           0.000000000000
           0.000000000000         484.336918953950          -0.000000000000
           0.000000000000          -0.000000000000         886.538753836127

     Multipole analysis of the density
     ---------------------------------

     L   x y z        total         alpha         beta         nuclear
     -   - - -        -----         -----         ----         -------
     0   0 0 0     -1.000000    -29.000000    -28.000000     56.000000

     1   1 0 0     -1.330314     -0.896695     -0.433619     -0.000000
     1   0 1 0      0.878866      1.152953     -0.274087      0.000000
     1   0 0 1     -0.001678     -0.003977      0.002299      0.000000

     2   2 0 0    -32.558267   -100.860509    -98.180508    166.482750
     2   1 1 0      3.939322     -1.995196     -2.912919      8.847437
     2   1 0 1     -0.001225     -0.004518     -0.001991      0.005284
     2   0 2 0    -34.805938   -164.883043   -159.985449    290.062553
     2   0 1 1     -0.000701     -0.001488     -0.010533      0.011320
     2   0 0 2    -31.185405    -54.765171    -52.833632     76.413398

  
                      ***********************
                      ***      GW@DFT     ***
                      ***********************
  

                 Memory Information
                 ------------------
          Available GA per process is           999.8 MBs
          Available stack per process is        500.0 MBs
          Available heap per process is         499.9 MBs

          Peak memory in Initialization
              Peak GA per process is                 11.9 MBs
              Peak stack per process is               0.1 MBs
              Peak heap per process is               12.9 MBs
              Memory not in MA per process            0.0 MBs

          Peak memory in CDGW Calculation
              Peak GA per process is                 13.3 MBs
              Peak stack per process is               2.7 MBs
              Peak heap per process is                2.9 MBs
              Memory not in MA per process            0.0 MBs

          Computing 2-center integrals
          Computing Inverse Cholesky factor
          Computing 3-center integrals
          Computing Vxc
          Computing Sigma_x
          Computing W(iw) on the imaginary grid
          Solving quasiparticle equations

               Alpha Orbitals
          State     Energy (eV)      Error (eV)
          ------------------------------------
@GW        25         -5.284           0.005
@GW        26         -5.394           0.019 *
@GW        27         -2.908           0.005
@GW        28         -1.528           0.001
@GW        29          3.272           0.000
@GW        30          8.975           0.000
@GW        31         10.466           0.004
@GW        32         13.044           0.000
@GW        33         14.274           0.000
@GW        34         14.479           0.004

  * Graphical solution not found.
    Energy with smallest residual is shown.


                Beta Orbitals
          State     Energy (eV)      Error (eV)
          ------------------------------------
@GW        24         -7.024           0.000
@GW        25         -4.497           0.020 *
@GW        26         -4.299           0.005
@GW        27         -1.789           0.000
@GW        28         -1.280           0.000
@GW        29          9.049           0.005
@GW        30         10.332           0.001
@GW        31         10.489           0.002
@GW        32         13.165           0.000
@GW        33         14.109           0.004

  * Graphical solution not found.
    Energy with smallest residual is shown.


     GW Timing Statistics
   ------------------------
   Init.   :          0.1s
     ERIs  :          0.7s
     Distr.:          0.0s
     Vxc   :          2.0s
   Vmo     :          0.0s
   iW      :          3.4s
   I_n     :          0.0s
   R_n     :         18.6s
   GW total:         24.8s


 Task  times  cpu:       27.7s     wall:       27.8s


                                NWChem Input Module
                                -------------------



                               NWChem GW@DFT Module
                               --------------------


                               GW Trifluoroacetamide



                                 NWChem DFT Module
                                 -----------------


                               GW Trifluoroacetamide




 Summary of "ao basis" -> "ao basis" (spherical)
 ------------------------------------------------------------------------------
       Tag                 Description            Shells   Functions and Types
 ---------------- ------------------------------  ------  ---------------------
 F                          cc-pvdz                  6       14   3s2p1d
 O                          cc-pvdz                  6       14   3s2p1d
 N                          cc-pvdz                  6       14   3s2p1d
 C                          cc-pvdz                  6       14   3s2p1d
 H                          cc-pvdz                  3        5   2s1p


  Caching 1-el integrals 

            General Information
            -------------------
          SCF calculation type: DFT
          Wavefunction type:  spin polarized.
          No. of atoms     :     9
          No. of electrons :    57
           Alpha electrons :    29
            Beta electrons :    28
          Charge           :    -1
          Spin multiplicity:     2
          Use of symmetry is: off; symmetry adaption is: off
          Maximum number of iterations:  50
          This is a Direct SCF calculation.
          AO basis - number of functions:   108
                     number of shells:    48
          A Charge density fitting basis will be used.
          CD basis - number of functions:   420
                     number of shells:   138
          Convergence on energy requested:  1.00D-06
          Convergence on density requested:  1.00D-05
          Convergence on gradient requested:  5.00D-04

              XC Information
              --------------
                        PBE96 Method XC Functional
          PerdewBurkeErnzerhof Exchange Functional  1.000          
            Perdew 1991 LDA Correlation Functional  1.000 local    
           PerdewBurkeErnz. Correlation Functional  1.000 non-local

             Grid Information
             ----------------
          Grid used for XC integration:  fine      
          Radial quadrature: Mura-Knowles        
          Angular quadrature: Lebedev. 
          Tag              B.-S. Rad. Rad. Pts. Rad. Cut. Ang. Pts.
          ---              ---------- --------- --------- ---------
          F                   0.50       70          11.0       590
          O                   0.60       70          10.0       590
          N                   0.65       70           8.0       590
          C                   0.70       70          10.0       590
          H                   0.35       60          10.0       590
          Grid pruning is: on 
          Number of quadrature shells:   610
          Spatial weights used:  Erf1

          Convergence Information
          -----------------------
          Convergence aids based upon iterative change in 
          total energy or number of iterations. 
          Levelshifting, if invoked, occurs when the 
          HOMO/LUMO gap drops below (HL_TOL):  1.00D-02
          DIIS, if invoked, will attempt to extrapolate 
          using up to (NFOCK): 10 stored Fock matrices.

                    Damping( 0%)  Levelshifting(0.5)       DIIS
                  --------------- ------------------- ---------------
          dE  on:    start            ASAP                start   
          dE off:    2 iters         50 iters            50 iters 


      Screening Tolerance Information
      -------------------------------
          Density screening/tol_rho:  1.00D-10
          AO Gaussian exp screening on grid/accAOfunc:  14
          CD Gaussian exp screening on grid/accCDfunc:  20
          XC Gaussian exp screening on grid/accXCfunc:  20
          Schwarz screening/accCoul:  1.00D-12


 Loading old vectors from job with title :

GW Trifluoroacetamide

   Time after variat. SCF:     81.6

      3 Center 2 Electron Integral Information
      ----------------------------------------
          Maximum number of 3-center 2e- integrals is:         4898880.
            This is reduced with Schwarz screening to:         2717820.
            Incore requires a per proc buffer size of:         1377181.
          Minimum dble words available (all nodes) is:       131060572
                   This is reduced (for later use) to:       130464662
                      proc 0 Suggested buffer size is:         1377181
                         Max Suggested buffer size is:         1377181
                              no. integral batches is:            1000

          Incore memory use for 3-center 2e- integrals is turned off. 
   Time prior to 1st pass:     81.6


         Total DFT energy =     -506.395910657434
      One electron energy =    -1379.594707665120
           Coulomb energy =      596.650563389522
    Exchange-Corr. energy =      -58.421666155589
 Nuclear repulsion energy =      334.969899773753

 Numeric. integr. density =       57.000003148415

     Total iterative time =      2.8s



   alpha - beta orbital overlaps 
   ----------------------------- 


   alpha      1      2      3      4      5      6      7      8      9     10
    beta      1      2      3      4      5      6      7      8      9     10
 overlap   1.000  1.000  1.000  1.000  1.000  1.000  1.000  1.000  1.000  1.000


   alpha     11     12     13     14     15     16     17     18     19     20
    beta     11     12     13     14     15     16     17     18     19     20
 overlap   1.000  1.000  0.998  0.997  1.000  1.000  0.999  1.000  1.000  1.000


   alpha     21     22     23     24     25     26     27     28     29     30
    beta     21     22     23     24     26     25     27     28     30     29
 overlap   0.995  0.991  0.994  0.999  0.981  0.991  0.997  1.000  0.997  1.000


   alpha     31     32     33     34     35     36     37     38     39     40
    beta     31     32     33     34     35     36     37     38     39     40
 overlap   1.000  1.000  0.999  0.998  0.997  1.000  0.997  0.997  0.995  0.999


   alpha     41     42     43     44     45     46     47     48     49     50
    beta     41     42     44     43     45     46     47     48     49     50
 overlap   0.999  0.998  0.993  0.996  0.999  0.998  1.000  0.999  1.000  0.997


   alpha     51     52     53     54     55     56     57     58     59     60
    beta     51     52     53     54     55     56     57     58     59     60
 overlap   0.998  0.997  1.000  0.989  0.991  0.998  0.996  0.997  0.998  0.999


   alpha     61     62     63     64     65     66     67     68     69     70
    beta     61     62     63     64     65     66     67     68     69     70
 overlap   1.000  1.000  0.999  1.000  1.000  1.000  1.000  0.999  0.982  0.981


   alpha     71     72     73     74     75     76     77     78     79     80
    beta     71     72     73     74     75     76     77     78     79     80
 overlap   0.999  0.999  0.999  1.000  0.998  0.996  0.998  1.000  1.000  0.995


   alpha     81     82     83     84     85     86     87     88     89     90
    beta     81     82     83     84     85     86     88     87     89     90
 overlap   0.995  1.000  1.000  1.000  0.999  0.998  0.995  0.992  0.999  1.000


   alpha     91     92     93     94     95     96     97     98     99    100
    beta     91     92     93     94     95     96     97     98     99    100
 overlap   1.000  0.999  0.999  0.998  1.000  1.000  0.999  0.999  1.000  1.000


   alpha    101    102    103    104    105    106    107    108
    beta    101    102    103    104    105    106    107    108
 overlap   1.000  1.000  1.000  1.000  1.000  1.000  1.000  1.000

     --------------------------
     Expectation value of S2:  
     --------------------------
      <S2> =      0.7512 (Exact =     0.7500)


 center of mass
 --------------
 x =   0.05046829 y =   0.11377991 z =   0.00004386

 moments of inertia (a.u.)
 ------------------
         724.808949354496           0.000000000000           0.000000000000
           0.000000000000         484.336918953950          -0.000000000000
           0.000000000000          -0.000000000000         886.538753836127

     Multipole analysis of the density
     ---------------------------------

     L   x y z        total         alpha         beta         nuclear
     -   - - -        -----         -----         ----         -------
     0   0 0 0     -1.000000    -29.000000    -28.000000     56.000000

     1   1 0 0     -1.330314     -0.896695     -0.433619     -0.000000
     1   0 1 0      0.878866      1.152953     -0.274087      0.000000
     1   0 0 1     -0.001678     -0.003977      0.002299      0.000000

     2   2 0 0    -32.558267   -100.860509    -98.180508    166.482750
     2   1 1 0      3.939322     -1.995196     -2.912919      8.847437
     2   1 0 1     -0.001225     -0.004518     -0.001991      0.005284
     2   0 2 0    -34.805938   -164.883043   -159.985449    290.062553
     2   0 1 1     -0.000701     -0.001488     -0.010533      0.011320
     2   0 0 2    -31.185405    -54.765171    -52.833632     76.413398

  
                      ***********************
                      ***      GW@DFT     ***
                      ***********************
  

                 Memory Information
                 ------------------
          Available GA per process is           999.8 MBs
          Available stack per process is        500.0 MBs
          Available heap per process is         499.9 MBs

          Peak memory in Initialization
              Peak GA per process is                 11.9 MBs
              Peak stack per process is               0.1 MBs
              Peak heap per process is               12.9 MBs
              Memory not in MA per process            0.0 MBs

          Peak memory in AFF Calculation
              Peak GA per process is                 96.7 MBs
              Peak stack per process is             156.6 MBs
              Peak heap per process is                0.1 MBs
              Memory not in MA per process          156.6 MBs

          Computing 2-center integrals
          Computing Inverse Cholesky factor
          Computing 3-center integrals
          Computing V_xc ... 
          Computing Sigma_x
          Computing RPA polarizability
          Solving quasiparticle equations

                  Alpha Orbitals
          State     Energy (eV)     Error (eV)
          -----------------------------------
@GW        25         -5.434           0.002
@GW        26         -5.795           0.000
@GW        27         -2.265           0.001
@GW        28         -1.528           0.001
@GW        29          3.270           0.003
@GW        30          9.011           0.003
@GW        31         10.463           0.004
@GW        32         13.044           0.000
@GW        33         14.273           0.001
@GW        34         14.947           0.002

                   Beta Orbitals
          State     Energy (eV)     Error (eV)
          -----------------------------------
@GW        24         -7.024           0.000
@GW        25         -5.211           0.005
@GW        26         -4.507           0.001
@GW        27         -1.789           0.000
@GW        28         -1.282           0.003
@GW        29          9.047           0.003
@GW        30         10.332           0.000
@GW        31         10.489           0.003
@GW        32         13.166           0.000
@GW        33         13.393           0.004

     GW Timing Statistics
   ------------------------
   Init.   :          0.1s
     ERIs  :          0.7s
     Distr.:          0.0s
     Vxc   :          2.0s
   Sigma_x :          0.0s
   RPA     :         16.2s
   Wmn     :          0.3s
   Sigma_c :          0.2s
   GW total:         19.5s


 Task  times  cpu:       22.3s     wall:       22.5s


                                NWChem Input Module
                                -------------------



                               NWChem GW@DFT Module
                               --------------------


                               GW Trifluoroacetamide



                                 NWChem DFT Module
                                 -----------------


                               GW Trifluoroacetamide




 Summary of "ao basis" -> "ao basis" (spherical)
 ------------------------------------------------------------------------------
       Tag                 Description            Shells   Functions and Types
 ---------------- ------------------------------  ------  ---------------------
 F                          cc-pvdz                  6       14   3s2p1d
 O                          cc-pvdz                  6       14   3s2p1d
 N                          cc-pvdz                  6       14   3s2p1d
 C                          cc-pvdz                  6       14   3s2p1d
 H                          cc-pvdz                  3        5   2s1p


  Caching 1-el integrals 

            General Information
            -------------------
          SCF calculation type: DFT
          Wavefunction type:  spin polarized.
          No. of atoms     :     9
          No. of electrons :    57
           Alpha electrons :    29
            Beta electrons :    28
          Charge           :    -1
          Spin multiplicity:     2
          Use of symmetry is: off; symmetry adaption is: off
          Maximum number of iterations:  50
          This is a Direct SCF calculation.
          AO basis - number of functions:   108
                     number of shells:    48
          A Charge density fitting basis will be used.
          CD basis - number of functions:   420
                     number of shells:   138
          Convergence on energy requested:  1.00D-06
          Convergence on density requested:  1.00D-05
          Convergence on gradient requested:  5.00D-04

              XC Information
              --------------
                        PBE96 Method XC Functional
          PerdewBurkeErnzerhof Exchange Functional  1.000          
            Perdew 1991 LDA Correlation Functional  1.000 local    
           PerdewBurkeErnz. Correlation Functional  1.000 non-local

             Grid Information
             ----------------
          Grid used for XC integration:  fine      
          Radial quadrature: Mura-Knowles        
          Angular quadrature: Lebedev. 
          Tag              B.-S. Rad. Rad. Pts. Rad. Cut. Ang. Pts.
          ---              ---------- --------- --------- ---------
          F                   0.50       70          11.0       590
          O                   0.60       70          10.0       590
          N                   0.65       70           8.0       590
          C                   0.70       70          10.0       590
          H                   0.35       60          10.0       590
          Grid pruning is: on 
          Number of quadrature shells:   610
          Spatial weights used:  Erf1

          Convergence Information
          -----------------------
          Convergence aids based upon iterative change in 
          total energy or number of iterations. 
          Levelshifting, if invoked, occurs when the 
          HOMO/LUMO gap drops below (HL_TOL):  1.00D-02
          DIIS, if invoked, will attempt to extrapolate 
          using up to (NFOCK): 10 stored Fock matrices.

                    Damping( 0%)  Levelshifting(0.5)       DIIS
                  --------------- ------------------- ---------------
          dE  on:    start            ASAP                start   
          dE off:    2 iters         50 iters            50 iters 


      Screening Tolerance Information
      -------------------------------
          Density screening/tol_rho:  1.00D-10
          AO Gaussian exp screening on grid/accAOfunc:  14
          CD Gaussian exp screening on grid/accCDfunc:  20
          XC Gaussian exp screening on grid/accXCfunc:  20
          Schwarz screening/accCoul:  1.00D-12


 Loading old vectors from job with title :

GW Trifluoroacetamide

   Time after variat. SCF:    104.1

      3 Center 2 Electron Integral Information
      ----------------------------------------
          Maximum number of 3-center 2e- integrals is:         4898880.
            This is reduced with Schwarz screening to:         2717820.
            Incore requires a per proc buffer size of:         1377181.
          Minimum dble words available (all nodes) is:       131060572
                   This is reduced (for later use) to:       130464662
                      proc 0 Suggested buffer size is:         1377181
                         Max Suggested buffer size is:         1377181
                              no. integral batches is:            1000

          Incore memory use for 3-center 2e- integrals is turned off. 
   Time prior to 1st pass:    104.1


         Total DFT energy =     -506.395910652341
      One electron energy =    -1379.594707665120
           Coulomb energy =      596.650563389522
    Exchange-Corr. energy =      -58.421666150497
 Nuclear repulsion energy =      334.969899773753

 Numeric. integr. density =       57.000003130745

     Total iterative time =      2.8s



   alpha - beta orbital overlaps 
   ----------------------------- 


   alpha      1      2      3      4      5      6      7      8      9     10
    beta      1      2      3      4      5      6      7      8      9     10
 overlap   1.000  1.000  1.000  1.000  1.000  1.000  1.000  1.000  1.000  1.000


   alpha     11     12     13     14     15     16     17     18     19     20
    beta     11     12     13     14     15     16     17     18     19     20
 overlap   1.000  1.000  0.998  0.997  1.000  1.000  0.999  1.000  1.000  1.000


   alpha     21     22     23     24     25     26     27     28     29     30
    beta     21     22     23     24     26     25     27     28     30     29
 overlap   0.995  0.991  0.994  0.999  0.981  0.991  0.997  1.000  0.997  1.000


   alpha     31     32     33     34     35     36     37     38     39     40
    beta     31     32     33     34     35     36     37     38     39     40
 overlap   1.000  1.000  0.999  0.998  0.997  1.000  0.997  0.997  0.995  0.999


   alpha     41     42     43     44     45     46     47     48     49     50
    beta     41     42     44     43     45     46     47     48     49     50
 overlap   0.999  0.998  0.993  0.996  0.999  0.998  1.000  0.999  1.000  0.997


   alpha     51     52     53     54     55     56     57     58     59     60
    beta     51     52     53     54     55     56     57     58     59     60
 overlap   0.998  0.997  1.000  0.989  0.991  0.998  0.996  0.997  0.998  0.999


   alpha     61     62     63     64     65     66     67     68     69     70
    beta     61     62     63     64     65     66     67     68     69     70
 overlap   1.000  1.000  0.999  1.000  1.000  1.000  1.000  0.999  0.982  0.981


   alpha     71     72     73     74     75     76     77     78     79     80
    beta     71     72     73     74     75     76     77     78     79     80
 overlap   0.999  0.999  0.999  1.000  0.998  0.996  0.998  1.000  1.000  0.995


   alpha     81     82     83     84     85     86     87     88     89     90
    beta     81     82     83     84     85     86     88     87     89     90
 overlap   0.995  1.000  1.000  1.000  0.999  0.998  0.995  0.992  0.999  1.000


   alpha     91     92     93     94     95     96     97     98     99    100
    beta     91     92     93     94     95     96     97     98     99    100
 overlap   1.000  0.999  0.999  0.998  1.000  1.000  0.999  0.999  1.000  1.000


   alpha    101    102    103    104    105    106    107    108
    beta    101    102    103    104    105    106    107    108
 overlap   1.000  1.000  1.000  1.000  1.000  1.000  1.000  1.000

     --------------------------
     Expectation value of S2:  
     --------------------------
      <S2> =      0.7512 (Exact =     0.7500)


 center of mass
 --------------
 x =   0.05046829 y =   0.11377991 z =   0.00004386

 moments of inertia (a.u.)
 ------------------
         724.808949354496           0.000000000000           0.000000000000
           0.000000000000         484.336918953950          -0.000000000000
           0.000000000000          -0.000000000000         886.538753836127

     Multipole analysis of the density
     ---------------------------------

     L   x y z        total         alpha         beta         nuclear
     -   - - -        -----         -----         ----         -------
     0   0 0 0     -1.000000    -29.000000    -28.000000     56.000000

     1   1 0 0     -1.330314     -0.896695     -0.433619     -0.000000
     1   0 1 0      0.878866      1.152953     -0.274087      0.000000
     1   0 0 1     -0.001678     -0.003977      0.002299      0.000000

     2   2 0 0    -32.558267   -100.860509    -98.180508    166.482750
     2   1 1 0      3.939322     -1.995196     -2.912919      8.847437
     2   1 0 1     -0.001225     -0.004518     -0.001991      0.005284
     2   0 2 0    -34.805938   -164.883043   -159.985449    290.062553
     2   0 1 1     -0.000701     -0.001488     -0.010533      0.011320
     2   0 0 2    -31.185405    -54.765171    -52.833632     76.413398

  
                      ***********************
                      ***      GW@DFT     ***
                      ***********************
  

                 Memory Information
                 ------------------
          Available GA per process is           999.8 MBs
          Available stack per process is        500.0 MBs
          Available heap per process is         499.9 MBs

          Peak memory in Initialization
              Peak GA per process is                 11.9 MBs
              Peak stack per process is               0.1 MBs
              Peak heap per process is               12.9 MBs
              Memory not in MA per process            0.0 MBs

          Peak memory in AFF Calculation
              Peak GA per process is                 96.7 MBs
              Peak stack per process is             156.6 MBs
              Peak heap per process is                0.1 MBs
              Memory not in MA per process          156.6 MBs

          Computing 2-center integrals
          Computing Inverse Cholesky factor
          Computing 3-center integrals
          Computing V_xc ... 
          Computing Sigma_x
          Computing RPA polarizability
          Solving quasiparticle equations

               Alpha Orbitals
          State     Energy (eV)     Error (eV)
          ------------------------------------
@GW        25         -3.498          -0.000
@GW        26         -5.794          -0.000
@GW        27         -2.902          -0.000
@GW        28         -1.513          -0.000
@GW        29          3.276          -0.000
@GW        30          8.981           0.000
@GW        31         10.462           0.000
@GW        32         13.042           0.000
@GW        33         14.270           0.000
@GW        34         14.519           0.000

                Beta Orbitals
          State     Energy (eV)     Error (eV)
          ------------------------------------
@GW        24         -7.022          -0.000
@GW        25         -5.510          -0.000
@GW        26         -4.500          -0.000
@GW        27         -1.788          -0.000
@GW        28         -1.277          -0.000
@GW        29          9.036           0.000
@GW        30         10.329           0.000
@GW        31         10.485           0.000
@GW        32         13.164           0.000
@GW        33         14.382           0.000

     GW Timing Statistics
   ------------------------
   Init.   :          0.1s
     ERIs  :          1.3s
     Distr.:          0.0s
     Vxc   :          2.1s
   Sigma_x :          0.0s
   RPA     :         16.3s
   Wmn     :          0.3s
   Sigma_c :         36.8s
   GW total:         56.9s


 Task  times  cpu:       59.7s     wall:       59.9s


                                NWChem Input Module
                                -------------------


 Summary of allocated global arrays
-----------------------------------
  No active global arrays


MA_summarize_allocated_blocks: starting scan ...
MA_summarize_allocated_blocks: scan completed: 0 heap blocks, 0 stack blocks
MA usage statistics:

	allocation statistics:
					      heap	     stack
					      ----	     -----
	current number of blocks	         0	         0
	maximum number of blocks	        28	        58
	current total bytes		         0	         0
	maximum total bytes		  33477416	 330033368
	maximum total K-bytes		     33478	    330034
	maximum total M-bytes		        34	       331


                                     CITATION
                                     --------
                Please cite the following reference when publishing
                           results obtained with NWChem:

          E. Apra, E. J. Bylaska, W. A. de Jong, N. Govind, K. Kowalski,
       T. P. Straatsma, M. Valiev, H. J. J. van Dam, Y. Alexeev, J. Anchell,
       V. Anisimov, F. W. Aquino, R. Atta-Fynn, J. Autschbach, N. P. Bauman,
     J. C. Becca, D. E. Bernholdt, K. Bhaskaran-Nair, S. Bogatko, P. Borowski,
         J. Boschen, J. Brabec, A. Bruner, E. Cauet, Y. Chen, G. N. Chuev,
      C. J. Cramer, J. Daily, M. J. O. Deegan, T. H. Dunning Jr., M. Dupuis,
   K. G. Dyall, G. I. Fann, S. A. Fischer, A. Fonari, H. Fruchtl, L. Gagliardi,
      J. Garza, N. Gawande, S. Ghosh, K. Glaesemann, A. W. Gotz, J. Hammond,
       V. Helms, E. D. Hermes, K. Hirao, S. Hirata, M. Jacquelin, L. Jensen,
   B. G. Johnson, H. Jonsson, R. A. Kendall, M. Klemm, R. Kobayashi, V. Konkov,
      S. Krishnamoorthy, M. Krishnan, Z. Lin, R. D. Lins, R. J. Littlefield,
      A. J. Logsdail, K. Lopata, W. Ma, A. V. Marenich, J. Martin del Campo,
   D. Mejia-Rodriguez, J. E. Moore, J. M. Mullin, T. Nakajima, D. R. Nascimento,
    J. A. Nichols, P. J. Nichols, J. Nieplocha, A. Otero-de-la-Roza, B. Palmer,
    A. Panyala, T. Pirojsirikul, B. Peng, R. Peverati, J. Pittner, L. Pollack,
   R. M. Richard, P. Sadayappan, G. C. Schatz, W. A. Shelton, D. W. Silverstein,
   D. M. A. Smith, T. A. Soares, D. Song, M. Swart, H. L. Taylor, G. S. Thomas,
            V. Tipparaju, D. G. Truhlar, K. Tsemekhman, T. Van Voorhis,
      A. Vazquez-Mayagoitia, P. Verma, O. Villa, A. Vishnu, K. D. Vogiatzis,
        D. Wang, J. H. Weare, M. J. Williamson, T. L. Windus, K. Wolinski,
        A. T. Wong, Q. Wu, C. Yang, Q. Yu, M. Zacharias, Z. Zhang, Y. Zhao,
                                and R. J. Harrison
                        "NWChem: Past, present, and future
                         J. Chem. Phys. 152, 184102 (2020)
                               doi:10.1063/5.0004997

                                      AUTHORS
                                      -------
     E. Apra, E. J. Bylaska, N. Govind, K. Kowalski, M. Valiev, W. A. de Jong,
      T. P. Straatsma, H. J. J. van Dam, D. Wang, T. L. Windus, N. P. Bauman,
       A. Panyala, J. Hammond, J. Autschbach, K. Bhaskaran-Nair, J. Brabec,
    K. Lopata, S. A. Fischer, S. Krishnamoorthy, M. Jacquelin, W. Ma, M. Klemm,
       O. Villa, Y. Chen, V. Anisimov, F. Aquino, S. Hirata, M. T. Hackler,
           Eric Hermes, L. Jensen, J. E. Moore, J. C. Becca, V. Konjkov,
            D. Mejia-Rodriguez, T. Risthaus, M. Malagoli, A. Marenich,
   A. Otero-de-la-Roza, J. Mullin, P. Nichols, R. Peverati, J. Pittner, Y. Zhao,
        P.-D. Fan, A. Fonari, M. J. Williamson, R. J. Harrison, J. R. Rehr,
      M. Dupuis, D. Silverstein, D. M. A. Smith, J. Nieplocha, V. Tipparaju,
      M. Krishnan, B. E. Van Kuiken, A. Vazquez-Mayagoitia, M. Swart, Q. Wu,
   T. Van Voorhis, A. A. Auer, M. Nooijen, L. D. Crosby, E. Brown, G. Cisneros,
     G. I. Fann, H. Fruchtl, J. Garza, K. Hirao, R. A. Kendall, J. A. Nichols,
       K. Tsemekhman, K. Wolinski, J. Anchell, D. E. Bernholdt, P. Borowski,
       T. Clark, D. Clerc, H. Dachsel, M. J. O. Deegan, K. Dyall, D. Elwood,
      E. Glendening, M. Gutowski, A. C. Hess, J. Jaffe, B. G. Johnson, J. Ju,
        R. Kobayashi, R. Kutteh, Z. Lin, R. Littlefield, X. Long, B. Meng,
      T. Nakajima, S. Niu, L. Pollack, M. Rosing, K. Glaesemann, G. Sandrone,
      M. Stave, H. Taylor, G. Thomas, J. H. van Lenthe, A. T. Wong, Z. Zhang.

 Total times  cpu:      163.2s     wall:      163.9s
