 argument  1 = /home/edo/park/nwchem.last/QA/tests/ch3f-lc-wpbeh/ch3f-lc-wpbeh.nw
  NWChem w/ OpenMP: maximum threads =    1



============================== echo of input deck ==============================
echo
start ch3f-lc-wpbeh
title ch3f-lc-wpbeh

geometry notrans noautoz units angstrom nocenter
symmetry c1
c  0.0    0.0    0.0
f  0.0    0.0    1.383
h  1.028  0.0   -0.350
h -0.514  0.890 -0.350
h -0.514 -0.890 -0.350
end

BASIS "ao basis" PRINT
* library 6-311G
END

charge 0

set geometry notrans
dft
 direct
 xc xwpbe 0.80 cpbe96 1.0 hfexch 1.00
 cam 0.2 cam_alpha 0.20 cam_beta 0.80
end

property
  shielding
end

task dft property
================================================================================


                                         
                                         


              Northwest Computational Chemistry Package (NWChem) 6.8
              ------------------------------------------------------


                    Environmental Molecular Sciences Laboratory
                       Pacific Northwest National Laboratory
                                Richland, WA 99352

                              Copyright (c) 1994-2018
                       Pacific Northwest National Laboratory
                            Battelle Memorial Institute

             NWChem is an open-source computational chemistry package
                        distributed under the terms of the
                      Educational Community License (ECL) 2.0
             A copy of the license is included with this distribution
                              in the LICENSE.TXT file

                                  ACKNOWLEDGMENT
                                  --------------

            This software and its documentation were developed at the
            EMSL at Pacific Northwest National Laboratory, a multiprogram
            national laboratory, operated for the U.S. Department of Energy
            by Battelle under Contract Number DE-AC05-76RL01830. Support
            for this work was provided by the Department of Energy Office
            of Biological and Environmental Research, Office of Basic
            Energy Sciences, and the Office of Advanced Scientific Computing.


           Job information
           ---------------

    hostname        = lagrange
    program         = /home/edo/park/nwchem.last/bin/LINUX64/nwchem
    date            = Mon Mar 18 18:46:56 2019

    compiled        = Mon_Mar_18_18:16:42_2019
    source          = /home/edo/park/nwchem.last
    nwchem branch   = Development
    nwchem revision = nwchem_on_git-750-g29617e4
    ga revision     = 5.7.0
    use scalapack   = F
    input           = /home/edo/park/nwchem.last/QA/tests/ch3f-lc-wpbeh/ch3f-lc-wpbeh.nw
    prefix          = ch3f-lc-wpbeh.
    data base       = ./ch3f-lc-wpbeh.db
    status          = startup
    nproc           =        1
    time left       =     -1s



           Memory information
           ------------------

    heap     =   13107194 doubles =    100.0 Mbytes
    stack    =   13107199 doubles =    100.0 Mbytes
    global   =   26214400 doubles =    200.0 Mbytes (distinct from heap & stack)
    total    =   52428793 doubles =    400.0 Mbytes
    verify   = yes
    hardfail = no 


           Directory information
           ---------------------

  0 permanent = .
  0 scratch   = .




                                NWChem Input Module
                                -------------------


                                   ch3f-lc-wpbeh
                                   -------------

 Scaling coordinates for geometry "notrans" by  1.889725989
 (inverse scale =  0.529177249)

 Turning off AUTOSYM since
 SYMMETRY directive was detected!



                             Geometry "notrans" -> ""
                             ------------------------

 Output coordinates in angstroms (scale by  1.889725989 to convert to a.u.)

  No.       Tag          Charge          X              Y              Z
 ---- ---------------- ---------- -------------- -------------- --------------
    1 c                    6.0000     0.00000000     0.00000000     0.00000000
    2 f                    9.0000     0.00000000     0.00000000     1.38300000
    3 h                    1.0000     1.02800000     0.00000000    -0.35000000
    4 h                    1.0000    -0.51400000     0.89000000    -0.35000000
    5 h                    1.0000    -0.51400000    -0.89000000    -0.35000000

      Atomic Mass 
      ----------- 

      c                 12.000000
      f                 18.998400
      h                  1.007825


 Effective nuclear repulsion energy (a.u.)      37.4174025949

            Nuclear Dipole moment (a.u.) 
            ----------------------------
        X                 Y               Z
 ---------------- ---------------- ----------------
     0.0000000000     0.0000000000    21.5372070918


            XYZ format geometry
            -------------------
     5
 notrans
 c                     0.00000000     0.00000000     0.00000000
 f                     0.00000000     0.00000000     1.38300000
 h                     1.02800000     0.00000000    -0.35000000
 h                    -0.51400000     0.89000000    -0.35000000
 h                    -0.51400000    -0.89000000    -0.35000000

 ==============================================================================
                                internuclear distances
 ------------------------------------------------------------------------------
       center one      |      center two      | atomic units |  angstroms
 ------------------------------------------------------------------------------
    2 f                |   1 c                |     2.61349  |     1.38300
    3 h                |   1 c                |     2.05214  |     1.08595
    4 h                |   1 c                |     2.05172  |     1.08572
    5 h                |   1 c                |     2.05172  |     1.08572
 ------------------------------------------------------------------------------
                         number of included internuclear distances:          4
 ==============================================================================



 ==============================================================================
                                 internuclear angles
 ------------------------------------------------------------------------------
        center 1       |       center 2       |       center 3       |  degrees
 ------------------------------------------------------------------------------
    2 f                |   1 c                |   3 h                |   108.80
    2 f                |   1 c                |   4 h                |   108.81
    2 f                |   1 c                |   5 h                |   108.81
    3 h                |   1 c                |   4 h                |   110.14
    3 h                |   1 c                |   5 h                |   110.14
    4 h                |   1 c                |   5 h                |   110.12
 ------------------------------------------------------------------------------
                            number of included internuclear angles:          6
 ==============================================================================



  warning:::::::::::::: from_nwchemrc
  NWCHEM_BASIS_LIBRARY set to: </usr/local/Cellar/nwchem/6.8.1/share/nwchem/libraries/>
  but file does not exist !
  using compiled in library


 Summary of "ao basis" -> "" (cartesian)
 ------------------------------------------------------------------------------
       Tag                 Description            Shells   Functions and Types
 ---------------- ------------------------------  ------  ---------------------
 *                           6-311G                   on all atoms 


  pbe96 is a nonlocal functional; adding pw91lda local functional. 
                              NWChem Property Module
                              ----------------------


                                   ch3f-lc-wpbeh

  itol2e modified to match energy
  convergence criterion.

                                 NWChem DFT Module
                                 -----------------


                                   ch3f-lc-wpbeh


                      Basis "ao basis" -> "ao basis" (cartesian)
                      -----
  c (Carbon)
  ----------
            Exponent  Coefficients 
       -------------- ---------------------------------------------------------
  1 S  4.56324000E+03  0.001967
  1 S  6.82024000E+02  0.015231
  1 S  1.54973000E+02  0.076127
  1 S  4.44553000E+01  0.260801
  1 S  1.30290000E+01  0.616462
  1 S  1.82773000E+00  0.221006

  2 S  2.09642000E+01  0.114660
  2 S  4.80331000E+00  0.919999
  2 S  1.45933000E+00 -0.003031

  3 P  2.09642000E+01  0.040249
  3 P  4.80331000E+00  0.237594
  3 P  1.45933000E+00  0.815854

  4 S  4.83456000E-01  1.000000

  5 P  4.83456000E-01  1.000000

  6 S  1.45585000E-01  1.000000

  7 P  1.45585000E-01  1.000000

  f (Fluorine)
  ------------
            Exponent  Coefficients 
       -------------- ---------------------------------------------------------
  1 S  1.14271000E+04  0.001801
  1 S  1.72235000E+03  0.013742
  1 S  3.95746000E+02  0.068133
  1 S  1.15139000E+02  0.233325
  1 S  3.36026000E+01  0.589086
  1 S  4.91901000E+00  0.299505

  2 S  5.54441000E+01  0.114536
  2 S  1.26323000E+01  0.920512
  2 S  3.71756000E+00 -0.003378

  3 P  5.54441000E+01  0.035461
  3 P  1.26323000E+01  0.237451
  3 P  3.71756000E+00  0.820458

  4 S  1.16545000E+00  1.000000

  5 P  1.16545000E+00  1.000000

  6 S  3.21892000E-01  1.000000

  7 P  3.21892000E-01  1.000000

  h (Hydrogen)
  ------------
            Exponent  Coefficients 
       -------------- ---------------------------------------------------------
  1 S  3.38650000E+01  0.025494
  1 S  5.09479000E+00  0.190373
  1 S  1.15879000E+00  0.852161

  2 S  3.25840000E-01  1.000000

  3 S  1.02741000E-01  1.000000



 Summary of "ao basis" -> "ao basis" (cartesian)
 ------------------------------------------------------------------------------
       Tag                 Description            Shells   Functions and Types
 ---------------- ------------------------------  ------  ---------------------
 c                           6-311G                  7       13   4s3p
 f                           6-311G                  7       13   4s3p
 h                           6-311G                  3        3   3s




 Summary of "ao basis" -> "ao basis" (cartesian)
 ------------------------------------------------------------------------------
       Tag                 Description            Shells   Functions and Types
 ---------------- ------------------------------  ------  ---------------------
 c                           6-311G                  7       13   4s3p
 f                           6-311G                  7       13   4s3p
 h                           6-311G                  3        3   3s


  int_init: cando_txs set to always be  F
  Caching 1-el integrals 
  itol2e modified to match energy
  convergence criterion.

            General Information
            -------------------
          SCF calculation type: DFT
          Wavefunction type:  closed shell.
          No. of atoms     :     5
          No. of electrons :    18
           Alpha electrons :     9
            Beta electrons :     9
          Charge           :     0
          Spin multiplicity:     1
          Use of symmetry is: off; symmetry adaption is: off
          Maximum number of iterations:  30
          This is a Direct SCF calculation.
          AO basis - number of functions:    35
                     number of shells:    23
          Convergence on energy requested:  1.00D-07
          Convergence on density requested:  1.00D-05
          Convergence on gradient requested:  5.00D-04

              XC Information
              --------------
                     Hartree-Fock (Exact) Exchange  1.000          
                     LC-wPBE(h)Exchange Functional  0.800          
            Perdew 1991 LDA Correlation Functional  1.000 local    
           PerdewBurkeErnz. Correlation Functional  1.000 non-local

           Range-Separation Parameters        
           ---------------------------
           Alpha           :  0.20
           Beta            :  0.80
           Gamma           :  0.20
           Short-Range HF  :     F

             Grid Information
             ----------------
          Grid used for XC integration:  fine      
          Radial quadrature: Mura-Knowles        
          Angular quadrature: Lebedev. 
          Tag              B.-S. Rad. Rad. Pts. Rad. Cut. Ang. Pts.
          ---              ---------- --------- --------- ---------
          c                   0.70       70           7.0       590
          f                   0.50       70           7.0       590
          h                   0.35       60           8.0       590
          Grid pruning is: on 
          Number of quadrature shells:   320
          Spatial weights used:  Erf1

          Convergence Information
          -----------------------
          Convergence aids based upon iterative change in 
          total energy or number of iterations. 
          Levelshifting, if invoked, occurs when the 
          HOMO/LUMO gap drops below (HL_TOL):  1.00D-02
          DIIS, if invoked, will attempt to extrapolate 
          using up to (NFOCK): 10 stored Fock matrices.

                    Damping( 0%)  Levelshifting(0.5)       DIIS
                  --------------- ------------------- ---------------
          dE  on:    start            ASAP                start   
          dE off:    2 iters         30 iters            30 iters 


      Screening Tolerance Information
      -------------------------------
          Density screening/tol_rho:  1.00D-11
          AO Gaussian exp screening on grid/accAOfunc:  16
          CD Gaussian exp screening on grid/accCDfunc:  20
          XC Gaussian exp screening on grid/accXCfunc:  20
          Schwarz screening/accCoul:  1.00D-08


      Superposition of Atomic Density Guess
      -------------------------------------

 Sum of atomic energies:        -138.57325452

      Non-variational initial energy
      ------------------------------

 Total energy =    -139.229769
 1-e energy   =    -264.952728
 2-e energy   =      88.305556
 HOMO         =      -0.441631
 LUMO         =       0.112239

   Time after variat. SCF:      0.1
   Time prior to 1st pass:      0.1

 Grid_pts file          = ./ch3f-lc-wpbeh.gridpts.0
 Record size in doubles =  12289        No. of grid_pts per rec  =   3070
 Max. records in memory =     69        Max. recs in file   = *********

 Grid integrated density:      17.999997565746
 Requested integration accuracy:   0.10E-06

           Memory utilization after 1st SCF pass: 
           Heap Space remaining (MW):        5.97             5967130
          Stack Space remaining (MW):       13.11            13106836

   convergence    iter        energy       DeltaE   RMS-Dens  Diis-err    time
 ---------------- ----- ----------------- --------- --------- ---------  ------
 d= 0,ls=0.0,diis     1   -139.5715080311 -1.77D+02  1.41D-02  4.34D-01     1.0
 Grid integrated density:      17.999997632328
 Requested integration accuracy:   0.10E-06
 d= 0,ls=0.0,diis     2   -139.5859870018 -1.45D-02  6.45D-03  3.75D-01     1.7
 d= 0,ls=0.0,diis     3   -139.6147852123 -2.88D-02  1.06D-03  1.15D-02     2.5
 d= 0,ls=0.0,diis     4   -139.6154481451 -6.63D-04  2.97D-04  5.03D-04     3.2
 d= 0,ls=0.0,diis     5   -139.6155003745 -5.22D-05  7.43D-05  1.60D-05     4.0
  Resetting Diis
 d= 0,ls=0.0,diis     6   -139.6155021975 -1.82D-06  1.59D-05  1.13D-07     4.8
 d= 0,ls=0.0,diis     7   -139.6155022246 -2.71D-08  2.18D-06  1.30D-09     5.5


         Total DFT energy =     -139.615502224567
      One electron energy =     -266.554664014478
           Coulomb energy =      106.414849740510
    Exchange-Corr. energy =      -16.893090545505
 Nuclear repulsion energy =       37.417402594906

 Numeric. integr. density =       18.000000079003

     Total iterative time =      5.4s



                       DFT Final Molecular Orbital Analysis
                       ------------------------------------

 Vector    1  Occ=2.000000D+00  E=-2.471736D+01
              MO Center= -2.8D-09,  5.5D-13,  1.4D+00, r^2= 1.2D-02
   Bfn.  Coefficient  Atom+Function         Bfn.  Coefficient  Atom+Function  
  ----- ------------  ---------------      ----- ------------  ---------------
    14      0.548055  2 F  s                 15      0.471722  2 F  s          

 Vector    2  Occ=2.000000D+00  E=-1.031368D+01
              MO Center= -5.3D-08,  2.7D-13,  1.6D-04, r^2= 2.8D-02
   Bfn.  Coefficient  Atom+Function         Bfn.  Coefficient  Atom+Function  
  ----- ------------  ---------------      ----- ------------  ---------------
     1      0.563291  1 C  s                  2      0.463745  1 C  s          

 Vector    3  Occ=2.000000D+00  E=-1.284938D+00
              MO Center= -4.2D-06,  8.9D-12,  1.2D+00, r^2= 4.2D-01
   Bfn.  Coefficient  Atom+Function         Bfn.  Coefficient  Atom+Function  
  ----- ------------  ---------------      ----- ------------  ---------------
    19      0.571525  2 F  s                 23      0.458290  2 F  s          
    15     -0.193596  2 F  s                  6      0.144667  1 C  s          
    14     -0.119317  2 F  s                 22     -0.081451  2 F  pz         
     9      0.069623  1 C  pz                 2     -0.055240  1 C  s          
    26     -0.055151  2 F  pz                 5      0.046288  1 C  pz         

 Vector    4  Occ=2.000000D+00  E=-8.005870D-01
              MO Center= -1.8D-04,  3.4D-10,  7.0D-02, r^2= 1.3D+00
   Bfn.  Coefficient  Atom+Function         Bfn.  Coefficient  Atom+Function  
  ----- ------------  ---------------      ----- ------------  ---------------
     6      0.459525  1 C  s                 10      0.324678  1 C  s          
    23     -0.220335  2 F  s                 19     -0.195389  2 F  s          
     2     -0.166664  1 C  s                 22     -0.115455  2 F  pz         
     1     -0.103564  1 C  s                 27      0.090223  3 H  s          
    30      0.090284  4 H  s                 33      0.090284  5 H  s          

 Vector    5  Occ=2.000000D+00  E=-5.716123D-01
              MO Center=  1.2D-01, -6.2D-07,  4.1D-01, r^2= 1.4D+00
   Bfn.  Coefficient  Atom+Function         Bfn.  Coefficient  Atom+Function  
  ----- ------------  ---------------      ----- ------------  ---------------
     7      0.284198  1 C  px                20      0.255634  2 F  px         
    24      0.219752  2 F  px                16      0.175930  2 F  px         
    11      0.174081  1 C  px                 3      0.170602  1 C  px         
    28      0.148434  3 H  s                 27      0.126544  3 H  s          
    31     -0.074376  4 H  s                 34     -0.074377  5 H  s          

 Vector    6  Occ=2.000000D+00  E=-5.716056D-01
              MO Center= -1.2D-01,  6.2D-07,  4.1D-01, r^2= 1.4D+00
   Bfn.  Coefficient  Atom+Function         Bfn.  Coefficient  Atom+Function  
  ----- ------------  ---------------      ----- ------------  ---------------
     8      0.284196  1 C  py                21      0.255645  2 F  py         
    25      0.219769  2 F  py                17      0.175939  2 F  py         
    12      0.174058  1 C  py                 4      0.170616  1 C  py         
    31      0.128646  4 H  s                 34     -0.128646  5 H  s          
    30      0.109699  4 H  s                 33     -0.109699  5 H  s          

 Vector    7  Occ=2.000000D+00  E=-5.647320D-01
              MO Center=  8.7D-04,  1.8D-09,  9.1D-01, r^2= 1.3D+00
   Bfn.  Coefficient  Atom+Function         Bfn.  Coefficient  Atom+Function  
  ----- ------------  ---------------      ----- ------------  ---------------
    22      0.359130  2 F  pz                26      0.314395  2 F  pz         
     9     -0.259455  1 C  pz                18      0.247023  2 F  pz         
     5     -0.154067  1 C  pz                23      0.140083  2 F  s          
    19      0.128156  2 F  s                 10      0.103691  1 C  s          
    13     -0.068754  1 C  pz                28      0.053539  3 H  s          

 Vector    8  Occ=2.000000D+00  E=-4.234731D-01
              MO Center=  1.2D-01,  5.3D-07,  7.8D-01, r^2= 1.4D+00
   Bfn.  Coefficient  Atom+Function         Bfn.  Coefficient  Atom+Function  
  ----- ------------  ---------------      ----- ------------  ---------------
    24      0.389706  2 F  px                20      0.375007  2 F  px         
    16      0.265768  2 F  px                28     -0.225314  3 H  s          
     7     -0.188075  1 C  px                 3     -0.120820  1 C  px         
    27     -0.120016  3 H  s                 31      0.112655  4 H  s          
    34      0.112654  5 H  s                 29     -0.093814  3 H  s          

 Vector    9  Occ=2.000000D+00  E=-4.234690D-01
              MO Center= -1.2D-01, -5.3D-07,  7.8D-01, r^2= 1.4D+00
   Bfn.  Coefficient  Atom+Function         Bfn.  Coefficient  Atom+Function  
  ----- ------------  ---------------      ----- ------------  ---------------
    25      0.389701  2 F  py                21      0.375001  2 F  py         
    17      0.265764  2 F  py                31     -0.195128  4 H  s          
    34      0.195129  5 H  s                  8     -0.188087  1 C  py         
     4     -0.120843  1 C  py                30     -0.103943  4 H  s          
    33      0.103944  5 H  s                 32     -0.081246  4 H  s          

 Vector   10  Occ=0.000000D+00  E= 1.217798D-01
              MO Center=  2.0D-04,  8.9D-11, -4.8D-01, r^2= 4.7D+00
   Bfn.  Coefficient  Atom+Function         Bfn.  Coefficient  Atom+Function  
  ----- ------------  ---------------      ----- ------------  ---------------
    10      1.962516  1 C  s                 29     -0.939172  3 H  s          
    32     -0.938872  4 H  s                 35     -0.938872  5 H  s          
    13     -0.379479  1 C  pz                 6      0.164756  1 C  s          
     9     -0.093335  1 C  pz                 2     -0.085762  1 C  s          
     5     -0.071045  1 C  pz                26      0.068592  2 F  pz         

 Vector   11  Occ=0.000000D+00  E= 1.741070D-01
              MO Center= -4.2D-04, -4.7D-10,  9.8D-02, r^2= 2.2D+00
   Bfn.  Coefficient  Atom+Function         Bfn.  Coefficient  Atom+Function  
  ----- ------------  ---------------      ----- ------------  ---------------
    13      1.126522  1 C  pz                23     -0.841827  2 F  s          
    10      0.568089  1 C  s                 26      0.486656  2 F  pz         
     9      0.278595  1 C  pz                22      0.219395  2 F  pz         
     6      0.167139  1 C  s                  5      0.161117  1 C  pz         
    18      0.159897  2 F  pz                19     -0.159581  2 F  s          

 Vector   12  Occ=0.000000D+00  E= 1.793620D-01
              MO Center=  7.4D-01, -2.1D-08, -4.9D-01, r^2= 4.4D+00
   Bfn.  Coefficient  Atom+Function         Bfn.  Coefficient  Atom+Function  
  ----- ------------  ---------------      ----- ------------  ---------------
    29      2.030336  3 H  s                 11     -1.112792  1 C  px         
    32     -1.015450  4 H  s                 35     -1.015450  5 H  s          
     7     -0.232800  1 C  px                 3     -0.166603  1 C  px         
    24      0.105379  2 F  px                28      0.037604  3 H  s          
    27      0.031274  3 H  s                 20      0.028474  2 F  px         

 Vector   13  Occ=0.000000D+00  E= 1.793851D-01
              MO Center= -7.4D-01,  2.1D-08, -4.9D-01, r^2= 4.4D+00
   Bfn.  Coefficient  Atom+Function         Bfn.  Coefficient  Atom+Function  
  ----- ------------  ---------------      ----- ------------  ---------------
    32      1.758903  4 H  s                 35     -1.758903  5 H  s          
    12     -1.112772  1 C  py                 8     -0.232767  1 C  py         
     4     -0.166591  1 C  py                25      0.105361  2 F  py         
    31      0.032702  4 H  s                 34     -0.032702  5 H  s          
    21      0.028468  2 F  py                17      0.027892  2 F  py         

 Vector   14  Occ=0.000000D+00  E= 3.842551D-01
              MO Center=  2.1D-01, -1.6D-07, -6.4D-03, r^2= 2.9D+00
   Bfn.  Coefficient  Atom+Function         Bfn.  Coefficient  Atom+Function  
  ----- ------------  ---------------      ----- ------------  ---------------
    12      1.558824  1 C  py                31     -1.152604  4 H  s          
    34      1.152603  5 H  s                 25     -0.280408  2 F  py         
    32      0.205553  4 H  s                 35     -0.205553  5 H  s          
    21     -0.097523  2 F  py                17     -0.081355  2 F  py         
    30     -0.073447  4 H  s                 33      0.073447  5 H  s          

 Vector   15  Occ=0.000000D+00  E= 3.842949D-01
              MO Center= -2.1D-01,  1.6D-07, -6.4D-03, r^2= 2.9D+00
   Bfn.  Coefficient  Atom+Function         Bfn.  Coefficient  Atom+Function  
  ----- ------------  ---------------      ----- ------------  ---------------
    11      1.558991  1 C  px                28     -1.331414  3 H  s          
    31      0.665257  4 H  s                 34      0.665258  5 H  s          
    24     -0.280440  2 F  px                29      0.237819  3 H  s          
    32     -0.118363  4 H  s                 35     -0.118363  5 H  s          
    20     -0.097537  2 F  px                27     -0.084835  3 H  s          

 Vector   16  Occ=0.000000D+00  E= 5.106758D-01
              MO Center=  8.5D-05,  4.1D-11, -6.8D-02, r^2= 2.0D+00
   Bfn.  Coefficient  Atom+Function         Bfn.  Coefficient  Atom+Function  
  ----- ------------  ---------------      ----- ------------  ---------------
    13      1.177829  1 C  pz                 9     -0.739445  1 C  pz         
    10     -0.690663  1 C  s                 28      0.559361  3 H  s          
    31      0.559857  4 H  s                 34      0.559857  5 H  s          
     6     -0.525602  1 C  s                  5     -0.248470  1 C  pz         
    22     -0.234981  2 F  pz                23     -0.232061  2 F  s          

 Vector   17  Occ=0.000000D+00  E= 5.585658D-01
              MO Center= -3.1D-04, -1.1D-10, -3.9D-02, r^2= 2.5D+00
   Bfn.  Coefficient  Atom+Function         Bfn.  Coefficient  Atom+Function  
  ----- ------------  ---------------      ----- ------------  ---------------
    10      1.671862  1 C  s                 28     -1.103397  3 H  s          
    31     -1.104078  4 H  s                 34     -1.104078  5 H  s          
     9     -0.574661  1 C  pz                23     -0.490146  2 F  s          
    13      0.388622  1 C  pz                29      0.273453  3 H  s          
    32      0.271333  4 H  s                 35      0.271333  5 H  s          

 Vector   18  Occ=0.000000D+00  E= 6.382408D-01
              MO Center=  2.3D-01, -1.2D-09, -2.1D-01, r^2= 3.0D+00
   Bfn.  Coefficient  Atom+Function         Bfn.  Coefficient  Atom+Function  
  ----- ------------  ---------------      ----- ------------  ---------------
    11      1.934483  1 C  px                29     -1.892484  3 H  s          
     7     -1.064111  1 C  px                32      0.946452  4 H  s          
    35      0.946452  5 H  s                 28      0.512195  3 H  s          
     3     -0.267561  1 C  px                31     -0.257330  4 H  s          
    34     -0.257330  5 H  s                 24     -0.139622  2 F  px         

 Vector   19  Occ=0.000000D+00  E= 6.382816D-01
              MO Center= -2.3D-01,  1.6D-09, -2.1D-01, r^2= 3.0D+00
   Bfn.  Coefficient  Atom+Function         Bfn.  Coefficient  Atom+Function  
  ----- ------------  ---------------      ----- ------------  ---------------
    12      1.934195  1 C  py                32     -1.639369  4 H  s          
    35      1.639369  5 H  s                  8     -1.064155  1 C  py         
    31      0.444589  4 H  s                 34     -0.444589  5 H  s          
     4     -0.267562  1 C  py                25     -0.139581  2 F  py         
    30      0.070654  4 H  s                 33     -0.070654  5 H  s          

 Vector   20  Occ=0.000000D+00  E= 7.956728D-01
              MO Center= -2.3D-04, -2.6D-10, -3.1D-01, r^2= 2.8D+00
   Bfn.  Coefficient  Atom+Function         Bfn.  Coefficient  Atom+Function  
  ----- ------------  ---------------      ----- ------------  ---------------
    10      5.067616  1 C  s                  6     -2.069918  1 C  s          
    29     -0.924322  3 H  s                 32     -0.925218  4 H  s          
    35     -0.925218  5 H  s                 13     -0.547696  1 C  pz         
    23     -0.524314  2 F  s                 28     -0.458412  3 H  s          
    31     -0.458397  4 H  s                 34     -0.458397  5 H  s          

 Vector   21  Occ=0.000000D+00  E= 1.122230D+00
              MO Center=  4.2D-05,  2.3D-10,  1.9D+00, r^2= 9.2D-01
   Bfn.  Coefficient  Atom+Function         Bfn.  Coefficient  Atom+Function  
  ----- ------------  ---------------      ----- ------------  ---------------
    26      1.361428  2 F  pz                22     -0.726026  2 F  pz         
     6      0.563062  1 C  s                 19     -0.424171  2 F  s          
     9      0.400585  1 C  pz                23      0.259726  2 F  s          
    18     -0.215005  2 F  pz                10     -0.183192  1 C  s          
    13     -0.093468  1 C  pz                15      0.076565  2 F  s          

 Vector   22  Occ=0.000000D+00  E= 1.148811D+00
              MO Center=  3.8D-02, -4.4D-08,  1.4D+00, r^2= 1.4D+00
   Bfn.  Coefficient  Atom+Function         Bfn.  Coefficient  Atom+Function  
  ----- ------------  ---------------      ----- ------------  ---------------
    25      1.337660  2 F  py                21     -0.786719  2 F  py         
    12     -0.737997  1 C  py                31      0.290581  4 H  s          
    34     -0.290580  5 H  s                 17     -0.258696  2 F  py         
    32      0.117459  4 H  s                 35     -0.117459  5 H  s          
     8     -0.063919  1 C  py         

 Vector   23  Occ=0.000000D+00  E= 1.148829D+00
              MO Center= -3.8D-02,  4.4D-08,  1.4D+00, r^2= 1.4D+00
   Bfn.  Coefficient  Atom+Function         Bfn.  Coefficient  Atom+Function  
  ----- ------------  ---------------      ----- ------------  ---------------
    24      1.337713  2 F  px                20     -0.786723  2 F  px         
    11     -0.738244  1 C  px                28      0.335492  3 H  s          
    16     -0.258694  2 F  px                31     -0.168007  4 H  s          
    34     -0.168007  5 H  s                 29      0.135540  3 H  s          
    32     -0.067929  4 H  s                 35     -0.067929  5 H  s          

 Vector   24  Occ=0.000000D+00  E= 1.787358D+00
              MO Center= -6.0D-05, -5.5D-11,  1.0D+00, r^2= 1.3D+00
   Bfn.  Coefficient  Atom+Function         Bfn.  Coefficient  Atom+Function  
  ----- ------------  ---------------      ----- ------------  ---------------
    23      2.998270  2 F  s                 10     -2.715620  1 C  s          
    19     -1.782260  2 F  s                 26     -1.347839  2 F  pz         
     9     -0.656442  1 C  pz                13     -0.480858  1 C  pz         
    28      0.464445  3 H  s                 31      0.464662  4 H  s          
    34      0.464662  5 H  s                 22      0.291093  2 F  pz         

 Vector   25  Occ=0.000000D+00  E= 2.283704D+00
              MO Center=  4.3D-04, -7.0D-09, -3.3D-01, r^2= 2.0D+00
   Bfn.  Coefficient  Atom+Function         Bfn.  Coefficient  Atom+Function  
  ----- ------------  ---------------      ----- ------------  ---------------
    28      1.455655  3 H  s                 31      1.455113  4 H  s          
    34      1.455113  5 H  s                 10     -1.305393  1 C  s          
    27     -0.869738  3 H  s                 30     -0.869240  4 H  s          
    33     -0.869240  5 H  s                 23      0.462636  2 F  s          
     9      0.380359  1 C  pz                 5     -0.325989  1 C  pz         

 Vector   26  Occ=0.000000D+00  E= 2.300505D+00
              MO Center=  5.2D-01,  2.4D-07, -3.6D-01, r^2= 1.8D+00
   Bfn.  Coefficient  Atom+Function         Bfn.  Coefficient  Atom+Function  
  ----- ------------  ---------------      ----- ------------  ---------------
    28      1.760967  3 H  s                 27     -1.159888  3 H  s          
    29     -0.959793  3 H  s                 31     -0.881237  4 H  s          
    34     -0.881236  5 H  s                  7     -0.692034  1 C  px         
    30      0.580302  4 H  s                 33      0.580301  5 H  s          
     3      0.494236  1 C  px                32      0.479863  4 H  s          

 Vector   27  Occ=0.000000D+00  E= 2.300548D+00
              MO Center= -5.2D-01, -2.3D-07, -3.6D-01, r^2= 1.8D+00
   Bfn.  Coefficient  Atom+Function         Bfn.  Coefficient  Atom+Function  
  ----- ------------  ---------------      ----- ------------  ---------------
    31      1.525611  4 H  s                 34     -1.525611  5 H  s          
    30     -1.004780  4 H  s                 33      1.004781  5 H  s          
    32     -0.831251  4 H  s                 35      0.831252  5 H  s          
     8     -0.691726  1 C  py                 4      0.494079  1 C  py         
    12      0.105334  1 C  py                25      0.052789  2 F  py         

 Vector   28  Occ=0.000000D+00  E= 2.870085D+00
              MO Center=  2.9D-05, -2.5D-11, -1.0D-01, r^2= 8.3D-01
   Bfn.  Coefficient  Atom+Function         Bfn.  Coefficient  Atom+Function  
  ----- ------------  ---------------      ----- ------------  ---------------
     9      1.658299  1 C  pz                 5     -1.311029  1 C  pz         
    10      1.061911  1 C  s                 13     -0.708307  1 C  pz         
    28     -0.421515  3 H  s                 31     -0.421299  4 H  s          
    34     -0.421299  5 H  s                 26      0.293683  2 F  pz         
    27      0.283292  3 H  s                 30      0.282972  4 H  s          

 Vector   29  Occ=0.000000D+00  E= 2.932667D+00
              MO Center=  1.4D-02, -1.5D-08,  5.4D-03, r^2= 9.2D-01
   Bfn.  Coefficient  Atom+Function         Bfn.  Coefficient  Atom+Function  
  ----- ------------  ---------------      ----- ------------  ---------------
     8      1.592536  1 C  py                 4     -1.262725  1 C  py         
    12     -1.095629  1 C  py                30     -0.530639  4 H  s          
    33      0.530639  5 H  s                 31      0.416420  4 H  s          
    34     -0.416420  5 H  s                 32      0.362699  4 H  s          
    35     -0.362699  5 H  s                 25      0.045238  2 F  py         

 Vector   30  Occ=0.000000D+00  E= 2.932770D+00
              MO Center= -1.4D-02,  1.5D-08,  5.3D-03, r^2= 9.2D-01
   Bfn.  Coefficient  Atom+Function         Bfn.  Coefficient  Atom+Function  
  ----- ------------  ---------------      ----- ------------  ---------------
     7      1.592363  1 C  px                 3     -1.262666  1 C  px         
    11     -1.095627  1 C  px                27     -0.612716  3 H  s          
    28      0.480929  3 H  s                 29      0.418462  3 H  s          
    30      0.306599  4 H  s                 33      0.306600  5 H  s          
    31     -0.240729  4 H  s                 34     -0.240729  5 H  s          

 Vector   31  Occ=0.000000D+00  E= 6.201572D+00
              MO Center=  2.4D-03,  1.7D-08,  1.4D+00, r^2= 3.6D-01
   Bfn.  Coefficient  Atom+Function         Bfn.  Coefficient  Atom+Function  
  ----- ------------  ---------------      ----- ------------  ---------------
    21      1.410601  2 F  py                17     -1.252234  2 F  py         
    25     -0.630215  2 F  py                12      0.274995  1 C  py         
    31     -0.078064  4 H  s                 34      0.078065  5 H  s          
     8     -0.069886  1 C  py                32     -0.063992  4 H  s          
    35      0.063992  5 H  s                  4      0.049945  1 C  py         

 Vector   32  Occ=0.000000D+00  E= 6.201583D+00
              MO Center= -2.4D-03, -1.7D-08,  1.4D+00, r^2= 3.6D-01
   Bfn.  Coefficient  Atom+Function         Bfn.  Coefficient  Atom+Function  
  ----- ------------  ---------------      ----- ------------  ---------------
    20      1.410608  2 F  px                16     -1.252235  2 F  px         
    24     -0.630236  2 F  px                11      0.275059  1 C  px         
    28     -0.090106  3 H  s                 29     -0.073869  3 H  s          
     7     -0.069888  1 C  px                 3      0.049945  1 C  px         
    31      0.045158  4 H  s                 34      0.045157  5 H  s          

 Vector   33  Occ=0.000000D+00  E= 6.215368D+00
              MO Center=  5.0D-06,  1.3D-10,  1.4D+00, r^2= 3.7D-01
   Bfn.  Coefficient  Atom+Function         Bfn.  Coefficient  Atom+Function  
  ----- ------------  ---------------      ----- ------------  ---------------
    22      1.444086  2 F  pz                18     -1.257861  2 F  pz         
    26     -0.715801  2 F  pz                23      0.342004  2 F  s          
    10     -0.321847  1 C  s                 13     -0.178216  1 C  pz         
    19     -0.157775  2 F  s                  9      0.082802  1 C  pz         
     5     -0.074391  1 C  pz                29      0.029764  3 H  s          

 Vector   34  Occ=0.000000D+00  E= 2.342891D+01
              MO Center= -3.2D-06, -1.5D-13, -1.2D-03, r^2= 9.5D-02
   Bfn.  Coefficient  Atom+Function         Bfn.  Coefficient  Atom+Function  
  ----- ------------  ---------------      ----- ------------  ---------------
     2     -2.173006  1 C  s                  1      2.026026  1 C  s          
    10     -0.501864  1 C  s                  6      0.467406  1 C  s          
    29      0.100051  3 H  s                 32      0.100102  4 H  s          
    35      0.100102  5 H  s                 13      0.047231  1 C  pz         
    26      0.028788  2 F  pz         

 Vector   35  Occ=0.000000D+00  E= 6.685285D+01
              MO Center= -2.0D-07,  2.3D-12,  1.4D+00, r^2= 2.7D-02
   Bfn.  Coefficient  Atom+Function         Bfn.  Coefficient  Atom+Function  
  ----- ------------  ---------------      ----- ------------  ---------------
    15     -2.394473  2 F  s                 14      2.325773  2 F  s          
    23     -0.235456  2 F  s                 19      0.209135  2 F  s          
    10      0.166966  1 C  s                 26      0.072292  2 F  pz         
    13      0.048783  1 C  pz                28     -0.033100  3 H  s          
    31     -0.033114  4 H  s                 34     -0.033114  5 H  s          


 center of mass
 --------------
 x =   0.00000000 y =   0.00000000 z =   1.40064031

 moments of inertia (a.u.)
 ------------------
          70.045742832072           0.000000000000           0.000000000000
           0.000000000000          70.049255463773           0.000000000000
           0.000000000000           0.000000000000          11.406609230869

     Multipole analysis of the density
     ---------------------------------

     L   x y z        total         alpha         beta         nuclear
     -   - - -        -----         -----         ----         -------
     0   0 0 0     -0.000000     -9.000000     -9.000000     18.000000

     1   1 0 0     -0.000104     -0.000052     -0.000052      0.000000
     1   0 1 0     -0.000000     -0.000000     -0.000000      0.000000
     1   0 0 1     -0.862390    -11.199798    -11.199798     21.537207

     2   2 0 0     -8.721625     -7.191195     -7.191195      5.660765
     2   1 1 0      0.000000      0.000000      0.000000      0.000000
     2   1 0 1      0.000107      0.000054      0.000054      0.000000
     2   0 2 0     -8.722361     -7.189820     -7.189820      5.657280
     2   0 1 1      0.000000      0.000000      0.000000      0.000000
     2   0 0 2    -11.365381    -37.075383    -37.075383     62.785385


          -----------------------------------------
          Chemical Shielding Tensors (GIAO, in ppm)
          -----------------------------------------

  int_init: cando_txs set to always be  F
    0 giaofock schwarz done =      99.85%
    0 giaofock schwarz done =      99.85%
    0 giaofock schwarz done =      99.85%
                                NWChem CPHF Module
                                ------------------


  int_init: cando_txs set to always be  F
  scftype          =     RHF 
  nclosed          =        9
  nopen            =        0
  variables        =      234
  # of vectors     =        3
  tolerance        = 0.10D-03
  level shift      = 0.00D+00
  max iterations   =       50
  max subspace     =       30

 SCF residual:    2.3734643718745039E-005


Iterative solution of linear equations
  No. of variables      234
  No. of equations        3
  Maximum subspace       30
        Iterations       50
       Convergence  1.0D-04
        Start time     12.1


   iter   nsub   residual    time
   ----  ------  --------  ---------
     1      3    5.05D-01      13.5
     2      6    3.14D-02      14.9
     3      9    5.05D-03      16.3
     4     12    5.24D-04      17.6
     5     15    4.71D-05      19.0

 Wrote CPHF data to ./ch3f-lc-wpbeh.shieldcphf

  int_init: cando_txs set to always be  F
 Calc. par tensor-> nonrel
      Atom:    1  C 
        Diamagnetic
    244.0661     -0.0000      0.0002
     -0.0000    244.0689      0.0000
      0.0002      0.0000    257.9591

        Paramagnetic
   -149.0185      0.0000     -0.0159
      0.0000   -149.0173      0.0000
     -0.0159      0.0000    -64.0059

        Total Shielding Tensor
     95.0476      0.0000     -0.0157
      0.0000     95.0515      0.0000
     -0.0157      0.0000    193.9531

           isotropic =     128.0174
          anisotropy =      98.9036

          Principal Components and Axis System
                 1           2           3
              193.9531     95.0515     95.0476

      1        -0.0002      0.0000      1.0000
      2         0.0000      1.0000     -0.0000
      3         1.0000      0.0000      0.0002



      Atom:    2  F 
        Diamagnetic
    463.3394      0.0000      0.0010
      0.0000    463.3397     -0.0000
      0.0010     -0.0000    493.8097

        Paramagnetic
     28.7802     -0.0000     -0.0276
     -0.0000     28.7481     -0.0000
     -0.0276     -0.0000    -79.4243

        Total Shielding Tensor
    492.1196     -0.0000     -0.0265
     -0.0000    492.0879     -0.0000
     -0.0265     -0.0000    414.3854

           isotropic =     466.1976
          anisotropy =      38.8829

          Principal Components and Axis System
                 1           2           3
              492.1196    492.0879    414.3854

      1         1.0000      0.0000      0.0003
      2        -0.0000      1.0000      0.0000
      3        -0.0003     -0.0000      1.0000



      Atom:    3  H 
        Diamagnetic
     35.7235     -0.0000     -6.0830
     -0.0000     23.0254     -0.0000
     -6.0830     -0.0000     28.6943

        Paramagnetic
     -6.8246      0.0000      3.2111
      0.0000      2.4147      0.0000
      3.2111      0.0000      2.7356

        Total Shielding Tensor
     28.8989      0.0000     -2.8719
      0.0000     25.4401     -0.0000
     -2.8719     -0.0000     31.4299

           isotropic =      28.5896
          anisotropy =       7.0697

          Principal Components and Axis System
                 1           2           3
               33.3028     27.0261     25.4401

      1        -0.5462      0.8376     -0.0000
      2        -0.0000      0.0000      1.0000
      3         0.8376      0.5462     -0.0000



      Atom:    4  H 
        Diamagnetic
     26.2065     -5.5003      3.0429
     -5.5003     32.5549     -5.2691
      3.0429     -5.2691     28.7010

        Paramagnetic
      0.1029      4.0032     -1.6067
      4.0032     -4.5170      2.7825
     -1.6067      2.7825      2.7337

        Total Shielding Tensor
     26.3094     -1.4971      1.4362
     -1.4971     28.0380     -2.4866
      1.4362     -2.4866     31.4347

           isotropic =      28.5940
          anisotropy =       7.0692

          Principal Components and Axis System
                 1           2           3
               33.3068     27.0302     25.4451

      1         0.2731     -0.4187      0.8661
      2        -0.4729      0.7255      0.4999
      3         0.8377      0.5461     -0.0001



      Atom:    5  H 
        Diamagnetic
     26.2065      5.5003      3.0429
      5.5003     32.5549      5.2691
      3.0429      5.2691     28.7010

        Paramagnetic
      0.1029     -4.0032     -1.6067
     -4.0032     -4.5170     -2.7825
     -1.6067     -2.7825      2.7337

        Total Shielding Tensor
     26.3094      1.4971      1.4362
      1.4971     28.0380      2.4866
      1.4362      2.4866     31.4347

           isotropic =      28.5940
          anisotropy =       7.0692

          Principal Components and Axis System
                 1           2           3
               33.3068     27.0302     25.4451

      1         0.2731      0.4187      0.8661
      2         0.4729      0.7255     -0.4999
      3         0.8377     -0.5461     -0.0001




 Task  times  cpu:       19.0s     wall:       19.1s


                                NWChem Input Module
                                -------------------


 Summary of allocated global arrays
-----------------------------------
  No active global arrays



                         GA Statistics for process    0
                         ------------------------------

       create   destroy   get      put      acc     scatter   gather  read&inc
calls:  583      583     1.11e+06 6744     5.94e+05  259        0     1212     
number of processes/call -6.20e+12 -9.55e+14 3.88e+12 0.00e+00 0.00e+00
bytes total:             8.19e+07 5.40e+06 6.52e+07 9.80e+03 0.00e+00 9.70e+03
bytes remote:            0.00e+00 0.00e+00 0.00e+00 0.00e+00 0.00e+00 0.00e+00
Max memory consumed for GA by this process: 529200 bytes

MA_summarize_allocated_blocks: starting scan ...
heap block 'gridpts', handle 77, address 0xfc2b438:
	type of elements:		double precision
	number of elements:		6291456
	address of client space:	0xfc2b4c0
	index for client space:		10277815
	total number of bytes:		50331792
MA_summarize_allocated_blocks: scan completed: 1 heap block, 0 stack blocks
MA usage statistics:

	allocation statistics:
					      heap	     stack
					      ----	     -----
	current number of blocks	         1	         0
	maximum number of blocks	        23	        53
	current total bytes		  50331792	         0
	maximum total bytes		  57120376	  22511640
	maximum total K-bytes		     57121	     22512
	maximum total M-bytes		        58	        23


                                     CITATION
                                     --------
                Please cite the following reference when publishing
                           results obtained with NWChem:

                 M. Valiev, E.J. Bylaska, N. Govind, K. Kowalski,
              T.P. Straatsma, H.J.J. van Dam, D. Wang, J. Nieplocha,
                        E. Apra, T.L. Windus, W.A. de Jong
                 "NWChem: a comprehensive and scalable open-source
                  solution for large scale molecular simulations"
                      Comput. Phys. Commun. 181, 1477 (2010)
                           doi:10.1016/j.cpc.2010.04.018

                                      AUTHORS
                                      -------
          E. Apra, E. J. Bylaska, W. A. de Jong, N. Govind, K. Kowalski,
       T. P. Straatsma, M. Valiev, H. J. J. van Dam, D. Wang, T. L. Windus,
        J. Hammond, J. Autschbach, K. Bhaskaran-Nair, J. Brabec, K. Lopata,
    S. A. Fischer, S. Krishnamoorthy, M. Jacquelin, W. Ma, M. Klemm, O. Villa,
      Y. Chen, V. Anisimov, F. Aquino, S. Hirata, M. T. Hackler, V. Konjkov,
            D. Mejia-Rodriguez, T. Risthaus, M. Malagoli, A. Marenich,
   A. Otero-de-la-Roza, J. Mullin, P. Nichols, R. Peverati, J. Pittner, Y. Zhao,
        P.-D. Fan, A. Fonari, M. J. Williamson, R. J. Harrison, J. R. Rehr,
      M. Dupuis, D. Silverstein, D. M. A. Smith, J. Nieplocha, V. Tipparaju,
    M. Krishnan, B. E. Van Kuiken, A. Vazquez-Mayagoitia, L. Jensen, M. Swart,
      Q. Wu, T. Van Voorhis, A. A. Auer, M. Nooijen, L. D. Crosby, E. Brown,
      G. Cisneros, G. I. Fann, H. Fruchtl, J. Garza, K. Hirao, R. A. Kendall,
      J. A. Nichols, K. Tsemekhman, K. Wolinski, J. Anchell, D. E. Bernholdt,
      P. Borowski, T. Clark, D. Clerc, H. Dachsel, M. J. O. Deegan, K. Dyall,
    D. Elwood, E. Glendening, M. Gutowski, A. C. Hess, J. Jaffe, B. G. Johnson,
     J. Ju, R. Kobayashi, R. Kutteh, Z. Lin, R. Littlefield, X. Long, B. Meng,
      T. Nakajima, S. Niu, L. Pollack, M. Rosing, K. Glaesemann, G. Sandrone,
      M. Stave, H. Taylor, G. Thomas, J. H. van Lenthe, A. T. Wong, Z. Zhang.

 Total times  cpu:       19.1s     wall:       19.1s
