 argument  1 = metagga_li4h4_1_m062x_0.nw
All connections between all procs tested: SUCCESS
 


============================== echo of input deck ==============================
echo
start metagga_dat
geometry noautosym
   li        -0.91515825    -1.07210472    -0.90562941
   h         -0.91591765    -0.90670004     0.88759515
   h         -0.29962839     1.27515914    -0.28845749
   h          0.87878734    -0.89504261    -0.93360279
   li         1.22182214     0.75373418    -1.22261459
   li         0.87097426    -1.13269424     0.85448224
   li        -1.20238464     0.74087268     1.24480228
   h          0.36150521     1.23677562     0.36342460
end
charge +1

basis
  * library "6-311++G(2d,2p)"
end

dft
  direct
  odft
  mult 2
  xc xm06-2x
  maxiter 100
end

driver
  clear
  maxiter 100
end

task dft optimize
task dft frequencies numerical
================================================================================


                                         
                                         
 
 
              Northwest Computational Chemistry Package (NWChem) 6.5
              ------------------------------------------------------
 
 
                    Environmental Molecular Sciences Laboratory
                       Pacific Northwest National Laboratory
                                Richland, WA 99352
 
                              Copyright (c) 1994-2013
                       Pacific Northwest National Laboratory
                            Battelle Memorial Institute
 
             NWChem is an open-source computational chemistry package
                        distributed under the terms of the
                      Educational Community License (ECL) 2.0
             A copy of the license is included with this distribution
                              in the LICENSE.TXT file
 
                                  ACKNOWLEDGMENT
                                  --------------

            This software and its documentation were developed at the
            EMSL at Pacific Northwest National Laboratory, a multiprogram
            national laboratory, operated for the U.S. Department of Energy
            by Battelle under Contract Number DE-AC05-76RL01830. Support
            for this work was provided by the Department of Energy Office
            of Biological and Environmental Research, Office of Basic
            Energy Sciences, and the Office of Advanced Scientific Computing.


           Job information
           ---------------

    hostname        = arcen
    program         = /home/d3y133/nwchem-dev/nwchem-dev-2015-01-16/bin/LINUX64/nwchem
    date            = Tue Feb  3 06:34:58 2015

    compiled        = Mon_Feb_02_10:11:44_2015
    source          = /home/d3y133/nwchem-dev/nwchem-dev-2015-01-16
    nwchem branch   = Development
    nwchem revision = 26704
    ga revision     = 10514
    input           = metagga_li4h4_1_m062x_0.nw
    prefix          = metagga_dat.
    data base       = /home/d3y133/nwchem-dev/nwchem-trunk-nonwad/QA/scratchdir/metagga_dat.db
    status          = startup
    nproc           =        4
    time left       =     -1s



           Memory information
           ------------------

    heap     =   13107196 doubles =    100.0 Mbytes
    stack    =   13107201 doubles =    100.0 Mbytes
    global   =   26214400 doubles =    200.0 Mbytes (distinct from heap & stack)
    total    =   52428797 doubles =    400.0 Mbytes
    verify   = yes
    hardfail = no 


           Directory information
           ---------------------
 
  0 permanent = /home/d3y133/nwchem-dev/nwchem-trunk-nonwad/QA/scratchdir
  0 scratch   = /home/d3y133/nwchem-dev/nwchem-trunk-nonwad/QA/scratchdir
 
 
 
 
                                NWChem Input Module
                                -------------------
 
 

 Scaling coordinates for geometry "geometry" by  1.889725989
 (inverse scale =  0.529177249)


          ------
          auto-z
          ------
  autoz: excessive number of variables                    202
                    18

 AUTOZ failed to generate good internal coordinates.
 Cartesian coordinates will be used in optimizations.

 
 
                             Geometry "geometry" -> ""
                             -------------------------
 
 Output coordinates in angstroms (scale by  1.889725989 to convert to a.u.)
 
  No.       Tag          Charge          X              Y              Z
 ---- ---------------- ---------- -------------- -------------- --------------
    1 li                   3.0000    -0.91206494    -0.98333071    -0.90200947
    2 h                    1.0000    -0.91282434    -0.81792603     0.89121509
    3 h                    1.0000    -0.29653508     1.36393315    -0.28483755
    4 h                    1.0000     0.88188065    -0.80626860    -0.92998285
    5 li                   3.0000     1.22491545     0.84250819    -1.21899465
    6 li                   3.0000     0.87406757    -1.04392023     0.85810218
    7 li                   3.0000    -1.19929133     0.82964669     1.24842222
    8 h                    1.0000     0.36459852     1.32554963     0.36704454
 
      Atomic Mass 
      ----------- 
 
      li                 7.016000
      h                  1.007825
 

 Effective nuclear repulsion energy (a.u.)      23.7025735959

            Nuclear Dipole moment (a.u.) 
            ----------------------------
        X                 Y               Z
 ---------------- ---------------- ----------------
    -0.0000000000     0.0000000000     0.0000000000
 
 
            XYZ format geometry
            -------------------
     8
 geometry
 li                   -0.91206494    -0.98333071    -0.90200947
 h                    -0.91282434    -0.81792603     0.89121509
 h                    -0.29653508     1.36393315    -0.28483755
 h                     0.88188065    -0.80626860    -0.92998285
 li                    1.22491545     0.84250819    -1.21899465
 li                    0.87406757    -1.04392023     0.85810218
 li                   -1.19929133     0.82964669     1.24842222
 h                     0.36459852     1.32554963     0.36704454
 
 ==============================================================================
                                internuclear distances
 ------------------------------------------------------------------------------
       center one      |      center two      | atomic units |  angstroms
 ------------------------------------------------------------------------------
    5 li               |   4 h                |     3.22898  |     1.70870
    6 li               |   1 li               |     4.74014  |     2.50837
    7 li               |   2 h                |     3.23146  |     1.71002
 ------------------------------------------------------------------------------
                         number of included internuclear distances:          3
 ==============================================================================



  library name resolved from: environment
  library file name is: <
 /home/d3y133/nwchem-dev/nwchem-trunk-nonwad/QA/../src/basis/libraries/>
  


 Summary of "ao basis" -> "" (cartesian)
 ------------------------------------------------------------------------------
       Tag                 Description            Shells   Functions and Types
 ---------------- ------------------------------  ------  ---------------------
 *                      6-311++G(2d,2p)               on all atoms 


 
  Deleted DRIVER restart files 
 
 
 
                           NWChem Geometry Optimization
                           ----------------------------
 
 
 maximum gradient threshold         (gmax) =   0.000450
 rms gradient threshold             (grms) =   0.000300
 maximum cartesian step threshold   (xmax) =   0.001800
 rms cartesian step threshold       (xrms) =   0.001200
 fixed trust radius                (trust) =   0.300000
 maximum step size to saddle      (sadstp) =   0.100000
 energy precision                  (eprec) =   5.0D-06
 maximum number of steps          (nptopt) =  100
 initial hessian option           (inhess) =    0
 line search option               (linopt) =    1
 hessian update option            (modupd) =    1
 saddle point option              (modsad) =    0
 initial eigen-mode to follow     (moddir) =    0
 initial variable to follow       (vardir) =    0
 follow first negative mode     (firstneg) =    T
 apply conjugacy                    (opcg) =    F
 source of zmatrix                         =           


          -------------------
          Energy Minimization
          -------------------

 
 Using diagonal initial Hessian 

          --------
          Step   0
          --------
 
 
                         Geometry "geometry" -> "geometry"
                         ---------------------------------
 
 Output coordinates in angstroms (scale by  1.889725989 to convert to a.u.)
 
  No.       Tag          Charge          X              Y              Z
 ---- ---------------- ---------- -------------- -------------- --------------
    1 li                   3.0000    -0.91206494    -0.98333071    -0.90200947
    2 h                    1.0000    -0.91282434    -0.81792603     0.89121509
    3 h                    1.0000    -0.29653508     1.36393315    -0.28483755
    4 h                    1.0000     0.88188065    -0.80626860    -0.92998285
    5 li                   3.0000     1.22491545     0.84250819    -1.21899465
    6 li                   3.0000     0.87406757    -1.04392023     0.85810218
    7 li                   3.0000    -1.19929133     0.82964669     1.24842222
    8 h                    1.0000     0.36459852     1.32554963     0.36704454
 
      Atomic Mass 
      ----------- 
 
      li                 7.016000
      h                  1.007825
 

 Effective nuclear repulsion energy (a.u.)      23.7025735959

            Nuclear Dipole moment (a.u.) 
            ----------------------------
        X                 Y               Z
 ---------------- ---------------- ----------------
    -0.0000000000     0.0000000000     0.0000000000
 
 
                                 NWChem DFT Module
                                 -----------------
 
 
                      Basis "ao basis" -> "ao basis" (cartesian)
                      -----
  li (Lithium)
  ------------
            Exponent  Coefficients 
       -------------- ---------------------------------------------------------
  1 S  9.00460000E+02  0.002287
  1 S  1.34433000E+02  0.017635
  1 S  3.04365000E+01  0.087343
  1 S  8.62639000E+00  0.280977
  1 S  2.48332000E+00  0.658741
  1 S  3.03179000E-01  0.118712
 
  2 S  4.86890000E+00  0.093329
  2 S  8.56924000E-01  0.943045
  2 S  2.43227000E-01 -0.002798
 
  3 P  4.86890000E+00  0.032766
  3 P  8.56924000E-01  0.159792
  3 P  2.43227000E-01  0.885667
 
  4 S  6.35070000E-02  1.000000
 
  5 P  6.35070000E-02  1.000000
 
  6 S  2.43683000E-02  1.000000
 
  7 P  2.43683000E-02  1.000000
 
  8 S  7.40000000E-03  1.000000
 
  9 P  7.40000000E-03  1.000000
 
 10 D  4.00000000E-01  1.000000
 
 11 D  1.00000000E-01  1.000000
 
  h (Hydrogen)
  ------------
            Exponent  Coefficients 
       -------------- ---------------------------------------------------------
  1 S  3.38650000E+01  0.025494
  1 S  5.09479000E+00  0.190373
  1 S  1.15879000E+00  0.852161
 
  2 S  3.25840000E-01  1.000000
 
  3 S  1.02741000E-01  1.000000
 
  4 S  3.60000000E-02  1.000000
 
  5 P  1.50000000E+00  1.000000
 
  6 P  3.75000000E-01  1.000000
 


 Summary of "ao basis" -> "ao basis" (cartesian)
 ------------------------------------------------------------------------------
       Tag                 Description            Shells   Functions and Types
 ---------------- ------------------------------  ------  ---------------------
 li                     6-311++G(2d,2p)             11       29   5s4p2d
 h                      6-311++G(2d,2p)              6       10   4s2p




 Summary of "ao basis" -> "ao basis" (cartesian)
 ------------------------------------------------------------------------------
       Tag                 Description            Shells   Functions and Types
 ---------------- ------------------------------  ------  ---------------------
 li                     6-311++G(2d,2p)             11       29   5s4p2d
 h                      6-311++G(2d,2p)              6       10   4s2p


  Caching 1-el integrals 
 
            General Information
            -------------------
          SCF calculation type: DFT
          Wavefunction type:  spin polarized.
          No. of atoms     :     8
          No. of electrons :    15
           Alpha electrons :     8
            Beta electrons :     7
          Charge           :     1
          Spin multiplicity:     2
          Use of symmetry is: off; symmetry adaption is: off
          Maximum number of iterations: 100
          This is a Direct SCF calculation.
          AO basis - number of functions:   156
                     number of shells:    68
          Convergence on energy requested: 1.00D-06
          Convergence on density requested: 1.00D-05
          Convergence on gradient requested: 5.00D-04
 
              XC Information
              --------------
                     Hartree-Fock (Exact) Exchange  0.540          
                        M06-2X Exchange Functional  1.000          
 
             Grid Information
             ----------------
          Grid used for XC integration:  medium    
          Radial quadrature: Mura-Knowles        
          Angular quadrature: Lebedev. 
          Tag              B.-S. Rad. Rad. Pts. Rad. Cut. Ang. Pts.
          ---              ---------- --------- --------- ---------
          li                  1.45       49          24.0       434
          h                   0.35       45          17.0       434
          Grid pruning is: on 
          Number of quadrature shells:   376
          Spatial weights used:  Erf1
 
          Convergence Information
          -----------------------
          Convergence aids based upon iterative change in 
          total energy or number of iterations. 
          Levelshifting, if invoked, occurs when the 
          HOMO/LUMO gap drops below (HL_TOL): 1.00D-02
          DIIS, if invoked, will attempt to extrapolate 
          using up to (NFOCK): 10 stored Fock matrices.

                    Damping( 0%)  Levelshifting(0.5)       DIIS
                  --------------- ------------------- ---------------
          dE  on:    start            ASAP                start   
          dE off:    2 iters        100 iters           100 iters 

 
      Screening Tolerance Information
      -------------------------------
          Density screening/tol_rho: 1.00D-10
          AO Gaussian exp screening on grid/accAOfunc:  14
          CD Gaussian exp screening on grid/accCDfunc:  20
          XC Gaussian exp screening on grid/accXCfunc:  20
          Schwarz screening/accCoul: 1.00D-08

 
      Superposition of Atomic Density Guess
      -------------------------------------
 
 Sum of atomic energies:         -31.72729480

 Renormalizing density from      16.00 to     15
 
      Non-variational initial energy
      ------------------------------

 Total energy =     -30.284544
 1-e energy   =     -81.969354
 2-e energy   =      27.982236
 HOMO         =      -0.316863
 LUMO         =      -0.230633
 
   Time after variat. SCF:      0.4
   Time prior to 1st pass:      0.4

 Grid_pts file          = /home/d3y133/nwchem-dev/nwchem-trunk-nonwad/QA/scratchdir/metagga_dat.gridpts.0
 Record size in doubles =  12289        No. of grid_pts per rec  =   3070
 Max. records in memory =     16        Max. recs in file   = 253312716

 Grid integrated density:      14.999979286860
 Requested integration accuracy:   0.10E-05

           Memory utilization after 1st SCF pass: 
           Heap Space remaining (MW):       12.88            12881700
          Stack Space remaining (MW):       13.11            13105636

   convergence    iter        energy       DeltaE   RMS-Dens  Diis-err    time
 ---------------- ----- ----------------- --------- --------- ---------  ------
 d= 0,ls=0.0,diis     1    -31.8731599383 -5.56D+01  5.95D-03  5.55D-02     5.0
                                                     3.26D-03  4.51D-02
 Grid integrated density:      14.999984713273
 Requested integration accuracy:   0.10E-05
 d= 0,ls=0.0,diis     2    -31.9158116918 -4.27D-02  9.58D-04  2.05D-03     9.4
                                                     6.29D-04  1.88D-03
 Grid integrated density:      14.999983967753
 Requested integration accuracy:   0.10E-05
 d= 0,ls=0.0,diis     3    -31.9180464186 -2.23D-03  1.10D-03  1.32D-04    14.0
                                                     1.85D-04  8.59D-05
 Grid integrated density:      14.999984066228
 Requested integration accuracy:   0.10E-05
 d= 0,ls=0.0,diis     4    -31.9182284338 -1.82D-04  3.35D-04  5.99D-06    18.6
                                                     5.18D-05  5.37D-06
 Grid integrated density:      14.999984064996
 Requested integration accuracy:   0.10E-05
 d= 0,ls=0.0,diis     5    -31.9182437616 -1.53D-05  8.00D-05  5.76D-07    23.1
                                                     1.21D-05  2.19D-07
 Grid integrated density:      14.999984060107
 Requested integration accuracy:   0.10E-05
  Resetting Diis
 d= 0,ls=0.0,diis     6    -31.9182449085 -1.15D-06  1.08D-05  1.91D-08    27.9
                                                     2.14D-06  1.07D-08
 Grid integrated density:      14.999984061770
 Requested integration accuracy:   0.10E-05
 d= 0,ls=0.0,diis     7    -31.9182449517 -4.31D-08  1.61D-06  4.77D-10    32.7
                                                     4.38D-07  7.09D-10


         Total DFT energy =      -31.918244951669
      One electron energy =      -86.299563542591
           Coulomb energy =       39.147354639696
    Exchange-Corr. energy =       -8.468609644694
 Nuclear repulsion energy =       23.702573595919

 Numeric. integr. density =       14.999984061770

     Total iterative time =     32.3s


 
                    DFT Final Alpha Molecular Orbital Analysis
                    ------------------------------------------
 
 Vector    1  Occ=1.000000D+00  E=-2.287661D+00
              MO Center=  1.0D+00,  8.4D-01, -9.9D-01, r^2= 1.1D+00
   Bfn.  Coefficient  Atom+Function         Bfn.  Coefficient  Atom+Function  
  ----- ------------  ---------------      ----- ------------  ---------------
    60      0.588917  5 Li s                 61      0.393372  5 Li s          
   118      0.189031  7 Li s          
 
 Vector    2  Occ=1.000000D+00  E=-2.287463D+00
              MO Center= -9.7D-01,  8.3D-01,  1.0D+00, r^2= 1.1D+00
   Bfn.  Coefficient  Atom+Function         Bfn.  Coefficient  Atom+Function  
  ----- ------------  ---------------      ----- ------------  ---------------
   118      0.588989  7 Li s                119      0.393342  7 Li s          
    60     -0.189284  5 Li s          
 
 Vector    3  Occ=1.000000D+00  E=-2.270735D+00
              MO Center= -3.0D-01, -1.0D+00, -3.0D-01, r^2= 1.5D+00
   Bfn.  Coefficient  Atom+Function         Bfn.  Coefficient  Atom+Function  
  ----- ------------  ---------------      ----- ------------  ---------------
     1      0.501340  1 Li s                 89      0.361929  6 Li s          
     2      0.334586  1 Li s                 90      0.241940  6 Li s          
 
 Vector    4  Occ=1.000000D+00  E=-2.269832D+00
              MO Center=  2.6D-01, -1.0D+00,  2.5D-01, r^2= 1.5D+00
   Bfn.  Coefficient  Atom+Function         Bfn.  Coefficient  Atom+Function  
  ----- ------------  ---------------      ----- ------------  ---------------
    89      0.501974  6 Li s                  1     -0.362806  1 Li s          
    90      0.333750  6 Li s                  2     -0.240830  1 Li s          
    14     -0.171086  1 Li s                102      0.170242  6 Li s          
 
 Vector    5  Occ=1.000000D+00  E=-6.673436D-01
              MO Center=  3.1D-02,  1.2D+00,  3.8D-02, r^2= 1.1D+00
   Bfn.  Coefficient  Atom+Function         Bfn.  Coefficient  Atom+Function  
  ----- ------------  ---------------      ----- ------------  ---------------
    41      0.248904  3 H  s                148      0.249007  8 H  s          
    40      0.172364  3 H  s                147      0.172277  8 H  s          
 
 Vector    6  Occ=1.000000D+00  E=-4.755456D-01
              MO Center= -1.6D-02, -6.6D-01, -1.3D-02, r^2= 2.7D+00
   Bfn.  Coefficient  Atom+Function         Bfn.  Coefficient  Atom+Function  
  ----- ------------  ---------------      ----- ------------  ---------------
    32      0.227215  2 H  s                 52      0.226669  4 H  s          
     6      0.205693  1 Li s                 31      0.206185  2 H  s          
    51      0.205279  4 H  s                 94      0.203918  6 Li s          
 
 Vector    7  Occ=1.000000D+00  E=-4.343882D-01
              MO Center= -1.1D-02, -7.4D-01, -2.1D-02, r^2= 3.0D+00
   Bfn.  Coefficient  Atom+Function         Bfn.  Coefficient  Atom+Function  
  ----- ------------  ---------------      ----- ------------  ---------------
    32      0.240324  2 H  s                 52     -0.241274  4 H  s          
    31      0.223013  2 H  s                 51     -0.223689  4 H  s          
    65     -0.171449  5 Li s                123      0.170633  7 Li s          
 
 Vector    8  Occ=1.000000D+00  E=-3.117486D-01
              MO Center=  1.8D-02,  9.5D-01,  2.4D-02, r^2= 4.1D+00
   Bfn.  Coefficient  Atom+Function         Bfn.  Coefficient  Atom+Function  
  ----- ------------  ---------------      ----- ------------  ---------------
    42      0.498593  3 H  s                149     -0.500567  8 H  s          
   102      0.257826  6 Li s                 14     -0.250145  1 Li s          
    94     -0.244961  6 Li s                  6      0.238682  1 Li s          
   150     -0.233657  8 H  s                 43      0.231045  3 H  s          
    41      0.174229  3 H  s                148     -0.174688  8 H  s          
 
 Vector    9  Occ=0.000000D+00  E=-1.565092D-01
              MO Center=  3.0D-02,  1.0D+00,  1.7D-02, r^2= 1.3D+01
   Bfn.  Coefficient  Atom+Function         Bfn.  Coefficient  Atom+Function  
  ----- ------------  ---------------      ----- ------------  ---------------
    69      0.382997  5 Li s                127      0.379048  7 Li s          
    14      0.282098  1 Li s                102      0.265188  6 Li s          
    65      0.247110  5 Li s                123      0.244972  7 Li s          
   131     -0.231933  7 Li s                 73     -0.230333  5 Li s          
 
 Vector   10  Occ=0.000000D+00  E=-1.439289D-01
              MO Center=  2.5D-02,  1.6D+00,  4.0D-02, r^2= 1.2D+01
   Bfn.  Coefficient  Atom+Function         Bfn.  Coefficient  Atom+Function  
  ----- ------------  ---------------      ----- ------------  ---------------
    69      0.704269  5 Li s                127     -0.705334  7 Li s          
    65      0.394880  5 Li s                123     -0.395020  7 Li s          
    73      0.279009  5 Li s                131     -0.275246  7 Li s          
    32      0.154059  2 H  s                 52     -0.154716  4 H  s          
 
 Vector   11  Occ=0.000000D+00  E=-1.299216D-01
              MO Center= -1.1D-01, -1.7D+00, -1.1D-01, r^2= 1.3D+01
   Bfn.  Coefficient  Atom+Function         Bfn.  Coefficient  Atom+Function  
  ----- ------------  ---------------      ----- ------------  ---------------
    10      0.783941  1 Li s                 98      0.747646  6 Li s          
   127     -0.495641  7 Li s                 69     -0.490369  5 Li s          
    14      0.293674  1 Li s                102      0.262828  6 Li s          
   131     -0.253886  7 Li s                 73     -0.250995  5 Li s          
    53     -0.229234  4 H  s                 33     -0.227733  2 H  s          
 
 Vector   12  Occ=0.000000D+00  E=-1.232621D-01
              MO Center=  1.1D-02, -1.5D+00,  7.1D-04, r^2= 1.3D+01
   Bfn.  Coefficient  Atom+Function         Bfn.  Coefficient  Atom+Function  
  ----- ------------  ---------------      ----- ------------  ---------------
    14      0.961548  1 Li s                102     -0.923351  6 Li s          
    43     -0.906661  3 H  s                150      0.895622  8 H  s          
    10      0.716394  1 Li s                 98     -0.717973  6 Li s          
    42     -0.311769  3 H  s                149      0.306981  8 H  s          
     6      0.217357  1 Li s                 94     -0.215040  6 Li s          
 
 Vector   13  Occ=0.000000D+00  E=-1.145697D-01
              MO Center= -4.2D-03,  2.5D-01,  2.5D-03, r^2= 1.3D+01
   Bfn.  Coefficient  Atom+Function         Bfn.  Coefficient  Atom+Function  
  ----- ------------  ---------------      ----- ------------  ---------------
    72      0.241361  5 Li pz                70      0.238132  5 Li px         
   128     -0.237901  7 Li px               130     -0.237231  7 Li pz         
    66      0.208880  5 Li px               124     -0.209351  7 Li px         
   102     -0.204932  6 Li s                131      0.203430  7 Li s          
    73      0.190329  5 Li s                 14     -0.186889  1 Li s          
 
 Vector   14  Occ=0.000000D+00  E=-1.142268D-01
              MO Center=  2.7D-02, -1.3D-01,  2.4D-02, r^2= 1.2D+01
   Bfn.  Coefficient  Atom+Function         Bfn.  Coefficient  Atom+Function  
  ----- ------------  ---------------      ----- ------------  ---------------
   102      1.324602  6 Li s                131     -1.284728  7 Li s          
    73     -1.276789  5 Li s                 14      1.229322  1 Li s          
    98      1.006291  6 Li s                 10      0.931484  1 Li s          
   127     -0.534621  7 Li s                 69     -0.526552  5 Li s          
    12      0.516137  1 Li py               100      0.509978  6 Li py         
 
 Vector   15  Occ=0.000000D+00  E=-9.153717D-02
              MO Center=  5.7D-02,  1.8D+00,  3.3D-02, r^2= 2.1D+01
   Bfn.  Coefficient  Atom+Function         Bfn.  Coefficient  Atom+Function  
  ----- ------------  ---------------      ----- ------------  ---------------
   131     -1.032996  7 Li s                 73     -1.013680  5 Li s          
    14      0.967456  1 Li s                102      0.905789  6 Li s          
    71     -0.424737  5 Li py               129     -0.425170  7 Li py         
    72     -0.414281  5 Li pz               128     -0.404195  7 Li px         
    43      0.400503  3 H  s                 70      0.387159  5 Li px         
 
 Vector   16  Occ=0.000000D+00  E=-8.486945D-02
              MO Center= -2.7D-02, -1.0D+00, -8.5D-03, r^2= 2.4D+01
   Bfn.  Coefficient  Atom+Function         Bfn.  Coefficient  Atom+Function  
  ----- ------------  ---------------      ----- ------------  ---------------
    73      1.296688  5 Li s                131     -1.293453  7 Li s          
   127      0.778872  7 Li s                 69     -0.772917  5 Li s          
    33      0.526803  2 H  s                 53     -0.527715  4 H  s          
   129      0.405594  7 Li py                71     -0.400480  5 Li py         
    13     -0.335054  1 Li pz               101     -0.336609  6 Li pz         
 
 Vector   17  Occ=0.000000D+00  E=-7.993659D-02
              MO Center=  7.6D-03,  1.7D+00,  1.8D-02, r^2= 3.0D+01
   Bfn.  Coefficient  Atom+Function         Bfn.  Coefficient  Atom+Function  
  ----- ------------  ---------------      ----- ------------  ---------------
   102     -4.560495  6 Li s                 14      4.473625  1 Li s          
    10     -2.824595  1 Li s                 98      2.825177  6 Li s          
   104     -0.646176  6 Li py                16      0.593829  1 Li py         
    15      0.547999  1 Li px                17      0.544101  1 Li pz         
   103      0.531256  6 Li px               105      0.520669  6 Li pz         
 
 Vector   18  Occ=0.000000D+00  E=-6.617034D-02
              MO Center=  3.2D-02,  8.7D-01,  3.9D-02, r^2= 4.5D+01
   Bfn.  Coefficient  Atom+Function         Bfn.  Coefficient  Atom+Function  
  ----- ------------  ---------------      ----- ------------  ---------------
    73      1.235294  5 Li s                131      1.225768  7 Li s          
    10     -0.967326  1 Li s                 98     -0.963600  6 Li s          
    69      0.637252  5 Li s                127      0.634864  7 Li s          
    14     -0.443720  1 Li s                 43     -0.416816  3 H  s          
   150     -0.395770  8 H  s                102     -0.383664  6 Li s          
 
 Vector   19  Occ=0.000000D+00  E=-5.723861D-02
              MO Center= -1.9D-02, -6.0D-01, -3.2D-02, r^2= 2.9D+01
   Bfn.  Coefficient  Atom+Function         Bfn.  Coefficient  Atom+Function  
  ----- ------------  ---------------      ----- ------------  ---------------
    72     -0.907793  5 Li pz                73     -0.908831  5 Li s          
   128      0.887744  7 Li px                76     -0.872264  5 Li pz         
   130     -0.873719  7 Li pz                70      0.864073  5 Li px         
   131      0.854279  7 Li s                132      0.853648  7 Li px         
   134     -0.834671  7 Li pz                74      0.828941  5 Li px         
 
 Vector   20  Occ=0.000000D+00  E=-5.417624D-02
              MO Center=  3.4D-02,  3.7D+00,  3.1D-02, r^2= 4.3D+01
   Bfn.  Coefficient  Atom+Function         Bfn.  Coefficient  Atom+Function  
  ----- ------------  ---------------      ----- ------------  ---------------
    73      2.393930  5 Li s                131     -2.350588  7 Li s          
    75      0.789136  5 Li py               133     -0.792802  7 Li py         
    71      0.511036  5 Li py               129     -0.512945  7 Li py         
   127      0.323377  7 Li s                 69     -0.315209  5 Li s          
    65     -0.301690  5 Li s                123      0.301089  7 Li s          
 
 Vector   21  Occ=0.000000D+00  E=-5.258467D-02
              MO Center= -1.4D-02, -3.6D+00, -2.7D-02, r^2= 4.1D+01
   Bfn.  Coefficient  Atom+Function         Bfn.  Coefficient  Atom+Function  
  ----- ------------  ---------------      ----- ------------  ---------------
    73     -9.116121  5 Li s                102      9.128983  6 Li s          
   131     -9.160792  7 Li s                 14      8.586951  1 Li s          
   127     -2.398092  7 Li s                 69     -2.383063  5 Li s          
    98      2.235150  6 Li s                104      2.030634  6 Li py         
    10      2.009041  1 Li s                 16      1.909118  1 Li py         
 
 Vector   22  Occ=0.000000D+00  E=-5.137271D-02
              MO Center= -3.6D-01, -3.3D+00, -5.2D-01, r^2= 4.2D+01
   Bfn.  Coefficient  Atom+Function         Bfn.  Coefficient  Atom+Function  
  ----- ------------  ---------------      ----- ------------  ---------------
    14      7.682468  1 Li s                102     -7.035887  6 Li s          
    10      2.676132  1 Li s                 98     -2.468308  6 Li s          
    43     -2.188645  3 H  s                150      2.191533  8 H  s          
    16      1.508189  1 Li py               104     -1.472496  6 Li py         
    17      1.225760  1 Li pz                15      1.159335  1 Li px         
 
 Vector   23  Occ=0.000000D+00  E=-5.107262D-02
              MO Center=  2.1D-03,  7.7D-01,  6.4D-02, r^2= 5.4D+01
   Bfn.  Coefficient  Atom+Function         Bfn.  Coefficient  Atom+Function  
  ----- ------------  ---------------      ----- ------------  ---------------
    74      0.985781  5 Li px               132     -0.981190  7 Li px         
    76      0.951424  5 Li pz               134     -0.950570  7 Li pz         
    70      0.314455  5 Li px                72      0.306011  5 Li pz         
   128     -0.302497  7 Li px               130     -0.295290  7 Li pz         
   124      0.234260  7 Li px                66     -0.230668  5 Li px         
 
 Vector   24  Occ=0.000000D+00  E=-5.077752D-02
              MO Center=  1.4D-02, -9.2D-01, -3.3D-04, r^2= 3.6D+01
   Bfn.  Coefficient  Atom+Function         Bfn.  Coefficient  Atom+Function  
  ----- ------------  ---------------      ----- ------------  ---------------
    17     -2.321572  1 Li pz               103     -2.305227  6 Li px         
   105      2.218898  6 Li pz                15      2.161960  1 Li px         
    74      1.563909  5 Li px                76      1.533458  5 Li pz         
   132     -1.405582  7 Li px               134     -1.399274  7 Li pz         
    13     -1.379562  1 Li pz                99     -1.368010  6 Li px         
 
 Vector   25  Occ=0.000000D+00  E=-5.041397D-02
              MO Center= -4.5D-01, -1.2D-01, -3.4D-01, r^2= 3.8D+01
   Bfn.  Coefficient  Atom+Function         Bfn.  Coefficient  Atom+Function  
  ----- ------------  ---------------      ----- ------------  ---------------
    16      2.830641  1 Li py               104     -2.630652  6 Li py         
    15     -1.753400  1 Li px               105     -1.708572  6 Li pz         
    12      1.650436  1 Li py               100     -1.569917  6 Li py         
   102      1.485145  6 Li s                 17     -1.476224  1 Li pz         
   103     -1.479119  6 Li px               132      1.461571  7 Li px         
 
 Vector   26  Occ=0.000000D+00  E=-4.972760D-02
              MO Center=  7.5D-01,  2.9D-01,  7.6D-01, r^2= 5.7D+01
   Bfn.  Coefficient  Atom+Function         Bfn.  Coefficient  Atom+Function  
  ----- ------------  ---------------      ----- ------------  ---------------
    14      4.100210  1 Li s                 73     -3.367752  5 Li s          
   131     -3.365499  7 Li s                102      2.389985  6 Li s          
    69     -1.198105  5 Li s                127     -1.202619  7 Li s          
    33      0.900229  2 H  s                 53      0.900805  4 H  s          
   103      0.880361  6 Li px               105      0.877590  6 Li pz         
 
 Vector   27  Occ=0.000000D+00  E=-4.645400D-02
              MO Center= -3.0D-02,  6.5D-01, -2.7D-02, r^2= 5.3D+01
   Bfn.  Coefficient  Atom+Function         Bfn.  Coefficient  Atom+Function  
  ----- ------------  ---------------      ----- ------------  ---------------
   102      8.768159  6 Li s                 73     -8.641709  5 Li s          
   131     -8.484707  7 Li s                 14      7.961402  1 Li s          
    98      2.866878  6 Li s                 10      2.767531  1 Li s          
    69     -2.618357  5 Li s                127     -2.589605  7 Li s          
    75      2.377681  5 Li py               133      2.354909  7 Li py         
 
 Vector   28  Occ=0.000000D+00  E=-3.832481D-02
              MO Center=  6.4D-02, -2.2D+00, -1.5D-01, r^2= 7.2D+01
   Bfn.  Coefficient  Atom+Function         Bfn.  Coefficient  Atom+Function  
  ----- ------------  ---------------      ----- ------------  ---------------
   131    -39.149681  7 Li s                 73     38.364154  5 Li s          
   134      5.385659  7 Li pz                76      5.237719  5 Li pz         
    74     -5.203887  5 Li px               132     -5.160289  7 Li px         
   127     -4.681544  7 Li s                 69      4.629107  5 Li s          
    17      2.875016  1 Li pz               133      2.846916  7 Li py         
 
 Vector   29  Occ=0.000000D+00  E=-3.815505D-02
              MO Center=  4.5D-01,  8.9D-01,  5.3D-01, r^2= 5.3D+01
   Bfn.  Coefficient  Atom+Function         Bfn.  Coefficient  Atom+Function  
  ----- ------------  ---------------      ----- ------------  ---------------
    14     32.401024  1 Li s                102    -12.380974  6 Li s          
    73    -11.110134  5 Li s                131     -8.735897  7 Li s          
    43     -5.758804  3 H  s                150      5.615805  8 H  s          
    10      5.502788  1 Li s                 15      2.966170  1 Li px         
    17      2.738277  1 Li pz                98     -2.574942  6 Li s          
 
 Vector   30  Occ=0.000000D+00  E=-3.792725D-02
              MO Center= -5.1D-01,  5.2D-01, -4.1D-01, r^2= 7.2D+01
   Bfn.  Coefficient  Atom+Function         Bfn.  Coefficient  Atom+Function  
  ----- ------------  ---------------      ----- ------------  ---------------
   102     29.866984  6 Li s                 73    -22.934500  5 Li s          
   131    -22.139245  7 Li s                 14     15.545689  1 Li s          
    75      3.861020  5 Li py               133      3.776342  7 Li py         
   104      3.604460  6 Li py                98      3.367364  6 Li s          
    16      3.247354  1 Li py               105     -2.272081  6 Li pz         
 
 Vector   31  Occ=0.000000D+00  E=-3.642990D-02
              MO Center= -4.3D-03,  1.5D-01,  8.0D-03, r^2= 4.0D+01
   Bfn.  Coefficient  Atom+Function         Bfn.  Coefficient  Atom+Function  
  ----- ------------  ---------------      ----- ------------  ---------------
   102     37.317581  6 Li s                131    -33.391597  7 Li s          
    73    -32.857855  5 Li s                 14     29.740855  1 Li s          
    98      9.603789  6 Li s                 10      8.858897  1 Li s          
   127     -6.438649  7 Li s                 69     -6.362287  5 Li s          
   104      5.759523  6 Li py                16      5.306023  1 Li py         
 
 Vector   32  Occ=0.000000D+00  E=-3.280528D-02
              MO Center= -1.5D-02, -6.0D-02,  1.4D-02, r^2= 4.7D+01
   Bfn.  Coefficient  Atom+Function         Bfn.  Coefficient  Atom+Function  
  ----- ------------  ---------------      ----- ------------  ---------------
   131    -19.785551  7 Li s                 73     19.295204  5 Li s          
   127     -8.337953  7 Li s                 69      8.278236  5 Li s          
   133      4.566018  7 Li py                75     -4.489151  5 Li py         
    53     -3.126351  4 H  s                 33      3.110484  2 H  s          
   103     -2.917255  6 Li px                15     -2.875144  1 Li px         
 
 Vector   33  Occ=0.000000D+00  E=-3.166516D-02
              MO Center=  2.6D-02,  4.6D-01,  3.1D-02, r^2= 8.1D+01
   Bfn.  Coefficient  Atom+Function         Bfn.  Coefficient  Atom+Function  
  ----- ------------  ---------------      ----- ------------  ---------------
    14     78.940164  1 Li s                102    -77.628716  6 Li s          
    15      8.999035  1 Li px                17      8.982029  1 Li pz         
   103      8.713210  6 Li px               105      8.651210  6 Li pz         
   104     -5.924792  6 Li py                16      5.522289  1 Li py         
    98      5.275156  6 Li s                 10     -4.739683  1 Li s          
 
 Vector   34  Occ=0.000000D+00  E=-2.397956D-02
              MO Center= -2.5D-02, -3.4D-01, -1.4D-02, r^2= 8.0D+01
   Bfn.  Coefficient  Atom+Function         Bfn.  Coefficient  Atom+Function  
  ----- ------------  ---------------      ----- ------------  ---------------
    73    -11.893466  5 Li s                131    -11.847560  7 Li s          
   102     11.742068  6 Li s                 14     11.627397  1 Li s          
   127     -5.028166  7 Li s                 69     -4.992982  5 Li s          
   104      2.677536  6 Li py                16      2.462775  1 Li py         
    15      2.409841  1 Li px                33      2.386279  2 H  s          
 
 Vector   35  Occ=0.000000D+00  E=-2.181822D-02
              MO Center= -7.4D-02, -8.1D-01, -9.9D-02, r^2= 7.7D+01
   Bfn.  Coefficient  Atom+Function         Bfn.  Coefficient  Atom+Function  
  ----- ------------  ---------------      ----- ------------  ---------------
    73     25.486536  5 Li s                131    -25.474857  7 Li s          
    76      5.956117  5 Li pz               132     -5.906445  7 Li px         
   134      5.730222  7 Li pz                74     -5.680426  5 Li px         
   127     -4.365965  7 Li s                 69      4.273265  5 Li s          
    13      1.528782  1 Li pz                11     -1.520857  1 Li px         
 
 Vector   36  Occ=0.000000D+00  E=-2.153881D-02
              MO Center=  7.5D-02,  3.1D+00,  4.1D-02, r^2= 7.6D+01
   Bfn.  Coefficient  Atom+Function         Bfn.  Coefficient  Atom+Function  
  ----- ------------  ---------------      ----- ------------  ---------------
    73     46.289893  5 Li s                131    -46.106115  7 Li s          
    75     -8.446788  5 Li py               133      8.366995  7 Li py         
   105      4.986365  6 Li pz                17      4.944756  1 Li pz         
    15     -4.889244  1 Li px               103     -4.896489  6 Li px         
    69     -4.760196  5 Li s                134      4.767376  7 Li pz         
 
 Vector   37  Occ=0.000000D+00  E=-2.085635D-02
              MO Center=  6.8D-02, -4.1D-01,  4.9D-02, r^2= 8.0D+01
   Bfn.  Coefficient  Atom+Function         Bfn.  Coefficient  Atom+Function  
  ----- ------------  ---------------      ----- ------------  ---------------
    17     -6.380861  1 Li pz               103     -6.302441  6 Li px         
   105      6.159977  6 Li pz                15      5.971993  1 Li px         
    74      4.702166  5 Li px               134     -4.589208  7 Li pz         
    76      4.380570  5 Li pz               132     -4.326990  7 Li px         
   101     -1.369495  6 Li pz                99      1.361147  6 Li px         
 
 Vector   38  Occ=0.000000D+00  E=-2.025210D-02
              MO Center= -3.0D-02, -7.0D-01, -1.7D-02, r^2= 7.9D+01
   Bfn.  Coefficient  Atom+Function         Bfn.  Coefficient  Atom+Function  
  ----- ------------  ---------------      ----- ------------  ---------------
    14     22.447862  1 Li s                102    -21.360010  6 Li s          
    16     -6.747455  1 Li py               104      6.483942  6 Li py         
   105      6.489999  6 Li pz                15      6.421279  1 Li px         
   103      6.334236  6 Li px                17      6.074800  1 Li pz         
   132     -3.301789  7 Li px               134     -3.175613  7 Li pz         
 
 Vector   39  Occ=0.000000D+00  E=-1.951164D-02
              MO Center= -3.8D-02,  1.9D-01,  1.2D-02, r^2= 8.4D+01
   Bfn.  Coefficient  Atom+Function         Bfn.  Coefficient  Atom+Function  
  ----- ------------  ---------------      ----- ------------  ---------------
    14     47.300676  1 Li s                131    -46.162634  7 Li s          
    73    -45.479618  5 Li s                102     44.498799  6 Li s          
    98     -8.169909  6 Li s                 10     -7.607568  1 Li s          
    16      7.538818  1 Li py               104      7.437081  6 Li py         
    75      6.826942  5 Li py               133      6.856899  7 Li py         
 
 Vector   40  Occ=0.000000D+00  E=-1.276061D-02
              MO Center=  2.8D-03, -5.8D-01,  3.7D-03, r^2= 6.6D+01
   Bfn.  Coefficient  Atom+Function         Bfn.  Coefficient  Atom+Function  
  ----- ------------  ---------------      ----- ------------  ---------------
   102   -118.648263  6 Li s                 14    117.256147  1 Li s          
    10     17.021202  1 Li s                 98    -16.752514  6 Li s          
    15     13.878098  1 Li px                17     13.695257  1 Li pz         
   103     13.677612  6 Li px               105     13.446814  6 Li pz         
   104     -8.868619  6 Li py                16      7.657855  1 Li py         
 
 Vector   41  Occ=0.000000D+00  E=-6.545452D-03
              MO Center=  1.3D-03,  2.3D-01, -9.8D-04, r^2= 5.2D+01
   Bfn.  Coefficient  Atom+Function         Bfn.  Coefficient  Atom+Function  
  ----- ------------  ---------------      ----- ------------  ---------------
   102      2.291043  6 Li s                 73     -1.635760  5 Li s          
   131     -1.576339  7 Li s                132     -1.106897  7 Li px         
    74      1.074922  5 Li px                72     -1.038573  5 Li pz         
   130      0.992612  7 Li pz                14      0.980020  1 Li s          
   128      0.878543  7 Li px                70     -0.868621  5 Li px         
 
 Vector   42  Occ=0.000000D+00  E=-6.381461D-03
              MO Center= -3.4D-02, -1.2D+00, -2.5D-02, r^2= 4.8D+01
   Bfn.  Coefficient  Atom+Function         Bfn.  Coefficient  Atom+Function  
  ----- ------------  ---------------      ----- ------------  ---------------
   102     16.847458  6 Li s                131    -13.628808  7 Li s          
    73    -13.460405  5 Li s                 14     10.741977  1 Li s          
    69     -4.242559  5 Li s                127     -4.251159  7 Li s          
    98      3.899417  6 Li s                 10      3.045224  1 Li s          
   133      2.865773  7 Li py                75      2.850924  5 Li py         
 
 Vector   43  Occ=0.000000D+00  E= 7.162222D-03
              MO Center=  1.3D-02, -6.8D-01,  1.1D-02, r^2= 4.1D+01
   Bfn.  Coefficient  Atom+Function         Bfn.  Coefficient  Atom+Function  
  ----- ------------  ---------------      ----- ------------  ---------------
   102    -77.294458  6 Li s                 14     76.679639  1 Li s          
    10     21.868629  1 Li s                 98    -21.765526  6 Li s          
    15      7.968453  1 Li px                17      7.923937  1 Li pz         
   103      7.812327  6 Li px               105      7.714068  6 Li pz         
    11      6.037245  1 Li px                13      5.991609  1 Li pz         
 
 Vector   44  Occ=0.000000D+00  E= 1.113641D-02
              MO Center=  4.5D-03,  6.4D-01, -7.4D-03, r^2= 4.5D+01
   Bfn.  Coefficient  Atom+Function         Bfn.  Coefficient  Atom+Function  
  ----- ------------  ---------------      ----- ------------  ---------------
    73    -33.992209  5 Li s                 14     32.153888  1 Li s          
   102     28.919903  6 Li s                131    -28.205039  7 Li s          
    75      5.150686  5 Li py               133      4.790963  7 Li py         
    16      4.111538  1 Li py               104      4.010886  6 Li py         
    74      3.487602  5 Li px                69      3.446509  5 Li s          
 
 Vector   45  Occ=0.000000D+00  E= 1.131070D-02
              MO Center=  3.1D-02,  1.1D+00,  5.6D-03, r^2= 4.3D+01
   Bfn.  Coefficient  Atom+Function         Bfn.  Coefficient  Atom+Function  
  ----- ------------  ---------------      ----- ------------  ---------------
   131     43.398022  7 Li s                 73    -38.900910  5 Li s          
   134     -6.418667  7 Li pz               132      6.271866  7 Li px         
    74      5.936825  5 Li px                76     -5.904440  5 Li pz         
    53     -4.884141  4 H  s                 33      4.666172  2 H  s          
   127     -4.123234  7 Li s                 69      3.728558  5 Li s          
 
 Vector   46  Occ=0.000000D+00  E= 2.266017D-02
              MO Center= -2.4D-02, -1.2D+00, -2.6D-02, r^2= 4.3D+01
   Bfn.  Coefficient  Atom+Function         Bfn.  Coefficient  Atom+Function  
  ----- ------------  ---------------      ----- ------------  ---------------
   102     26.133671  6 Li s                 14     25.818085  1 Li s          
    73    -24.439676  5 Li s                131    -24.486762  7 Li s          
    69    -14.505531  5 Li s                127    -14.539817  7 Li s          
    33      6.872477  2 H  s                 53      6.850091  4 H  s          
   104      5.064025  6 Li py                16      4.809626  1 Li py         
 
 Vector   47  Occ=0.000000D+00  E= 2.363657D-02
              MO Center=  2.1D-02,  4.8D-01, -1.1D-03, r^2= 3.6D+01
   Bfn.  Coefficient  Atom+Function         Bfn.  Coefficient  Atom+Function  
  ----- ------------  ---------------      ----- ------------  ---------------
   131    -35.028375  7 Li s                 73     34.431746  5 Li s          
    69      6.040588  5 Li s                127     -6.005606  7 Li s          
   133      5.187497  7 Li py                75     -5.136467  5 Li py         
    53      4.824408  4 H  s                 33     -4.774872  2 H  s          
   134      3.478547  7 Li pz                74     -3.364440  5 Li px         
 
 Vector   48  Occ=0.000000D+00  E= 2.868936D-02
              MO Center=  6.3D-03,  1.5D+00,  6.6D-02, r^2= 3.3D+01
   Bfn.  Coefficient  Atom+Function         Bfn.  Coefficient  Atom+Function  
  ----- ------------  ---------------      ----- ------------  ---------------
    14     11.277787  1 Li s                 73    -11.072831  5 Li s          
   131    -11.005304  7 Li s                102     10.520830  6 Li s          
    43     -5.867495  3 H  s                150     -5.514993  8 H  s          
    33      3.086167  2 H  s                 53      3.041223  4 H  s          
   129      2.281957  7 Li py                71      2.266822  5 Li py         
 
 Vector   49  Occ=0.000000D+00  E= 3.322253D-02
              MO Center=  9.9D-04, -3.0D-01, -2.1D-03, r^2= 3.8D+01
   Bfn.  Coefficient  Atom+Function         Bfn.  Coefficient  Atom+Function  
  ----- ------------  ---------------      ----- ------------  ---------------
    14     63.336839  1 Li s                102    -63.335280  6 Li s          
    10    -24.683635  1 Li s                 98     24.568764  6 Li s          
    15      6.907262  1 Li px                17      6.847720  1 Li pz         
   103      6.763595  6 Li px               105      6.667441  6 Li pz         
   104     -4.781413  6 Li py                16      4.312653  1 Li py         
 
 Vector   50  Occ=0.000000D+00  E= 3.642380D-02
              MO Center= -1.8D-02, -8.6D-01, -1.7D-02, r^2= 2.9D+01
   Bfn.  Coefficient  Atom+Function         Bfn.  Coefficient  Atom+Function  
  ----- ------------  ---------------      ----- ------------  ---------------
   131    -24.727077  7 Li s                 73     24.438136  5 Li s          
   127      8.295398  7 Li s                 69     -8.116134  5 Li s          
    53     -5.929562  4 H  s                 33      5.892334  2 H  s          
   133      3.150121  7 Li py                75     -3.130745  5 Li py         
   134      2.631626  7 Li pz                74     -2.538298  5 Li px         
 
 Vector   51  Occ=0.000000D+00  E= 4.459865D-02
              MO Center=  1.1D-03, -2.4D-01, -4.6D-03, r^2= 3.3D+01
   Bfn.  Coefficient  Atom+Function         Bfn.  Coefficient  Atom+Function  
  ----- ------------  ---------------      ----- ------------  ---------------
   102     29.022252  6 Li s                 73    -28.551660  5 Li s          
   131    -28.493657  7 Li s                 14     28.239285  1 Li s          
    69     22.470773  5 Li s                127     22.524564  7 Li s          
    98    -15.301963  6 Li s                 10    -15.055519  1 Li s          
    43     -8.738988  3 H  s                150     -8.143696  8 H  s          
 
 Vector   52  Occ=0.000000D+00  E= 4.824250D-02
              MO Center= -2.8D-04, -9.5D-01, -2.2D-02, r^2= 2.2D+01
   Bfn.  Coefficient  Atom+Function         Bfn.  Coefficient  Atom+Function  
  ----- ------------  ---------------      ----- ------------  ---------------
    14      8.212638  1 Li s                102     -7.702040  6 Li s          
   150     -7.680526  8 H  s                 43      7.562867  3 H  s          
    16      2.783108  1 Li py               100      2.741073  6 Li py         
   104     -2.731029  6 Li py                12     -2.705527  1 Li py         
   149      1.934233  8 H  s                 42     -1.921528  3 H  s          
 
 Vector   53  Occ=0.000000D+00  E= 5.209282D-02
              MO Center= -6.9D-03, -2.9D-01, -2.3D-02, r^2= 2.5D+01
   Bfn.  Coefficient  Atom+Function         Bfn.  Coefficient  Atom+Function  
  ----- ------------  ---------------      ----- ------------  ---------------
    17      2.805480  1 Li pz               103      2.772443  6 Li px         
   105     -2.612383  6 Li pz                15     -2.547139  1 Li px         
    13     -2.464622  1 Li pz               101      2.384788  6 Li pz         
    99     -2.353280  6 Li px                11      2.304971  1 Li px         
    76     -1.994538  5 Li pz               132      1.977149  7 Li px         
 
 Vector   54  Occ=0.000000D+00  E= 5.427381D-02
              MO Center=  8.6D-03,  1.8D-01,  6.7D-03, r^2= 1.8D+01
   Bfn.  Coefficient  Atom+Function         Bfn.  Coefficient  Atom+Function  
  ----- ------------  ---------------      ----- ------------  ---------------
    69     11.403070  5 Li s                127     11.437046  7 Li s          
    10     -9.844613  1 Li s                 98     -9.530744  6 Li s          
    43     -7.830410  3 H  s                150     -7.033029  8 H  s          
    33      6.352313  2 H  s                 53      6.308805  4 H  s          
    14      3.007513  1 Li s                 73     -2.774014  5 Li s          
 
 Vector   55  Occ=0.000000D+00  E= 5.616106D-02
              MO Center= -5.1D-02,  2.3D-01, -1.3D-02, r^2= 2.6D+01
   Bfn.  Coefficient  Atom+Function         Bfn.  Coefficient  Atom+Function  
  ----- ------------  ---------------      ----- ------------  ---------------
    14     38.074214  1 Li s                102    -37.595261  6 Li s          
    15      5.829082  1 Li px               105      5.693842  6 Li pz         
    17      5.661247  1 Li pz               103      5.685890  6 Li px         
    43      4.570454  3 H  s                150     -4.229209  8 H  s          
    98      2.982771  6 Li s                 10     -2.579377  1 Li s          
 
 Vector   56  Occ=0.000000D+00  E= 6.806733D-02
              MO Center= -7.2D-03, -6.9D-01, -1.4D-02, r^2= 2.7D+01
   Bfn.  Coefficient  Atom+Function         Bfn.  Coefficient  Atom+Function  
  ----- ------------  ---------------      ----- ------------  ---------------
   131    -23.808354  7 Li s                 73     23.636253  5 Li s          
   134      3.816899  7 Li pz                53      3.724363  4 H  s          
    74     -3.734423  5 Li px                33     -3.685349  2 H  s          
    76      3.696157  5 Li pz               132     -3.663325  7 Li px         
    69     -3.103730  5 Li s                127      3.067135  7 Li s          
 
 Vector   57  Occ=0.000000D+00  E= 7.123257D-02
              MO Center=  2.8D-03,  4.9D-01,  1.5D-02, r^2= 2.0D+01
   Bfn.  Coefficient  Atom+Function         Bfn.  Coefficient  Atom+Function  
  ----- ------------  ---------------      ----- ------------  ---------------
   127     -9.486475  7 Li s                 69      9.245984  5 Li s          
    73     -4.389236  5 Li s                131      4.375426  7 Li s          
    33      3.670770  2 H  s                 53     -3.660784  4 H  s          
   129      3.594863  7 Li py                71     -3.571114  5 Li py         
    75      1.873881  5 Li py               133     -1.874555  7 Li py         
 
 Vector   58  Occ=0.000000D+00  E= 9.203333D-02
              MO Center= -2.2D-03, -9.0D-01, -8.6D-03, r^2= 1.9D+01
   Bfn.  Coefficient  Atom+Function         Bfn.  Coefficient  Atom+Function  
  ----- ------------  ---------------      ----- ------------  ---------------
   102     10.377474  6 Li s                 73     -9.348410  5 Li s          
   131     -9.346462  7 Li s                 14      8.861369  1 Li s          
    33      8.209936  2 H  s                 53      8.222262  4 H  s          
    69     -4.605001  5 Li s                127     -4.566012  7 Li s          
    10     -4.328549  1 Li s                 98     -4.291635  6 Li s          
 
 Vector   59  Occ=0.000000D+00  E= 1.013736D-01
              MO Center=  6.9D-04, -3.0D-01,  2.7D-04, r^2= 2.2D+01
   Bfn.  Coefficient  Atom+Function         Bfn.  Coefficient  Atom+Function  
  ----- ------------  ---------------      ----- ------------  ---------------
    14     63.023862  1 Li s                102    -63.147563  6 Li s          
    98    -14.969642  6 Li s                 10     14.795860  1 Li s          
    15      6.809437  1 Li px                17      6.739565  1 Li pz         
   103      6.657926  6 Li px               105      6.545454  6 Li pz         
     6     -5.363065  1 Li s                 94      5.335638  6 Li s          
 
 Vector   60  Occ=0.000000D+00  E= 1.113368D-01
              MO Center=  1.6D-03,  5.5D-01,  9.2D-03, r^2= 1.9D+01
   Bfn.  Coefficient  Atom+Function         Bfn.  Coefficient  Atom+Function  
  ----- ------------  ---------------      ----- ------------  ---------------
   102      6.319863  6 Li s                131     -6.207064  7 Li s          
    73     -6.043485  5 Li s                 14      5.775361  1 Li s          
   123      5.192678  7 Li s                 65      5.149461  5 Li s          
   126     -3.724326  7 Li pz                66     -3.635072  5 Li px         
    68      3.644053  5 Li pz               124      3.615738  7 Li px         
 
 Vector   61  Occ=0.000000D+00  E= 1.543607D-01
              MO Center= -1.5D-02, -7.8D-01, -1.7D-02, r^2= 1.6D+01
   Bfn.  Coefficient  Atom+Function         Bfn.  Coefficient  Atom+Function  
  ----- ------------  ---------------      ----- ------------  ---------------
   102     12.901127  6 Li s                 14     12.284454  1 Li s          
   131    -12.259978  7 Li s                 73    -12.155792  5 Li s          
    69     -9.921502  5 Li s                127     -9.955013  7 Li s          
    98      5.438580  6 Li s                 10      5.352760  1 Li s          
    43      3.884469  3 H  s                150      3.660779  8 H  s          
 
 Vector   62  Occ=0.000000D+00  E= 1.614356D-01
              MO Center=  1.4D-02,  6.4D-01,  6.9D-03, r^2= 9.9D+00
   Bfn.  Coefficient  Atom+Function         Bfn.  Coefficient  Atom+Function  
  ----- ------------  ---------------      ----- ------------  ---------------
    84      0.863017  5 Li dxy              145     -0.848292  7 Li dyz        
   142     -0.823114  7 Li dxy               87      0.806285  5 Li dyz        
    88      0.534684  5 Li dzz              141     -0.530021  7 Li dxx        
    83     -0.502858  5 Li dxx              146      0.497187  7 Li dzz        
    97     -0.387235  6 Li pz                 9      0.377814  1 Li pz         
 
 Vector   63  Occ=0.000000D+00  E= 1.781447D-01
              MO Center= -2.7D-02, -3.1D-01, -3.3D-02, r^2= 1.2D+01
   Bfn.  Coefficient  Atom+Function         Bfn.  Coefficient  Atom+Function  
  ----- ------------  ---------------      ----- ------------  ---------------
    97      1.023793  6 Li pz                 7      0.910940  1 Li px         
    95     -0.839138  6 Li px                 9     -0.735234  1 Li pz         
    14     -0.601517  1 Li s                 87     -0.595808  5 Li dyz        
    11     -0.585910  1 Li px                28      0.583589  1 Li dyz        
    25     -0.568529  1 Li dxy              142      0.566109  7 Li dxy        
 
 Vector   64  Occ=0.000000D+00  E= 1.793815D-01
              MO Center=  3.5D-02,  4.5D-01,  1.8D-02, r^2= 1.2D+01
   Bfn.  Coefficient  Atom+Function         Bfn.  Coefficient  Atom+Function  
  ----- ------------  ---------------      ----- ------------  ---------------
    73      6.648773  5 Li s                131     -6.592374  7 Li s          
    53      3.923883  4 H  s                 33     -3.873548  2 H  s          
    14     -3.250662  1 Li s                102      3.197958  6 Li s          
    52      2.429267  4 H  s                 32     -2.351521  2 H  s          
    65     -1.780790  5 Li s                123      1.724693  7 Li s          
 
 Vector   65  Occ=0.000000D+00  E= 1.801295D-01
              MO Center= -3.0D-02, -5.3D-01, -1.7D-02, r^2= 1.1D+01
   Bfn.  Coefficient  Atom+Function         Bfn.  Coefficient  Atom+Function  
  ----- ------------  ---------------      ----- ------------  ---------------
    14     14.250591  1 Li s                102    -13.985174  6 Li s          
    94      3.040138  6 Li s                  6     -3.010753  1 Li s          
   149     -2.966449  8 H  s                 42      2.890908  3 H  s          
    95     -2.446044  6 Li px                43      2.424165  3 H  s          
     7     -2.369122  1 Li px               150     -2.281738  8 H  s          
 
 Vector   66  Occ=0.000000D+00  E= 2.046648D-01
              MO Center=  9.6D-03,  2.4D-01, -9.4D-03, r^2= 1.8D+01
   Bfn.  Coefficient  Atom+Function         Bfn.  Coefficient  Atom+Function  
  ----- ------------  ---------------      ----- ------------  ---------------
    73    -13.834941  5 Li s                 14     13.640724  1 Li s          
   131    -13.424578  7 Li s                102     13.112061  6 Li s          
    69      8.227871  5 Li s                127      8.228739  7 Li s          
    65      7.757460  5 Li s                123      7.690925  7 Li s          
    43     -5.413106  3 H  s                150     -5.047281  8 H  s          
 
 Vector   67  Occ=0.000000D+00  E= 2.053083D-01
              MO Center= -2.2D-02, -3.9D-01,  8.6D-03, r^2= 1.3D+01
   Bfn.  Coefficient  Atom+Function         Bfn.  Coefficient  Atom+Function  
  ----- ------------  ---------------      ----- ------------  ---------------
   131    -12.170945  7 Li s                 73     11.313709  5 Li s          
    33     -5.119425  2 H  s                 53      5.116414  4 H  s          
    52      2.819616  4 H  s                123      2.812204  7 Li s          
    32     -2.786871  2 H  s                 65     -2.383336  5 Li s          
   125     -2.238232  7 Li py                67      2.086593  5 Li py         
 
 Vector   68  Occ=0.000000D+00  E= 2.159700D-01
              MO Center= -1.6D-02, -2.4D-01, -1.6D-02, r^2= 1.2D+01
   Bfn.  Coefficient  Atom+Function         Bfn.  Coefficient  Atom+Function  
  ----- ------------  ---------------      ----- ------------  ---------------
    32      7.369496  2 H  s                 52      7.320522  4 H  s          
    14      6.911025  1 Li s                 98     -6.143620  6 Li s          
    10     -6.074768  1 Li s                131     -5.231741  7 Li s          
    73     -5.157599  5 Li s                 69      4.676284  5 Li s          
   127      4.658603  7 Li s                 33      4.270938  2 H  s          
 
 Vector   69  Occ=0.000000D+00  E= 2.193002D-01
              MO Center=  8.3D-03, -9.6D-01,  5.2D-03, r^2= 1.7D+01
   Bfn.  Coefficient  Atom+Function         Bfn.  Coefficient  Atom+Function  
  ----- ------------  ---------------      ----- ------------  ---------------
   102    -42.025755  6 Li s                 14     41.538012  1 Li s          
    94     10.523904  6 Li s                  6    -10.301672  1 Li s          
    95     -6.726237  6 Li px                 7     -6.656208  1 Li px         
     9     -6.558412  1 Li pz                97     -6.580928  6 Li pz         
    15      4.434145  1 Li px                17      4.371906  1 Li pz         
 
 Vector   70  Occ=0.000000D+00  E= 2.403867D-01
              MO Center=  3.5D-03, -1.1D-01,  1.3D-02, r^2= 1.2D+01
   Bfn.  Coefficient  Atom+Function         Bfn.  Coefficient  Atom+Function  
  ----- ------------  ---------------      ----- ------------  ---------------
    69     10.663475  5 Li s                127     10.620799  7 Li s          
    10     -5.618265  1 Li s                 98     -5.609610  6 Li s          
    43     -5.083832  3 H  s                150     -4.609252  8 H  s          
    33     -2.324747  2 H  s                 53     -2.311916  4 H  s          
    71     -2.033330  5 Li py                32      1.994399  2 H  s          
 
 Vector   71  Occ=0.000000D+00  E= 2.416715D-01
              MO Center= -3.4D-03,  5.7D-01, -1.9D-02, r^2= 1.3D+01
   Bfn.  Coefficient  Atom+Function         Bfn.  Coefficient  Atom+Function  
  ----- ------------  ---------------      ----- ------------  ---------------
    73     13.507849  5 Li s                131    -13.574681  7 Li s          
   127     -4.791126  7 Li s                 69      4.747421  5 Li s          
    97     -1.964103  6 Li pz                95      1.941765  6 Li px         
    72      1.930596  5 Li pz               128     -1.907129  7 Li px         
   130      1.840953  7 Li pz               125     -1.829968  7 Li py         
 
 Vector   72  Occ=0.000000D+00  E= 2.428027D-01
              MO Center=  2.0D-02, -5.6D-01,  1.3D-02, r^2= 1.1D+01
   Bfn.  Coefficient  Atom+Function         Bfn.  Coefficient  Atom+Function  
  ----- ------------  ---------------      ----- ------------  ---------------
   131     -2.188642  7 Li s                 73      2.039200  5 Li s          
    24      1.276702  1 Li dxx               29     -1.244964  1 Li dzz        
   127     -1.120007  7 Li s                112      1.104945  6 Li dxx        
   117     -1.077423  6 Li dzz                7      0.831924  1 Li px         
     9     -0.831358  1 Li pz               130      0.752295  7 Li pz         
 
 Vector   73  Occ=0.000000D+00  E= 2.615624D-01
              MO Center=  1.9D-04,  5.1D-01,  1.3D-02, r^2= 1.6D+01
   Bfn.  Coefficient  Atom+Function         Bfn.  Coefficient  Atom+Function  
  ----- ------------  ---------------      ----- ------------  ---------------
   131    -16.931016  7 Li s                 73     16.681532  5 Li s          
   123      4.938050  7 Li s                 65     -4.863588  5 Li s          
   125     -4.419062  7 Li py                67      4.366445  5 Li py         
   126     -3.976989  7 Li pz                66      3.867485  5 Li px         
    68     -3.811131  5 Li pz               124      3.789471  7 Li px         
 
 Vector   74  Occ=0.000000D+00  E= 2.625145D-01
              MO Center= -9.0D-02, -7.5D-02, -1.1D-01, r^2= 1.3D+01
   Bfn.  Coefficient  Atom+Function         Bfn.  Coefficient  Atom+Function  
  ----- ------------  ---------------      ----- ------------  ---------------
    14      7.790506  1 Li s                 73     -5.530255  5 Li s          
    69      5.493735  5 Li s                127      5.439922  7 Li s          
   131     -4.972946  7 Li s                 65      4.044739  5 Li s          
   123      3.912123  7 Li s                 10     -3.878933  1 Li s          
     6     -3.439950  1 Li s                  8     -3.075164  1 Li py         
 
 Vector   75  Occ=0.000000D+00  E= 2.658372D-01
              MO Center=  9.9D-02,  1.0D-01,  1.0D-01, r^2= 1.2D+01
   Bfn.  Coefficient  Atom+Function         Bfn.  Coefficient  Atom+Function  
  ----- ------------  ---------------      ----- ------------  ---------------
   102     18.016707  6 Li s                 14    -16.234596  1 Li s          
    94     -4.872182  6 Li s                 98     -4.540702  6 Li s          
     6      3.878688  1 Li s                150     -3.819512  8 H  s          
    43      3.679205  3 H  s                 10      3.327269  1 Li s          
    95      3.337486  6 Li px                97      3.248949  6 Li pz         
 
 Vector   76  Occ=0.000000D+00  E= 2.893149D-01
              MO Center= -5.1D-03, -1.5D-01, -2.8D-03, r^2= 1.1D+01
   Bfn.  Coefficient  Atom+Function         Bfn.  Coefficient  Atom+Function  
  ----- ------------  ---------------      ----- ------------  ---------------
    10     11.019116  1 Li s                 98    -10.892323  6 Li s          
   102      6.150624  6 Li s                 14     -5.841594  1 Li s          
   149      5.155152  8 H  s                 42     -4.564036  3 H  s          
    11      2.244059  1 Li px                96     -2.237054  6 Li py         
    13      2.211990  1 Li pz                99      2.174564  6 Li px         
 
 Vector   77  Occ=0.000000D+00  E= 3.016363D-01
              MO Center=  2.4D-02,  5.8D-01, -1.1D-02, r^2= 1.3D+01
   Bfn.  Coefficient  Atom+Function         Bfn.  Coefficient  Atom+Function  
  ----- ------------  ---------------      ----- ------------  ---------------
    52     -8.248823  4 H  s                 32      8.198362  2 H  s          
    67     -3.686205  5 Li py               125      3.600375  7 Li py         
    65      2.923302  5 Li s                123     -2.937677  7 Li s          
    73     -2.291000  5 Li s                131      2.298433  7 Li s          
     9     -1.820967  1 Li pz                97     -1.820681  6 Li pz         
 
 Vector   78  Occ=0.000000D+00  E= 3.111094D-01
              MO Center=  1.3D-02,  9.9D-01,  2.9D-02, r^2= 1.1D+01
   Bfn.  Coefficient  Atom+Function         Bfn.  Coefficient  Atom+Function  
  ----- ------------  ---------------      ----- ------------  ---------------
   127      7.843728  7 Li s                 69      7.790282  5 Li s          
    43     -7.070210  3 H  s                150     -6.679835  8 H  s          
    14      6.413533  1 Li s                 73     -6.025705  5 Li s          
   131     -5.964216  7 Li s                102      5.644556  6 Li s          
    10     -4.109796  1 Li s                 98     -3.037410  6 Li s          
 
 Vector   79  Occ=0.000000D+00  E= 3.157507D-01
              MO Center= -3.0D-02,  1.2D-01,  1.5D-02, r^2= 1.5D+01
   Bfn.  Coefficient  Atom+Function         Bfn.  Coefficient  Atom+Function  
  ----- ------------  ---------------      ----- ------------  ---------------
    14      9.344158  1 Li s                102      9.226419  6 Li s          
    73     -8.928702  5 Li s                131     -8.752190  7 Li s          
    42      6.571515  3 H  s                149      6.168537  8 H  s          
    43      5.816370  3 H  s                127     -5.387089  7 Li s          
    69     -5.278184  5 Li s                150      5.285534  8 H  s          
 
 Vector   80  Occ=0.000000D+00  E= 3.218681D-01
              MO Center= -8.3D-02, -2.0D-01,  9.3D-02, r^2= 1.5D+01
   Bfn.  Coefficient  Atom+Function         Bfn.  Coefficient  Atom+Function  
  ----- ------------  ---------------      ----- ------------  ---------------
   102     -9.626609  6 Li s                 14      9.049088  1 Li s          
     8     -4.942220  1 Li py                96      4.890725  6 Li py         
   124     -3.142480  7 Li px               126     -3.050901  7 Li pz         
    68     -2.594134  5 Li pz                66     -2.559376  5 Li px         
   150      2.511474  8 H  s                 12      2.465874  1 Li py         
 
 Vector   81  Occ=0.000000D+00  E= 3.249151D-01
              MO Center=  7.8D-02, -7.0D-03, -9.9D-02, r^2= 1.5D+01
   Bfn.  Coefficient  Atom+Function         Bfn.  Coefficient  Atom+Function  
  ----- ------------  ---------------      ----- ------------  ---------------
     9      3.888490  1 Li pz                95      3.745119  6 Li px         
    97     -3.519105  6 Li pz                 7     -3.478145  1 Li px         
    66     -3.026349  5 Li px                68     -2.904820  5 Li pz         
   124      2.500730  7 Li px               126      2.397757  7 Li pz         
   116     -2.105548  6 Li dyz               25     -2.021787  1 Li dxy        
 
 Vector   82  Occ=0.000000D+00  E= 3.548047D-01
              MO Center=  3.6D-03, -2.9D-01, -1.8D-02, r^2= 1.2D+01
   Bfn.  Coefficient  Atom+Function         Bfn.  Coefficient  Atom+Function  
  ----- ------------  ---------------      ----- ------------  ---------------
   131     -6.099539  7 Li s                 73      5.832830  5 Li s          
   127      4.294289  7 Li s                 69     -4.123335  5 Li s          
    65     -2.125503  5 Li s                123      2.107195  7 Li s          
    32     -1.560540  2 H  s                 52      1.524535  4 H  s          
   129     -1.528979  7 Li py                53     -1.464322  4 H  s          
 
 Vector   83  Occ=0.000000D+00  E= 3.608015D-01
              MO Center= -2.9D-03, -1.2D-01, -2.2D-03, r^2= 1.2D+01
   Bfn.  Coefficient  Atom+Function         Bfn.  Coefficient  Atom+Function  
  ----- ------------  ---------------      ----- ------------  ---------------
    69      4.741589  5 Li s                102      4.588090  6 Li s          
   127      4.551452  7 Li s                 73     -4.230108  5 Li s          
    14      4.128764  1 Li s                131     -3.936573  7 Li s          
    98     -3.709450  6 Li s                 10     -3.502489  1 Li s          
    43     -2.923878  3 H  s                 94     -2.803281  6 Li s          
 
 Vector   84  Occ=0.000000D+00  E= 3.784366D-01
              MO Center=  1.5D-02, -6.1D-02,  8.6D-03, r^2= 1.1D+01
   Bfn.  Coefficient  Atom+Function         Bfn.  Coefficient  Atom+Function  
  ----- ------------  ---------------      ----- ------------  ---------------
    14     15.876893  1 Li s                102    -15.727677  6 Li s          
    98     -5.851101  6 Li s                 10      5.670341  1 Li s          
    42     -2.524596  3 H  s                149      2.485250  8 H  s          
    15      1.893736  1 Li px                17      1.871786  1 Li pz         
   103      1.836421  6 Li px               105      1.803957  6 Li pz         
 
 Vector   85  Occ=0.000000D+00  E= 3.848864D-01
              MO Center=  3.4D-02, -2.9D-01, -4.0D-02, r^2= 8.7D+00
   Bfn.  Coefficient  Atom+Function         Bfn.  Coefficient  Atom+Function  
  ----- ------------  ---------------      ----- ------------  ---------------
    68      1.447736  5 Li pz                66      1.432188  5 Li px         
   124     -1.353099  7 Li px               126     -1.340641  7 Li pz         
    28     -1.194362  1 Li dyz               87     -1.174573  5 Li dyz        
    25      1.155706  1 Li dxy              116      1.138190  6 Li dyz        
    84     -1.113325  5 Li dxy              142      1.098391  7 Li dxy        
 
 Vector   86  Occ=0.000000D+00  E= 3.873233D-01
              MO Center= -3.0D-02, -7.1D-01, -5.6D-02, r^2= 8.6D+00
   Bfn.  Coefficient  Atom+Function         Bfn.  Coefficient  Atom+Function  
  ----- ------------  ---------------      ----- ------------  ---------------
    14      4.801832  1 Li s                 73     -4.326485  5 Li s          
   131     -3.722011  7 Li s                 32     -3.397575  2 H  s          
   102      3.303760  6 Li s                 98     -3.211797  6 Li s          
    33      3.091078  2 H  s                 53      2.729386  4 H  s          
    10     -2.161019  1 Li s                 69      1.742914  5 Li s          
 
 Vector   87  Occ=0.000000D+00  E= 3.898025D-01
              MO Center= -2.6D-02, -1.6D-01,  6.7D-03, r^2= 9.8D+00
   Bfn.  Coefficient  Atom+Function         Bfn.  Coefficient  Atom+Function  
  ----- ------------  ---------------      ----- ------------  ---------------
    52     -7.490809  4 H  s                 32      6.874068  2 H  s          
   131     -3.296139  7 Li s                 97     -2.471167  6 Li pz         
   127      2.450029  7 Li s                  7      2.332225  1 Li px         
     9     -2.285088  1 Li pz                73      2.280680  5 Li s          
    95      2.225536  6 Li px                69     -2.056448  5 Li s          
 
 Vector   88  Occ=0.000000D+00  E= 3.924259D-01
              MO Center= -1.2D-02,  3.3D-01,  5.9D-02, r^2= 8.0D+00
   Bfn.  Coefficient  Atom+Function         Bfn.  Coefficient  Atom+Function  
  ----- ------------  ---------------      ----- ------------  ---------------
   102     -8.591792  6 Li s                 14      8.011471  1 Li s          
    10      7.104235  1 Li s                 98     -6.616764  6 Li s          
   149     -5.808963  8 H  s                 42      5.667156  3 H  s          
    11      1.843233  1 Li px                13      1.832834  1 Li pz         
    99      1.709493  6 Li px               150      1.711797  8 H  s          
 
 Vector   89  Occ=0.000000D+00  E= 4.170765D-01
              MO Center= -2.9D-05,  3.7D-01,  5.4D-03, r^2= 9.7D+00
   Bfn.  Coefficient  Atom+Function         Bfn.  Coefficient  Atom+Function  
  ----- ------------  ---------------      ----- ------------  ---------------
   127      5.819983  7 Li s                 69      5.737510  5 Li s          
    10     -5.208863  1 Li s                 98     -3.988077  6 Li s          
    14      3.305022  1 Li s                150     -3.263396  8 H  s          
   131     -2.637493  7 Li s                 73     -2.576694  5 Li s          
   149      2.538113  8 H  s                  8      2.140422  1 Li py         
 
 Vector   90  Occ=0.000000D+00  E= 4.219433D-01
              MO Center=  2.4D-02,  2.7D-01, -1.9D-02, r^2= 8.8D+00
   Bfn.  Coefficient  Atom+Function         Bfn.  Coefficient  Atom+Function  
  ----- ------------  ---------------      ----- ------------  ---------------
    43      5.118094  3 H  s                 98      4.622368  6 Li s          
   150     -4.200722  8 H  s                 42     -3.894251  3 H  s          
   102     -3.295287  6 Li s                149      3.075390  8 H  s          
    10     -2.891761  1 Li s                 14      2.641370  1 Li s          
    96     -1.893604  6 Li py               115     -1.664163  6 Li dyy        
 
 Vector   91  Occ=0.000000D+00  E= 4.279791D-01
              MO Center= -3.5D-02, -2.5D-01,  1.4D-02, r^2= 9.7D+00
   Bfn.  Coefficient  Atom+Function         Bfn.  Coefficient  Atom+Function  
  ----- ------------  ---------------      ----- ------------  ---------------
     9     -3.314672  1 Li pz                 7      3.194491  1 Li px         
    95     -3.201843  6 Li px                97      3.200899  6 Li pz         
    28     -2.020525  1 Li dyz              113     -1.973436  6 Li dxy        
   116      1.971994  6 Li dyz               25      1.948113  1 Li dxy        
    29     -1.694737  1 Li dzz              112      1.652929  6 Li dxx        
 
 Vector   92  Occ=0.000000D+00  E= 4.336140D-01
              MO Center=  5.6D-03,  3.1D-01, -8.3D-04, r^2= 9.2D+00
   Bfn.  Coefficient  Atom+Function         Bfn.  Coefficient  Atom+Function  
  ----- ------------  ---------------      ----- ------------  ---------------
    52     -5.622294  4 H  s                 32      5.548380  2 H  s          
    67     -3.969005  5 Li py               125      3.929753  7 Li py         
    86      2.606950  5 Li dyy              144     -2.595657  7 Li dyy        
    65      2.545077  5 Li s                123     -2.540430  7 Li s          
    73     -2.365056  5 Li s                131      2.298932  7 Li s          
 
 Vector   93  Occ=0.000000D+00  E= 4.394290D-01
              MO Center= -2.6D-03, -1.9D-01,  1.2D-02, r^2= 8.3D+00
   Bfn.  Coefficient  Atom+Function         Bfn.  Coefficient  Atom+Function  
  ----- ------------  ---------------      ----- ------------  ---------------
    14      4.787674  1 Li s                 33      4.578377  2 H  s          
    53      4.517813  4 H  s                 32     -4.422038  2 H  s          
    73     -4.426866  5 Li s                 52     -4.386239  4 H  s          
   131     -4.304021  7 Li s                102      4.253284  6 Li s          
   127     -4.041606  7 Li s                 69     -3.995685  5 Li s          
 
 Vector   94  Occ=0.000000D+00  E= 4.495174D-01
              MO Center=  9.4D-04, -6.8D-01, -9.6D-03, r^2= 8.8D+00
   Bfn.  Coefficient  Atom+Function         Bfn.  Coefficient  Atom+Function  
  ----- ------------  ---------------      ----- ------------  ---------------
   131     -7.751001  7 Li s                 73      7.676925  5 Li s          
    53      3.659280  4 H  s                 33     -3.601505  2 H  s          
    69     -3.116577  5 Li s                127      3.014738  7 Li s          
[...]


              11           12           13           14           15           16           17           18           19           20
   ----- ----- ----- ----- -----
   11    3.72122D+01
   12   -6.76090D+00  2.59517D+01
   13   -1.91905D+00  6.78519D-01  1.36539D+00
   14   -1.01445D+01  2.26002D+00  8.84203D-01  4.87532D+00
   15    1.56337D+00 -1.49006D+00 -7.30676D-01 -7.20787D-01  1.37779D+00
   16   -3.38681D-01  1.06152D+00  1.43781D-01 -1.20332D-01  5.00843D-02  3.59877D+00
   17   -2.20659D+00  7.00171D-01 -1.11455D-01 -2.75193D-01  3.74826D-01 -5.45283D-01  1.50126D+00
   18    8.94111D-01 -5.17150D+00 -1.37414D-01  3.60243D-01 -1.82688D-01  5.66909D-01 -5.44501D-01  3.57505D+00
   19   -4.05321D-01  2.69537D-01 -2.15061D-01  2.41486D-02  9.43943D-03 -1.87312D-01  3.81427D-01  5.15537D-02  1.35567D+00
   20   -5.42111D-03  3.39905D-01  1.28678D-02 -2.82808D-02  3.29410D-02  3.69909D-01 -2.75444D-01 -1.18893D-01 -7.21998D-01  4.87362D+00
   21    3.20790D-01  2.08176D-01 -8.27835D-02  2.27988D-02 -2.14004D-01 -1.24100D-01 -1.34938D-01  1.54187D-01 -7.40282D-01  9.09483D-01
   22    4.15293D+00  1.10612D+00  1.08246D+00 -1.38007D+00 -7.03029D-01 -4.89398D-02 -6.91747D-01  1.01044D+00 -2.64525D+00 -2.44330D+00
   23   -1.54276D+00 -2.32899D+00  2.01638D-01 -5.37417D-01 -3.49094D-01 -1.92106D-01  6.94581D-01 -1.81544D-01 -3.49113D-01 -5.41024D-01
   24    2.08315D+00 -7.67100D-01  1.69400D+00 -2.40342D+00 -2.66577D+00  1.00116D+00 -6.74522D-01 -8.70651D-02 -6.35475D-01 -1.36599D+00


              21           22           23           24
   ----- ----- ----- ----- -----
   21    1.39291D+00
   22    1.73880D+00  8.59296D+01
   23    2.03796D-01  2.30202D+00  1.42913D+01
   24    1.05689D+00  6.15824D+01  2.21134D+00  8.40220D+01

 center of mass
 --------------
 x =  -0.00631769 y =  -0.23422581 z =  -0.00737951

 moments of inertia (a.u.)
 ------------------
         258.578438446589          -1.030329967502          44.150023815375
          -1.030329967502         260.988548403590          -0.754537094838
          44.150023815375          -0.754537094838         257.140510991732

 Rotational Constants
 --------------------
 A=   0.281700 cm-1  (  0.405295 K)
 B=   0.230696 cm-1  (  0.331912 K)
 C=   0.199303 cm-1  (  0.286745 K)


 Temperature                      =   298.15K
 frequency scaling parameter      =   1.0000

 Zero-Point correction to Energy  =   17.959 kcal/mol  (  0.028620 au)
 Thermal correction to Energy     =   22.666 kcal/mol  (  0.036120 au)
 Thermal correction to Enthalpy   =   23.258 kcal/mol  (  0.037064 au)

 Total Entropy                    =   77.556 cal/mol-K
   - Translational                =   36.314 cal/mol-K (mol. weight =  32.0953)
   - Rotational                   =   24.325 cal/mol-K (symmetry #  =        1)
   - Vibrational                  =   16.917 cal/mol-K

 Cv (constant volume heat capacity) =   25.290 cal/mol-K
   - Translational                  =    2.979 cal/mol-K
   - Rotational                     =    2.979 cal/mol-K
   - Vibrational                    =   19.331 cal/mol-K



          -------------------------------------------------
          NORMAL MODE EIGENVECTORS IN CARTESIAN COORDINATES
          -------------------------------------------------
             (Projected Frequencies expressed in cm-1)

                    1           2           3           4           5           6
 
 P.Frequency       -0.00       -0.00       -0.00       -0.00        0.00        0.00
 
           1     0.01513     0.05870    -0.06471    -0.17901    -0.10397    -0.08795
           2    -0.05125    -0.13059    -0.12858     0.00638     0.01366     0.15605
           3    -0.06473    -0.09468     0.19822     0.00235    -0.07007    -0.03484
           4     0.03056     0.01897     0.00689    -0.02374    -0.22133    -0.02650
           5     0.00838    -0.22201    -0.04189     0.00332     0.02218    -0.01733
           6    -0.07310    -0.08184     0.18600     0.00260    -0.07113    -0.01063
           7     0.17225    -0.09808    -0.01106    -0.11672    -0.02834     0.15305
           8    -0.06750    -0.12855    -0.10316     0.00410    -0.01348     0.03608
           9    -0.15516     0.05300     0.04189    -0.05038    -0.03535     0.21141
          10     0.03022     0.04489    -0.06297    -0.18071    -0.09028    -0.06675
          11    -0.15591    -0.03193    -0.14829     0.00335    -0.06831     0.00883
          12    -0.07427    -0.05536     0.11671    -0.15186     0.05736    -0.05010
          13     0.12477    -0.03972    -0.05719    -0.20281     0.00508     0.06317
          14    -0.18544     0.00148    -0.16579     0.00325    -0.08540     0.00799
          15    -0.12885     0.03299     0.02452    -0.17874     0.07420     0.09990
          16     0.01203     0.03688     0.00213    -0.02756    -0.23320    -0.05403
          17    -0.09617    -0.12318    -0.06214     0.00033    -0.05942    -0.16250
          18    -0.06332    -0.07223     0.13288    -0.15178     0.05841    -0.08166
          19     0.12520    -0.07482     0.03744     0.00980    -0.17245     0.11766
          20     0.03712    -0.25600    -0.02166     0.00321     0.03719    -0.02742
          21    -0.12725    -0.00290     0.11840     0.03051    -0.09987     0.15334
          22     0.17075    -0.10463     0.01036    -0.06800    -0.07033     0.16323
          23    -0.08197    -0.12616    -0.08178     0.00215    -0.03701    -0.06644
          24    -0.15441     0.05978     0.02128    -0.10001     0.00605     0.19549

                    7           8           9          10          11          12
 
 P.Frequency      109.66      167.01      178.82      229.88      257.79      310.98
 
           1     0.00357    -0.00250     0.07956    -0.14011    -0.10468     0.04905
           2     0.09945     0.07882     0.19122    -0.00198    -0.00134    -0.16104
           3     0.00540    -0.00439     0.08166     0.14100     0.10471     0.04700
           4     0.02372    -0.03034     0.10136     0.09054    -0.07173    -0.02284
           5    -0.00477    -0.01211    -0.00494     0.00799    -0.18378     0.06989
           6     0.03394     0.00334     0.10141     0.08169     0.07360     0.02264
           7    -0.42360     0.11966     0.05049    -0.00683    -0.02330     0.02760
           8    -0.16220    -0.15287    -0.04462     0.00097    -0.00004     0.15537
           9    -0.41803     0.11681     0.05149     0.00253     0.03724     0.02936
          10     0.03236     0.00563     0.10151    -0.08452    -0.07560     0.02205
          11     0.00329    -0.01756    -0.00466    -0.00745     0.18251     0.07004
          12     0.02893    -0.03344     0.09834    -0.09040     0.07084    -0.02273
          13     0.10184     0.12990    -0.09166     0.11055     0.12006     0.10383
          14    -0.02307    -0.07919     0.00010    -0.01122     0.14379     0.12519
          15     0.00348    -0.15677    -0.10494     0.12109    -0.10534    -0.10545
          16    -0.00116     0.00036     0.07565     0.14910    -0.08776    -0.05452
          17    -0.04840     0.13958    -0.18679     0.00135     0.00238    -0.15090
          18     0.00187    -0.00161     0.07198    -0.15210     0.09008    -0.05391
          19     0.00887    -0.15726    -0.10736    -0.12149     0.10031    -0.10380
          20    -0.02719    -0.07680    -0.00043     0.01136    -0.14366     0.12414
          21     0.09957     0.13490    -0.09223    -0.10632    -0.12097     0.10628
          22    -0.41999     0.11036     0.05159     0.01440    -0.02375     0.01104
          23     0.15817    -0.25193     0.02571     0.00195    -0.00689     0.14051
          24    -0.41292     0.10732     0.05182    -0.01930     0.03771     0.01307

                   13          14          15          16          17          18
 
 P.Frequency      368.69      423.74      525.97      679.36      699.26      766.08
 
           1    -0.13673    -0.12161    -0.01046    -0.06355    -0.05559     0.05191
           2    -0.01631    -0.03924    -0.00003    -0.02451    -0.00090     0.00008
           3    -0.13566    -0.12063     0.01097    -0.06422     0.05351    -0.05334
           4     0.04176    -0.01465    -0.03045     0.40390    -0.45174    -0.40139
           5     0.01758     0.01170     0.00131    -0.01705     0.03082    -0.37467
           6    -0.04111     0.01279     0.05385     0.40276    -0.46317     0.36966
           7     0.04467    -0.03628     0.44461     0.06188     0.11519     0.00978
           8     0.45025    -0.44174     0.00222    -0.34697    -0.00769     0.00263
           9     0.04581    -0.03487    -0.45134     0.06236    -0.11306    -0.00808
          10    -0.04152     0.01302    -0.05640     0.39054     0.48689    -0.35811
          11     0.01617     0.01106    -0.00311    -0.01834    -0.03234     0.36949
          12     0.04183    -0.01478     0.02603     0.37518     0.46007     0.41340
          13     0.03207     0.00798    -0.04403    -0.00289    -0.01637    -0.00140
          14    -0.04842     0.10724     0.07453     0.00197     0.00515    -0.05052
          15    -0.03826    -0.00096     0.04714    -0.00318    -0.01318    -0.00157
          16     0.13471     0.12247    -0.01709    -0.06470     0.04868     0.05542
          17    -0.02021    -0.05358    -0.00071     0.02915     0.00084     0.00064
          18     0.13290     0.11955     0.01880    -0.06056    -0.05181    -0.05710
          19    -0.03739    -0.00168    -0.04688    -0.00413     0.01310     0.00086
          20    -0.04853     0.10858    -0.07379     0.00068    -0.00503     0.05048
          21     0.03319     0.00895     0.04449    -0.00354     0.01582     0.00120
          22     0.00614    -0.01187     0.46699     0.08533    -0.07947     0.00631
          23     0.44512    -0.43732    -0.00038     0.33162     0.00883    -0.00224
          24     0.00795    -0.01129    -0.47365     0.07519     0.08596    -0.00352

                   19          20          21          22          23          24
 
 P.Frequency      860.03      917.51     1021.82     1074.36     1203.56     2774.22
 
           1     0.02257    -0.00740    -0.00016    -0.02655    -0.00703    -0.00147
           2    -0.00333     0.02036     0.00009    -0.00022    -0.01712    -0.00202
           3     0.02141    -0.00721     0.00047     0.02676    -0.00701    -0.00146
           4    -0.25780    -0.36553    -0.10500     0.25771    -0.32604     0.00239
           5    -0.00438    -0.45958    -0.00678    -0.54808     0.49700     0.02562
           6    -0.23567     0.36076    -0.10799    -0.28285     0.34768    -0.00070
           7     0.08162    -0.01091    -0.48934     0.05163     0.01381    -0.50004
           8    -0.59290     0.10082    -0.00279     0.00102    -0.01936     0.05288
           9     0.07489    -0.01594     0.49756    -0.05202     0.01219    -0.49171
          10    -0.24640     0.35548     0.11187     0.27895     0.33917    -0.00065
          11     0.00055    -0.45899     0.00111     0.55136     0.49796     0.02471
          12    -0.25281    -0.37604     0.09301    -0.26142    -0.32795     0.00199
          13     0.00061     0.00112     0.00582    -0.01980    -0.01234     0.00358
          14     0.00068     0.03417    -0.00201    -0.06471    -0.05138    -0.00518
          15    -0.00038     0.00058     0.00432     0.01759     0.01041    -0.00403
          16     0.02226     0.00795    -0.00044    -0.02567     0.00682     0.00140
          17     0.00279     0.01889     0.00017    -0.00019    -0.01769    -0.00231
          18     0.02159     0.00793     0.00099     0.02627     0.00654     0.00138
          19    -0.00027     0.00063    -0.00435    -0.01771     0.01057    -0.00397
          20     0.00137     0.03407     0.00232     0.06449    -0.05166    -0.00525
          21     0.00051     0.00118    -0.00569     0.02020    -0.01280     0.00362
          22     0.10820     0.00495     0.47644     0.03632    -0.01318     0.50156
          23     0.58622     0.06946     0.00449     0.00011    -0.01594    -0.00051
          24     0.11334     0.01396    -0.48322    -0.03591    -0.01203     0.49384



 ----------------------------------------------------------------------------
 Normal Eigenvalue ||    Projected Derivative Dipole Moments (debye/angs)
  Mode   [cm**-1]  ||      [d/dqX]             [d/dqY]           [d/dqZ]
 ------ ---------- || ------------------ ------------------ -----------------
    1       -0.000 ||       0.392              -0.360            -0.478
    2       -0.000 ||      -0.081              -0.616            -0.120
    3       -0.000 ||      -0.076              -0.457             0.526
    4       -0.000 ||       0.513              -0.017             0.394
    5        0.000 ||      -0.570              -0.115            -0.062
    6        0.000 ||       0.222              -0.041             0.348
    7      109.658 ||      -0.047              -0.185            -0.014
    8      167.014 ||      -0.036               0.803            -0.003
    9      178.817 ||       0.736               0.016             0.716
   10      229.876 ||       0.073               0.002            -0.065
   11      257.793 ||       0.975               0.013            -0.995
   12      310.977 ||      -0.004              -0.430            -0.012
   13      368.689 ||      -0.018              -0.500            -0.018
   14      423.741 ||      -0.018              -0.348            -0.011
   15      525.972 ||       1.624               0.005            -1.659
   16      679.362 ||      -0.642               0.059            -0.608
   17      699.260 ||      -0.142               0.001             0.119
   18      766.077 ||       2.234               0.010            -2.280
   19      860.033 ||       0.422               0.062             0.390
   20      917.507 ||       0.031               2.073             0.037
   21     1021.820 ||       0.004               0.012             0.002
   22     1074.361 ||      -1.590              -0.012             1.615
   23     1203.559 ||      -0.036              -2.414            -0.052
   24     2774.224 ||      -0.258              -5.541            -0.283
 ----------------------------------------------------------------------------



  
  
 ----------------------------------------------------------------------------
 Normal Eigenvalue ||           Projected Infra Red Intensities
  Mode   [cm**-1]  || [atomic units] [(debye/angs)**2] [(KM/mol)] [arbitrary]
 ------ ---------- || -------------- ----------------- ---------- -----------
    1       -0.000 ||    0.022203           0.512        21.645       1.771
    2       -0.000 ||    0.017371           0.401        16.934       1.385
    3       -0.000 ||    0.021302           0.491        20.766       1.699
    4       -0.000 ||    0.018149           0.419        17.693       1.447
    5        0.000 ||    0.014833           0.342        14.460       1.183
    6        0.000 ||    0.007438           0.172         7.251       0.593
    7      109.658 ||    0.001594           0.037         1.554       0.127
    8      167.014 ||    0.028032           0.647        27.327       2.235
    9      178.817 ||    0.045750           1.055        44.599       3.648
   10      229.876 ||    0.000415           0.010         0.405       0.033
   11      257.793 ||    0.084088           1.940        81.973       6.705
   12      310.977 ||    0.008004           0.185         7.803       0.638
   13      368.689 ||    0.010850           0.250        10.577       0.865
   14      423.741 ||    0.005274           0.122         5.142       0.421
   15      525.972 ||    0.233651           5.391       227.775      18.632
   16      679.362 ||    0.034042           0.785        33.186       2.715
   17      699.260 ||    0.001487           0.034         1.450       0.119
   18      766.077 ||    0.441628          10.189       430.520      35.217
   19      860.033 ||    0.014494           0.334        14.130       1.156
   20      917.507 ||    0.186392           4.300       181.704      14.863
   21     1021.820 ||    0.000007           0.000         0.007       0.001
   22     1074.361 ||    0.222693           5.138       217.092      17.758
   23     1203.559 ||    0.252721           5.830       246.364      20.153
   24     2774.224 ||    1.337263          30.852      1303.630     106.637
 ----------------------------------------------------------------------------



 vib:animation  F

 Task  times  cpu:     1068.3s     wall:     1087.6s
 
 
                                NWChem Input Module
                                -------------------
 
 
 Summary of allocated global arrays
-----------------------------------
  No active global arrays



                         GA Statistics for process    0
                         ------------------------------

       create   destroy   get      put      acc     scatter   gather  read&inc
calls: 1.12e+04 1.12e+04 3.64e+06 1.86e+05 9.30e+05    0        0     7.80e+04 
number of processes/call 1.10e+00 1.52e+00 1.02e+00 0.00e+00 0.00e+00
bytes total:             1.89e+10 6.27e+08 4.40e+09 0.00e+00 0.00e+00 6.24e+05
bytes remote:            1.28e+10 2.14e+08 2.95e+09 0.00e+00 0.00e+00 0.00e+00
Max memory consumed for GA by this process: 3998208 bytes
 
MA_summarize_allocated_blocks: starting scan ...
MA_summarize_allocated_blocks: scan completed: 0 heap blocks, 0 stack blocks
MA usage statistics:

	allocation statistics:
					      heap	     stack
					      ----	     -----
	current number of blocks	         0	         0
	maximum number of blocks	        25	        54
	current total bytes		         0	         0
	maximum total bytes		   1803976	  33589032
	maximum total K-bytes		      1804	     33590
	maximum total M-bytes		         2	        34
 
 
                                     CITATION
                                     --------
                Please cite the following reference when publishing
                           results obtained with NWChem:
 
                 M. Valiev, E.J. Bylaska, N. Govind, K. Kowalski,
              T.P. Straatsma, H.J.J. van Dam, D. Wang, J. Nieplocha,
                        E. Apra, T.L. Windus, W.A. de Jong
                 "NWChem: a comprehensive and scalable open-source
                  solution for large scale molecular simulations"
                      Comput. Phys. Commun. 181, 1477 (2010)
                           doi:10.1016/j.cpc.2010.04.018
 
                                      AUTHORS
                                      -------
          E. Apra, E. J. Bylaska, W. A. de Jong, N. Govind, K. Kowalski,
       T. P. Straatsma, M. Valiev, H. J. J. van Dam, D. Wang, T. L. Windus,
        J. Hammond, J. Autschbach, K. Bhaskaran-Nair, J. Brabec, K. Lopata,
        S. Krishnamoorthy, W. Ma, M. Klemm, O. Villa, Y. Chen, V. Anisimov,
    F. Aquino, S. Hirata, M. T. Hackler, T. Risthaus, M. Malagoli, A. Marenich,
   A. Otero-de-la-Roza, J. Mullin, P. Nichols, R. Peverati, J. Pittner, Y. Zhao,
         P.-D. Fan, A. Fonari, R. J. Harrison, M. Dupuis, D. Silverstein,
    D. M. A. Smith, J. Nieplocha, V. Tipparaju, M. Krishnan, B. E. Van Kuiken,
        A. Vazquez-Mayagoitia, L. Jensen, M. Swart, Q. Wu, T. Van Voorhis,
     A. A. Auer, M. Nooijen, L. D. Crosby, E. Brown, G. Cisneros, G. I. Fann,
   H. Fruchtl, J. Garza, K. Hirao, R. A. Kendall, J. A. Nichols, K. Tsemekhman,
    K. Wolinski, J. Anchell, D. E. Bernholdt, P. Borowski, T. Clark, D. Clerc,
   H. Dachsel, M. J. O. Deegan, K. Dyall, D. Elwood, E. Glendening, M. Gutowski,
   A. C. Hess, J. Jaffe, B. G. Johnson, J. Ju, R. Kobayashi, R. Kutteh, Z. Lin,
   R. Littlefield, X. Long, B. Meng, T. Nakajima, S. Niu, L. Pollack, M. Rosing,
   K. Glaesemann, G. Sandrone, M. Stave, H. Taylor, G. Thomas, J. H. van Lenthe,
                               A. T. Wong, Z. Zhang.

 Total times  cpu:     1762.8s     wall:     1800.7s
