 argument  1 = ./oh3tr4.nw
                                         
                                         
 
 
              Northwest Computational Chemistry Package (NWChem) 4.0
              ------------------------------------------------------
 
 
                    Environmental Molecular Sciences Laboratory
                       Pacific Northwest National Laboratory
                                Richland, WA 99352
 
                                         
                                         
 
 
            COPYRIGHT (C) 1994, 1995, 1996, 1997, 1998, 1999, 2000, 2001
                        Pacific Northwest National Laboratory,
                             Battelle Memorial Institute.
 
                            >>> All Rights Reserved <<<
 
 
                                    DISCLAIMER
                                    ----------

            This material was prepared as an account of work sponsored
            by an agency of the United States Government.  Neither the
            United States Government nor the United States Department
            of Energy, nor Battelle, nor any of their employees, MAKES
            ANY WARRANTY, EXPRESS OR IMPLIED, OR ASSUMES ANY LEGAL
            LIABILITY OR RESPONSIBILITY FOR THE ACCURACY, COMPLETENESS,
            OR USEFULNESS OF ANY INFORMATION, APPARATUS, PRODUCT,
            SOFTWARE, OR PROCESS DISCLOSED, OR REPRESENTS THAT ITS USE
            WOULD NOT INFRINGE PRIVATELY OWNED RIGHTS.


                                    LIMITED USE
                                    -----------

            This software (including any documentation) is being made
            available to you for your internal use only, solely for use
            in performance of work directly for the U.S. Federal
            Government or work under contracts with the U.S. Department
            of Energy or other U.S. Federal Government agencies.  This
            software is a version which has not yet been evaluated and
            cleared for commercialization.  Adherence to this notice
            may be necessary for the author, Battelle Memorial
            Institute, to successfully assert copyright in and
            commercialize this software. This software is not intended
            for duplication or distribution to third parties without
            the permission of the Manager of Software Products at
            Pacific Northwest National Laboratory, Richland,
            Washington, 99352.


                                  ACKNOWLEDGMENT
                                  --------------

            This software and its documentation were produced with
            Government support under Contract Number DE-AC06-76RLO-1830
            awarded by the United States Department of Energy.  The
            Government retains a paid-up non-exclusive, irrevocable
            worldwide license to reproduce, prepare derivative works,
            perform publicly and display publicly by or for the
            Government, including the right to distribute to other
            Government contractors.


           Job information
           ---------------

    hostname      = pitb
    program       = /usr/users/windus/nwchem/bin/DECOSF/nwchem
    date          = Tue May  1 15:20:09 2001

    compiled      = Tue May  1 13:19:17 PDT 2001
    source        = /usr/users/windus/nwchem
    nwchem branch = Development
    input         = ./oh3tr4.nw
    prefix        = oh3.
    data base     = ./oh3.db
    status        = startup
    nproc         =    1
    time left     =     -1s



           Memory information
           ------------------

    heap      =   47382524 doubles =    361.5 Mbytes
    stack     =   15794169 doubles =    120.5 Mbytes
    global    =   63176714 doubles =    482.0 Mbytes (within heap+stack)
    total     =   63176693 doubles =    482.0 Mbytes
    verify    = yes
    hardfail  = no 


           Directory information
           ---------------------
 
  0 permanent = .
  0 scratch   = .
 
 
 
 
                                NWChem Input Module
                                -------------------
 
 
                       OH + H2 -> OH2 + H: Page-McIver CLQA
                       ------------------------------------
 


 DIRDYVTST - DiRect DYnamics for Variational Transition State Theory with the NWChem  electronic structure code

     This code prepares the file30 input for POLYRATE from electronic structure calculations of gradients
     hessians at the reactant, product, and saddle point geometries, and along the minimum energy path.
     Cartesian geometries for the reactants, products, and saddle points need to be input to this code;
     optimization for these geometries is not performed in the code.  Points along the minimum energy path
     are calculated here.

 Options, lgs=
   1 0 0 0 0 1 0 0 0 0 0 0 0 0 0 0 0 0 0 0 0 0 0 0 0 0 0 0 0 0 3 0 0 0 0 0 0 0 0

           Note that only lgs 1,2,6,8,27,31,38,39 are used.

     lgs( 1)= 1, saddle point; MEP started along unbound eigenvector
     lgs( 2)= 0, frequencies and eigenvectors at save points along MEP are not printed
     lgs( 6)= 1,  2, reactants,  2, products
     lgs( 8)= 0, no restart
     lgs(27)= 0, use original direction of unbound eigenvector at saddle point
     lgs(31)= 3, MEP calculation uses Page-McIver CLQA algorithm
     lgs(38)= 0, No electronic structure files saved
     lgs(39)= 0, No single point calculation  performed


 Title:
      OH + H2 -> OH2 + H: Page-McIver CLQA                                       


 Number of atoms =     4


 Masses
                                  amu             a.u.            kg
     Mass of atom  1          15.994910     29156.241512   2.655539E-26
     Mass of atom  2           1.007825      1837.108749   1.673231E-27
     Mass of atom  3           1.007825      1837.108749   1.673231E-27
     Mass of atom  4           1.007825      1837.108749   1.673231E-27
     Forward reduced mass      1.802061      3284.878589   2.991854E-27


 Reactants

     Input geometry (cartesian coordinates in au)
      atom            x             y             z
        1          0.00000       0.00000      34.99280
        2          0.00000       0.00000      33.12997
        3          0.00000       0.00000    -155.84186
        4          0.00000       0.00000    -157.23047

     Species 1 consists of atom(s):    1  2
          icode=    3

     Species 2 consists of atom(s):    3  4
          icode=    3


 Products

     Input geometry (cartesian coordinates in au)
      atom            x             y             z
        1         -0.01849      17.46099       0.00000
        2         -1.76444      17.99818       0.00000
        3          0.00000      15.63436       0.00000
        4          1.91233    -173.32045       0.00000

     Species 3 consists of atom(s):    1  2  3
          icode=    4

     Species 4 consists of atom(s):    4
          icode=    1


 Saddle point or starting geometry on MEP

     Input geometry (cartesian coordinates in au)
      atom            x             y             z
        1          0.00000       0.56065       0.00000
        2          1.82746       0.28047       0.00000
        3         -0.79011      -1.46910       0.00000
        4         -1.03734      -3.29659       0.00000
          icode=    4

 Mass scaled coordinates, rotated so principle axes are aligned

     Reactants
      atom            x             y             z
        1         20.92187      57.05491       0.00000
        2          4.77211      13.01377       0.00000
        3        -43.88165    -119.66729       0.00000
        4        -44.23917    -120.64226       0.00000

     Products
      atom            x             y             z
        1         10.16588      28.56869       0.00000
        2          3.91667       7.11340       0.00000
        3          2.08218       5.88837       0.00000
        4        -46.49775    -126.81391       0.00000

     Saddle point or starting geometry on MEP
      atom            x             y             z
        1          0.00000       0.97365       0.00000
        2          1.36664       0.03487       0.00000
        3         -0.59088      -1.27352       0.00000
        4         -0.77577      -2.64019       0.00000


 Parameters for MEP calculation

     Step size, dels=  0.050000
     Interval for saving Hessian data, delsv =  0.050000
     Interval for computing Hessian data, delhss =  0.050000
     Path also stopped if s .gt.  0.500000 or s .lt. -0.800000


 ********** Reactants

 Geometry in mass-scaled cartesians (bohrs):

                 x               y               z
   1        2.092187E+01    5.705491E+01    0.000000E+00
   2        4.772114E+00    1.301377E+01    0.000000E+00
   3       -4.388165E+01   -1.196673E+02    0.000000E+00
   4       -4.423917E+01   -1.206423E+02    0.000000E+00

 Potential energy=  -7.6093188140E+01 Hartree= -4.77492E+04 kcal/mol

 Derivatives in mass-scaled cartesians (au):
   1       -1.975499E-09   -2.292748E-09    1.610264E-16
   2        7.864620E-09    9.119177E-09   -6.414983E-16
   3       -5.045069E-08   -1.375814E-07    3.815334E-25
   4        5.045608E-08    1.375960E-07   -3.760302E-25

 Reactant species    1

 Eigenvalues and eigenvectors of hessian

                       m=       1            2            3            4            5            6
  Eigenvalues (au)=           0.887988     0.000083     0.000000     0.000000    -0.000005    -0.000008
  Frequencies (cm^-1)=     3608.513118    34.888041     0.361961    -0.101866    -8.375168   -10.511489
  Eigenvectors=
                        1     0.083771    -0.315174     0.000013    -0.910652    -0.000017    -0.253694
                        2     0.228597    -0.182472    -0.000002     0.333823    -0.000015    -0.896108
                        3     0.000000    -0.000001    -0.970024    -0.000009    -0.243009     0.000003
                        4    -0.333837     0.847760     0.000003    -0.228579    -0.000012    -0.342941
                        5    -0.910647    -0.385581    -0.000001     0.083822    -0.000001    -0.122565
                        6     0.000000     0.000001    -0.243009    -0.000016     0.970024    -0.000022
  

 Reactant species    2

 Eigenvalues and eigenvectors of hessian

                       m=       1            2            3            4            5            6
  Eigenvalues (au)=           1.479088     0.000000     0.000000     0.000000     0.000000    -0.000001
  Frequencies (cm^-1)=     4657.166213     2.133961     1.687293    -0.001423    -0.004252    -3.475294
  Eigenvectors=
                        1     0.243443     0.139916     0.000000     0.008477    -0.663821     0.693129
                        2     0.663879    -0.693115     0.000000    -0.003109     0.243445     0.139933
                        3     0.000000    -0.000001     0.707052     0.707104     0.009030     0.000000
                        4    -0.243442    -0.554862     0.000000     0.008477    -0.663814    -0.438342
                        5    -0.663879    -0.438342     0.000000    -0.003109     0.243441     0.554840
                        6     0.000000     0.000000    -0.707162     0.706994     0.009029     0.000000
  


 ********** Products

 Geometry in mass-scaled cartesians (bohrs):

                 x               y               z
   1        1.016588E+01    2.856869E+01    0.000000E+00
   2        3.916671E+00    7.113400E+00    0.000000E+00
   3        2.082176E+00    5.888366E+00    0.000000E+00
   4       -4.649775E+01   -1.268139E+02    0.000000E+00

 Potential energy=  -7.6082158347E+01 Hartree= -4.77423E+04 kcal/mol

 Derivatives in mass-scaled cartesians (au):
   1       -6.908699E-08    1.043109E-07    1.013110E-16
   2        3.087793E-07   -9.026795E-08   -4.912351E-16
   3       -3.354998E-08   -3.252866E-07    8.763152E-17
   4       -4.367466E-17    2.077537E-16   -3.030444E-33

 Product species     1

 Eigenvalues and eigenvectors of hessian

                       m=       1            2            3            4            5            6
  Eigenvalues (au)=           1.061696     0.991264     0.220814     0.000027     0.000002     0.000000
  Frequencies (cm^-1)=     3945.705908  3812.583795  1799.444390    19.857418     5.347201    -0.924814
  Eigenvectors=
                        1    -0.229143     0.098705     0.157372     0.000000     0.951582    -0.085790
                        2    -0.152980    -0.147892    -0.235655     0.000000     0.061330     0.580283
                        3     0.000000     0.000000     0.000000    -0.328416     0.000000     0.000000
                        4     0.679243    -0.694686    -0.000915     0.000000     0.236013     0.000359
                        5    -0.028760    -0.038099     0.678080     0.000000    -0.051858     0.662728
                        6     0.000000     0.000000     0.000000     0.663503     0.000000     0.000000
                        7     0.233619     0.301455    -0.626048     0.000000     0.175653     0.464397
                        8     0.638212     0.627272     0.260714     0.000000     0.038536    -0.032218
                        9     0.000000     0.000000     0.000000     0.672240     0.000000     0.000000
  

                       m=       7            8            9
  Eigenvalues (au)=          -0.000002    -0.000004    -0.000023
  Frequencies (cm^-1)=       -4.923029    -7.352896   -18.521674
  Eigenvectors=
                        1     0.000000    -0.010771     0.000000
                        2     0.000000    -0.747463     0.000000
                        3    -0.944422     0.000000    -0.014510
                        4     0.000000     0.018364     0.000000
                        5     0.000000     0.309889     0.000000
                        6    -0.219741     0.000000    -0.715177
                        7     0.000000     0.464858     0.000000
                        8     0.000000    -0.358777     0.000000
                        9    -0.244503     0.000000     0.698793
  

 Product species     2 is an atom


 ********** Saddle point or starting point

 Geometry in mass-scaled cartesians (bohrs):

                 x               y               z
   1       -1.578765E-10    9.736531E-01    0.000000E+00
   2        1.366643E+00    3.487198E-02    0.000000E+00
   3       -5.908779E-01   -1.273525E+00    0.000000E+00
   4       -7.757653E-01   -2.640194E+00    0.000000E+00

 Potential energy=  -7.6052432735E+01 Hartree= -4.77236E+04 kcal/mol

 Derivatives in mass-scaled cartesians (au):
   1        1.534000E-07    8.038434E-09   -3.513375E-16
   2       -5.802160E-07    5.128526E-08    6.253822E-16
   3       -1.007489E-07   -1.388852E-07    9.200718E-16
   4        6.984871E-08    5.557634E-08   -1.457930E-16

 Eigenvalues and eigenvectors of hessian

                       m=       1            2            3            4            5            6
  Eigenvalues (au)=           0.953559     0.186385     0.133515     0.037170     0.031246    -0.620332
  Frequencies (cm^-1)=     3739.369666  1653.216787  1399.229438   738.282717   676.896281 -3016.038647
  Eigenvectors=
                        1     0.239322    -0.151868    -0.002846     0.000000     0.006979    -0.043261
                        2    -0.025991    -0.008863     0.362732     0.000000    -0.068989    -0.147808
                        3     0.000000     0.000000     0.000000     0.129200     0.000000     0.000000
                        4    -0.961502    -0.093006    -0.065920     0.000000     0.092196    -0.030781
                        5     0.128561    -0.479717    -0.461607     0.000000     0.579049     0.030567
                        6     0.000000     0.000000     0.000000    -0.111328     0.000000     0.000000
                        7     0.008114     0.686725     0.214277     0.000000     0.481148     0.258288
                        8    -0.030689    -0.001233    -0.265255     0.000000    -0.231358     0.891021
                        9     0.000000     0.000000     0.000000    -0.868554     0.000000     0.000000
                       10    -0.000200     0.011211    -0.136815     0.000000    -0.600982    -0.055164
                       11     0.005338     0.516102    -0.718330     0.000000    -0.072005    -0.332755
                       12     0.000000     0.000000     0.000000     0.465324     0.000000     0.000000
  

                       m=       7            8            9           10           11           12
  Eigenvalues (au)=           0.000008     0.000003     0.000001    -0.000011    -0.000012     0.000036
  Frequencies (cm^-1)=       11.044150     6.817330     3.384756   -12.412680   -13.378427    22.893071
  Eigenvectors=
                        1     0.000000    -0.206962     0.000000     0.000000     0.544513    -0.760529
                        2     0.000000     0.091805     0.000000     0.000000    -0.729928    -0.547578
                        3     0.153685     0.000000    -0.964436    -0.171906     0.000000     0.000000
                        4     0.000000     0.007172     0.000000     0.000000     0.138836    -0.183697
                        5     0.000000     0.408724     0.000000     0.000000    -0.169414    -0.090969
                        6    -0.702670     0.000000    -0.244334     0.658910     0.000000     0.000000
                        7     0.000000     0.376454     0.000000     0.000000     0.151939    -0.139317
                        8     0.000000    -0.143704     0.000000     0.000000    -0.189156    -0.157548
                        9     0.412434     0.000000    -0.096495     0.257294     0.000000     0.000000
                       10     0.000000     0.762151     0.000000     0.000000     0.165524    -0.093061
                       11     0.000000    -0.195931     0.000000     0.000000    -0.190974    -0.163836
                       12     0.559047     0.000000     0.029212     0.685628     0.000000     0.000000
  


 Set up to take first step off saddle point

 Vector for initial step off saddle point=
                                    -0.0433  -0.1478   0.0000  -0.0308   0.0306   0.0000   0.2583   0.8910   0.0000
                                    -0.0552  -0.3328   0.0000

 Second order correction for vector=
                                     0.0882   0.1333   0.0000   0.0127   0.1659   0.0000  -0.2221  -0.1338   0.0000
                                    -0.1416  -0.5637   0.0000


 ********** Calculate points along reaction path

      dels=          5.00000E-02
      delsv=         5.00000E-02
      delhss=        5.00000E-02
      dir=           1.00000E+00
      slm=          -8.00000E-01
      slp=           5.00000E-01

 Path followed using Page-McIver CLQA algorithm

 Take step from saddle point in reactant direction

  All quantities in atomic units, x is vector of mass-weighted coordinates,
  dx is the normalized mass-weighted gradient vector, and |dV/x| is the magnitude of the gradient
         s       V,|dV/dx|
        0.00000  4.07554E-02    x=   0.0000   0.9737   0.0000   1.3666   0.0349   0.0000  -0.5909  -1.2735   0.0000
                                    -0.7758  -2.6402   0.0000
                 0.00000E+00   dx=  -0.0433  -0.1478   0.0000  -0.0308   0.0306   0.0000   0.2583   0.8910   0.0000
                                    -0.0552  -0.3328   0.0000
       -0.05000  3.99988E-02    x=   0.0023   0.9812   0.0000   1.3682   0.0336   0.0000  -0.6041  -1.3182   0.0000
                                    -0.7732  -2.6243   0.0000
                 2.95474E-02   dx=  -0.0478  -0.1557   0.0000  -0.0315   0.0230   0.0000   0.2695   0.8981   0.0000
                                    -0.0474  -0.3009   0.0000
       -0.10000  3.79311E-02    x=   0.0046   0.9890   0.0000   1.3698   0.0324   0.0000  -0.6175  -1.3631   0.0000
                                    -0.7708  -2.6091   0.0000
                 5.14549E-02   dx=  -0.0544  -0.1691   0.0000  -0.0311   0.0162   0.0000   0.2849   0.9069   0.0000
                                    -0.0371  -0.2495   0.0000
       -0.15000  3.50528E-02    x=   0.0074   0.9976   0.0000   1.3714   0.0316   0.0000  -0.6318  -1.4085   0.0000
                                    -0.7691  -2.5972   0.0000
                 6.16689E-02   dx=  -0.0630  -0.1908   0.0000  -0.0320   0.0116   0.0000   0.3058   0.9147   0.0000
                                    -0.0228  -0.1664   0.0000
       -0.20000  3.19600E-02    x=   0.0107   1.0075   0.0000   1.3730   0.0311   0.0000  -0.6474  -1.4543   0.0000
                                    -0.7682  -2.5903   0.0000
                 6.05623E-02   dx=  -0.0761  -0.2256   0.0000  -0.0330   0.0084   0.0000   0.3374   0.9099   0.0000
                                    -0.0012  -0.0194   0.0000
       -0.25000  2.91043E-02    x=   0.0147   1.0193   0.0000   1.3746   0.0307   0.0000  -0.6647  -1.4993   0.0000
                                    -0.7686  -2.5924   0.0000
                 5.35847E-02   dx=  -0.0925  -0.2695   0.0000  -0.0326   0.0059   0.0000   0.3734   0.8560   0.0000
                                     0.0279   0.2116   0.0000
       -0.30000  2.65826E-02    x=   0.0196   1.0333   0.0000   1.3762   0.0305   0.0000  -0.6836  -1.5405   0.0000
                                    -0.7705  -2.6064   0.0000
                 4.80204E-02   dx=  -0.1039  -0.2973   0.0000  -0.0288   0.0034   0.0000   0.3902   0.7449   0.0000
                                     0.0526   0.4360   0.0000
       -0.35000  2.42695E-02    x=   0.0248   1.0483   0.0000   1.3775   0.0304   0.0000  -0.7031  -1.5765   0.0000
                                    -0.7734  -2.6300   0.0000
                 4.47336E-02   dx=  -0.1078  -0.3038   0.0000  -0.0240   0.0009   0.0000   0.3908   0.6657   0.0000
                                     0.0628   0.5438   0.0000
       -0.40000  2.21046E-02    x=   0.0302   1.0635   0.0000   1.3787   0.0304   0.0000  -0.7226  -1.6094   0.0000
                                    -0.7766  -2.6577   0.0000
                 4.18858E-02   dx=  -0.1092  -0.3043   0.0000  -0.0208  -0.0014   0.0000   0.3903   0.6365   0.0000
                                     0.0657   0.5773   0.0000
       -0.45000  2.00804E-02    x=   0.0357   1.0787   0.0000   1.3797   0.0305   0.0000  -0.7421  -1.6413   0.0000
                                    -0.7799  -2.6865   0.0000
                 3.90933E-02   dx=  -0.1100  -0.3040   0.0000  -0.0191  -0.0036   0.0000   0.3903   0.6268   0.0000
                                     0.0668   0.5878   0.0000
       -0.50000  1.81942E-02    x=   0.0412   1.0939   0.0000   1.3807   0.0307   0.0000  -0.7617  -1.6727   0.0000
                                    -0.7832  -2.7158   0.0000
                 3.63695E-02   dx=  -0.1105  -0.3035   0.0000  -0.0182  -0.0058   0.0000   0.3904   0.6229   0.0000
                                     0.0678   0.5919   0.0000
       -0.55000  1.64419E-02    x=   0.0467   1.1090   0.0000   1.3816   0.0311   0.0000  -0.7812  -1.7039   0.0000
                                    -0.7866  -2.7453   0.0000
                 3.37415E-02   dx=  -0.1108  -0.3030   0.0000  -0.0177  -0.0081   0.0000   0.3902   0.6212   0.0000
                                     0.0690   0.5938   0.0000
       -0.60000  1.48181E-02    x=   0.0523   1.1242   0.0000   1.3825   0.0316   0.0000  -0.8007  -1.7351   0.0000
                                    -0.7901  -2.7749   0.0000
                 3.12266E-02   dx=  -0.1111  -0.3025   0.0000  -0.0174  -0.0104   0.0000   0.3897   0.6207   0.0000
                                     0.0704   0.5947   0.0000
       -0.65000  1.33171E-02    x=   0.0579   1.1393   0.0000   1.3834   0.0321   0.0000  -0.8202  -1.7662   0.0000
                                    -0.7937  -2.8046   0.0000
                 2.88344E-02   dx=  -0.1114  -0.3020   0.0000  -0.0173  -0.0127   0.0000   0.3888   0.6211   0.0000
                                     0.0722   0.5948   0.0000
       -0.70000  1.19326E-02    x=   0.0634   1.1544   0.0000   1.3843   0.0328   0.0000  -0.8396  -1.7973   0.0000
                                    -0.7973  -2.8343   0.0000
                 2.65692E-02   dx=  -0.1116  -0.3016   0.0000  -0.0173  -0.0150   0.0000   0.3873   0.6221   0.0000
                                     0.0744   0.5945   0.0000
       -0.75000  1.06581E-02    x=   0.0690   1.1694   0.0000   1.3851   0.0336   0.0000  -0.8589  -1.8284   0.0000
                                    -0.8011  -2.8640   0.0000
                 2.44330E-02   dx=  -0.1117  -0.3013   0.0000  -0.0174  -0.0174   0.0000   0.3853   0.6237   0.0000
                                     0.0770   0.5939   0.0000
       -0.80000  9.48714E-03    x=   0.0746   1.1845   0.0000   1.3860   0.0346   0.0000  -0.8781  -1.8596   0.0000
                                    -0.8050  -2.8938   0.0000
                 2.24250E-02   dx=  -0.1118  -0.3010   0.0000  -0.0175  -0.0198   0.0000   0.3827   0.6257   0.0000
                                     0.0802   0.5931   0.0000

 Take step from saddle point in product direction

  All quantities in atomic units, x is vector of mass-weighted coordinates,
  dx is the normalized mass-weighted gradient vector, and |dV/x| is the magnitude of the gradient
         s       V,|dV/dx|
        0.00000  4.07554E-02    x=   0.0000   0.9737   0.0000   1.3666   0.0349   0.0000  -0.5909  -1.2735   0.0000
                                    -0.7758  -2.6402   0.0000
                 0.00000E+00   dx=  -0.0433  -0.1478   0.0000  -0.0308   0.0306   0.0000   0.2583   0.8910   0.0000
                                    -0.0552  -0.3328   0.0000
        0.05000  3.99961E-02    x=  -0.0021   0.9664   0.0000   1.3651   0.0366   0.0000  -0.5782  -1.2291   0.0000
                                    -0.7787  -2.6575   0.0000
                 2.96903E-02   dx=   0.0386   0.1413   0.0000   0.0301  -0.0397   0.0000  -0.2461  -0.8840   0.0000
                                     0.0621   0.3607   0.0000
        0.10000  3.79187E-02    x=  -0.0040   0.9593   0.0000   1.3636   0.0386   0.0000  -0.5659  -1.1849   0.0000
                                    -0.7818  -2.6755   0.0000
                 5.16105E-02   dx=   0.0317   0.1327   0.0000   0.0303  -0.0521   0.0000  -0.2270  -0.8738   0.0000
                                     0.0704   0.3973   0.0000
        0.15000  3.50454E-02    x=  -0.0055   0.9528   0.0000   1.3622   0.0413   0.0000  -0.5547  -1.1414   0.0000
                                    -0.7854  -2.6957   0.0000
                 6.11416E-02   dx=   0.0219   0.1186   0.0000   0.0297  -0.0671   0.0000  -0.1982  -0.8554   0.0000
                                     0.0813   0.4499   0.0000
        0.20000  3.20168E-02    x=  -0.0065   0.9472   0.0000   1.3607   0.0448   0.0000  -0.5453  -1.0990   0.0000
                                    -0.7897  -2.7192   0.0000
                 5.82039E-02   dx=   0.0044   0.0910   0.0000   0.0292  -0.0883   0.0000  -0.1455  -0.8132   0.0000
                                     0.0987   0.5392   0.0000
        0.25000  2.93677E-02    x=  -0.0063   0.9434   0.0000   1.3594   0.0496   0.0000  -0.5393  -1.0598   0.0000
                                    -0.7950  -2.7483   0.0000
                 4.71601E-02   dx=  -0.0280   0.0324   0.0000   0.0267  -0.1173   0.0000  -0.0418  -0.7009   0.0000
                                     0.1268   0.6890   0.0000
        0.30000  2.72932E-02    x=  -0.0042   0.9434   0.0000   1.3584   0.0558   0.0000  -0.5396  -1.0284   0.0000
                                    -0.8019  -2.7857   0.0000
                 3.69369E-02   dx=  -0.0716  -0.0646   0.0000   0.0169  -0.1341   0.0000   0.1124  -0.4594   0.0000
                                     0.1559   0.8511   0.0000
        0.35000  2.55849E-02    x=  -0.0003   0.9481   0.0000   1.3579   0.0619   0.0000  -0.5467  -1.0094   0.0000
                                    -0.8099  -2.8296   0.0000
                 3.20938E-02   dx=  -0.0919  -0.1382   0.0000   0.0032  -0.1114   0.0000   0.1979  -0.2499   0.0000
                                     0.1648   0.9117   0.0000
        0.40000  2.40599E-02    x=   0.0042   0.9557   0.0000   1.3580   0.0665   0.0000  -0.5564  -0.9984   0.0000
                                    -0.8181  -2.8756   0.0000
                 2.90135E-02   dx=  -0.0902  -0.1700   0.0000  -0.0041  -0.0724   0.0000   0.1984  -0.1776   0.0000
                                     0.1649   0.9271   0.0000
        0.45000  2.26774E-02    x=   0.0085   0.9646   0.0000   1.3582   0.0692   0.0000  -0.5657  -0.9899   0.0000
                                    -0.8263  -2.9222   0.0000
                 2.63381E-02   dx=  -0.0843  -0.1879   0.0000  -0.0052  -0.0347   0.0000   0.1771  -0.1523   0.0000
                                     0.1638   0.9354   0.0000
        0.50000  2.14215E-02    x=   0.0126   0.9743   0.0000   1.3584   0.0701   0.0000  -0.5739  -0.9825   0.0000
                                    -0.8345  -2.9691   0.0000
                 2.39403E-02   dx=  -0.0788  -0.2011   0.0000  -0.0039  -0.0021   0.0000   0.1553  -0.1369   0.0000
                                     0.1623   0.9403   0.0000


 Sort data in file 30 so points along MEP have the reaction coordinate in ascending order.
 Also calculate the values of the reaction coordinate at the reactant and product geometries
  and shift energies so reactant v is zero.

 Summary of sorted data (all units are atomic)
     R = reactants, P = products, * = saddle point or starting geometry

         s           V               x (mass weighted)
 R   -188.45721  0.00000E+00        20.9219  57.0549   0.0000   4.7721  13.0138   0.0000 -43.8817-119.6673   0.0000
                                   -44.2392-120.6423   0.0000
 P    136.13785  1.10298E-02        10.1659  28.5687   0.0000   3.9167   7.1134   0.0000   2.0822   5.8884   0.0000
                                   -46.4977-126.8139   0.0000
 *      0.00000  4.07554E-02         0.0000   0.9737   0.0000   1.3666   0.0349   0.0000  -0.5909  -1.2735   0.0000
                                    -0.7758  -2.6402   0.0000
  
       -0.80000  9.48714E-03         0.0746   1.1845   0.0000   1.3860   0.0346   0.0000  -0.8781  -1.8596   0.0000
                                    -0.8050  -2.8938   0.0000
       -0.75000  1.06581E-02         0.0690   1.1694   0.0000   1.3851   0.0336   0.0000  -0.8589  -1.8284   0.0000
                                    -0.8011  -2.8640   0.0000
       -0.70000  1.19326E-02         0.0634   1.1544   0.0000   1.3843   0.0328   0.0000  -0.8396  -1.7973   0.0000
                                    -0.7973  -2.8343   0.0000
       -0.65000  1.33171E-02         0.0579   1.1393   0.0000   1.3834   0.0321   0.0000  -0.8202  -1.7662   0.0000
                                    -0.7937  -2.8046   0.0000
       -0.60000  1.48181E-02         0.0523   1.1242   0.0000   1.3825   0.0316   0.0000  -0.8007  -1.7351   0.0000
                                    -0.7901  -2.7749   0.0000
       -0.55000  1.64419E-02         0.0467   1.1090   0.0000   1.3816   0.0311   0.0000  -0.7812  -1.7039   0.0000
                                    -0.7866  -2.7453   0.0000
       -0.50000  1.81942E-02         0.0412   1.0939   0.0000   1.3807   0.0307   0.0000  -0.7617  -1.6727   0.0000
                                    -0.7832  -2.7158   0.0000
       -0.45000  2.00804E-02         0.0357   1.0787   0.0000   1.3797   0.0305   0.0000  -0.7421  -1.6413   0.0000
                                    -0.7799  -2.6865   0.0000
       -0.40000  2.21046E-02         0.0302   1.0635   0.0000   1.3787   0.0304   0.0000  -0.7226  -1.6094   0.0000
                                    -0.7766  -2.6577   0.0000
       -0.35000  2.42695E-02         0.0248   1.0483   0.0000   1.3775   0.0304   0.0000  -0.7031  -1.5765   0.0000
                                    -0.7734  -2.6300   0.0000
       -0.30000  2.65826E-02         0.0196   1.0333   0.0000   1.3762   0.0305   0.0000  -0.6836  -1.5405   0.0000
                                    -0.7705  -2.6064   0.0000
       -0.25000  2.91043E-02         0.0147   1.0193   0.0000   1.3746   0.0307   0.0000  -0.6647  -1.4993   0.0000
                                    -0.7686  -2.5924   0.0000
       -0.20000  3.19600E-02         0.0107   1.0075   0.0000   1.3730   0.0311   0.0000  -0.6474  -1.4543   0.0000
                                    -0.7682  -2.5903   0.0000
       -0.15000  3.50528E-02         0.0074   0.9976   0.0000   1.3714   0.0316   0.0000  -0.6318  -1.4085   0.0000
                                    -0.7691  -2.5972   0.0000
       -0.10000  3.79311E-02         0.0046   0.9890   0.0000   1.3698   0.0324   0.0000  -0.6175  -1.3631   0.0000
                                    -0.7708  -2.6091   0.0000
       -0.05000  3.99988E-02         0.0023   0.9812   0.0000   1.3682   0.0336   0.0000  -0.6041  -1.3182   0.0000
                                    -0.7732  -2.6243   0.0000
        0.05000  3.99961E-02        -0.0021   0.9664   0.0000   1.3651   0.0366   0.0000  -0.5782  -1.2291   0.0000
                                    -0.7787  -2.6575   0.0000
        0.10000  3.79187E-02        -0.0040   0.9593   0.0000   1.3636   0.0386   0.0000  -0.5659  -1.1849   0.0000
                                    -0.7818  -2.6755   0.0000
        0.15000  3.50454E-02        -0.0055   0.9528   0.0000   1.3622   0.0413   0.0000  -0.5547  -1.1414   0.0000
                                    -0.7854  -2.6957   0.0000
        0.20000  3.20168E-02        -0.0065   0.9472   0.0000   1.3607   0.0448   0.0000  -0.5453  -1.0990   0.0000
                                    -0.7897  -2.7192   0.0000
        0.25000  2.93677E-02        -0.0063   0.9434   0.0000   1.3594   0.0496   0.0000  -0.5393  -1.0598   0.0000
                                    -0.7950  -2.7483   0.0000
        0.30000  2.72932E-02        -0.0042   0.9434   0.0000   1.3584   0.0558   0.0000  -0.5396  -1.0284   0.0000
                                    -0.8019  -2.7857   0.0000
        0.35000  2.55849E-02        -0.0003   0.9481   0.0000   1.3579   0.0619   0.0000  -0.5467  -1.0094   0.0000
                                    -0.8099  -2.8296   0.0000
        0.40000  2.40599E-02         0.0042   0.9557   0.0000   1.3580   0.0665   0.0000  -0.5564  -0.9984   0.0000
                                    -0.8181  -2.8756   0.0000
        0.45000  2.26774E-02         0.0085   0.9646   0.0000   1.3582   0.0692   0.0000  -0.5657  -0.9899   0.0000
                                    -0.8263  -2.9222   0.0000
        0.50000  2.14215E-02         0.0126   0.9743   0.0000   1.3584   0.0701   0.0000  -0.5739  -0.9825   0.0000
                                    -0.8345  -2.9691   0.0000


 Summary of MEP data
     R = reactants, P = products, * = saddle point or starting geometry

  Cartesian coordinates, x

        s (au)   V (kcal/mol)        x (Angstroms)
 R   -188.45721  0.00000E+00
 P    136.13785  6.92130E+00
 *      0.00000  2.55744E+01         0.0000   0.1729   0.0000   0.9670   0.0247   0.0000  -0.4181  -0.9012   0.0000
                                    -0.5489  -1.8682   0.0000
       -0.80000  5.95327E+00         0.0132   0.2104   0.0000   0.9808   0.0245   0.0000  -0.6214  -1.3159   0.0000
                                    -0.5697  -2.0477   0.0000
       -0.75000  6.68803E+00         0.0123   0.2077   0.0000   0.9801   0.0238   0.0000  -0.6078  -1.2938   0.0000
                                    -0.5669  -2.0266   0.0000
       -0.70000  7.48781E+00         0.0113   0.2050   0.0000   0.9795   0.0232   0.0000  -0.5941  -1.2718   0.0000
                                    -0.5642  -2.0056   0.0000
       -0.65000  8.35663E+00         0.0103   0.2024   0.0000   0.9789   0.0227   0.0000  -0.5804  -1.2498   0.0000
                                    -0.5616  -1.9846   0.0000
       -0.60000  9.29853E+00         0.0093   0.1997   0.0000   0.9783   0.0223   0.0000  -0.5666  -1.2278   0.0000
                                    -0.5591  -1.9636   0.0000
       -0.55000  1.03174E+01         0.0083   0.1970   0.0000   0.9776   0.0220   0.0000  -0.5528  -1.2057   0.0000
                                    -0.5566  -1.9426   0.0000
       -0.50000  1.14170E+01         0.0073   0.1943   0.0000   0.9770   0.0218   0.0000  -0.5390  -1.1836   0.0000
                                    -0.5542  -1.9217   0.0000
       -0.45000  1.26006E+01         0.0063   0.1916   0.0000   0.9763   0.0216   0.0000  -0.5251  -1.1614   0.0000
                                    -0.5518  -1.9010   0.0000
       -0.40000  1.38708E+01         0.0054   0.1889   0.0000   0.9756   0.0215   0.0000  -0.5113  -1.1389   0.0000
                                    -0.5495  -1.8806   0.0000
       -0.35000  1.52294E+01         0.0044   0.1862   0.0000   0.9748   0.0215   0.0000  -0.4975  -1.1156   0.0000
                                    -0.5472  -1.8610   0.0000
       -0.30000  1.66809E+01         0.0035   0.1835   0.0000   0.9738   0.0216   0.0000  -0.4837  -1.0901   0.0000
                                    -0.5452  -1.8443   0.0000
       -0.25000  1.82632E+01         0.0026   0.1811   0.0000   0.9727   0.0218   0.0000  -0.4704  -1.0609   0.0000
                                    -0.5439  -1.8344   0.0000
       -0.20000  2.00552E+01         0.0019   0.1789   0.0000   0.9715   0.0220   0.0000  -0.4581  -1.0291   0.0000
                                    -0.5436  -1.8329   0.0000
       -0.15000  2.19959E+01         0.0013   0.1772   0.0000   0.9704   0.0224   0.0000  -0.4471  -0.9967   0.0000
                                    -0.5442  -1.8378   0.0000
       -0.10000  2.38021E+01         0.0008   0.1757   0.0000   0.9693   0.0229   0.0000  -0.4369  -0.9646   0.0000
                                    -0.5454  -1.8462   0.0000
       -0.05000  2.50996E+01         0.0004   0.1743   0.0000   0.9681   0.0237   0.0000  -0.4274  -0.9328   0.0000
                                    -0.5471  -1.8570   0.0000
        0.05000  2.50979E+01        -0.0004   0.1717   0.0000   0.9660   0.0259   0.0000  -0.4092  -0.8698   0.0000
                                    -0.5510  -1.8805   0.0000
        0.10000  2.37943E+01        -0.0007   0.1704   0.0000   0.9649   0.0273   0.0000  -0.4004  -0.8385   0.0000
                                    -0.5532  -1.8932   0.0000
        0.15000  2.19913E+01        -0.0010   0.1692   0.0000   0.9639   0.0292   0.0000  -0.3925  -0.8076   0.0000
                                    -0.5558  -1.9075   0.0000
        0.20000  2.00908E+01        -0.0011   0.1682   0.0000   0.9629   0.0317   0.0000  -0.3859  -0.7777   0.0000
                                    -0.5588  -1.9241   0.0000
        0.25000  1.84285E+01        -0.0011   0.1676   0.0000   0.9619   0.0351   0.0000  -0.3816  -0.7499   0.0000
                                    -0.5626  -1.9447   0.0000
        0.30000  1.71267E+01        -0.0008   0.1676   0.0000   0.9612   0.0395   0.0000  -0.3818  -0.7277   0.0000
                                    -0.5674  -1.9712   0.0000
        0.35000  1.60548E+01        -0.0001   0.1684   0.0000   0.9609   0.0438   0.0000  -0.3868  -0.7143   0.0000
                                    -0.5731  -2.0023   0.0000
        0.40000  1.50978E+01         0.0007   0.1698   0.0000   0.9609   0.0471   0.0000  -0.3937  -0.7065   0.0000
                                    -0.5789  -2.0348   0.0000
        0.45000  1.42303E+01         0.0015   0.1713   0.0000   0.9611   0.0490   0.0000  -0.4003  -0.7005   0.0000
                                    -0.5847  -2.0678   0.0000
        0.50000  1.34422E+01         0.0022   0.1731   0.0000   0.9612   0.0496   0.0000  -0.4061  -0.6952   0.0000
                                    -0.5905  -2.1010   0.0000


  Frequencies

        s (au)                      frequencies (cm^-1)
 R   -188.45721                     3608.51  4657.17
 P    136.13785                     3945.71  3812.58  1799.44
 *      0.00000                     3739.37  1653.22  1399.23   738.28   676.90 -3016.04
  
       -0.80000                     4592.19  3636.01   592.82   322.14  -407.69
       -0.75000                     4573.50  3637.33   611.67   324.52  -418.75
       -0.70000                     4550.71  3638.79   632.17   325.55  -430.53
       -0.65000                     4522.97  3640.43   654.22   325.56  -445.72
       -0.60000                     4489.18  3642.29   678.68   323.69  -460.52
       -0.55000                     4447.96  3644.41   705.61   320.26  -475.69
       -0.50000                     4397.43  3646.87   734.88   316.45  -490.49
       -0.45000                     4334.70  3649.83   767.07   313.83  -503.35
       -0.40000                     4253.30  3653.49   802.80   318.81  -509.44
       -0.35000                     4131.02  3658.32   845.21   354.84  -487.60
       -0.30000                     3874.71  3664.18   903.99   466.00  -354.02
       -0.25000                     3677.68  3298.20   997.94   630.38   370.01
       -0.20000                     3688.46  2593.77  1121.79   753.31   670.21
       -0.15000                     3700.61  2093.80  1234.73   813.40   812.17
       -0.10000                     3713.20  1804.32  1325.47   850.13   817.99
       -0.05000                     3726.37  1660.33  1389.88   817.29   769.35
        0.05000                     3752.63  1722.86  1384.48   637.99   558.97
        0.10000                     3766.38  1811.41  1401.51   521.97   426.28
        0.15000                     3782.04  1920.35  1468.74   372.28   270.24
        0.20000                     3800.06  2131.60  1579.56   120.83  -148.01
        0.25000                     3821.68  2641.87  1667.58  -331.48  -431.30
        0.30000                     3848.43  3341.40  1704.87  -420.58  -578.73
        0.35000                     3878.85  3655.32  1722.36  -445.23  -625.61
        0.40000                     3903.34  3733.79  1735.99  -434.15  -617.41
        0.45000                     3922.25  3769.13  1746.87  -414.10  -595.73
        0.50000                     3938.04  3791.18  1754.97  -393.08  -571.54
 drdy_NWChem has finished correctly, bye !

 Task  times  cpu:      252.4s     wall:      288.2s
