refund: UserID = kowalski
refund: SLURM Job ID = 2679519
refund: Number of nodes          = 1
refund: Number of cores per node = 16
refund: Number of cores          = 16
refund: Amount of time requested = 0:30
refund: Directory = /home/kowalski/NWCHEM_GITHUB/nwchem_2018_clean/QA/chem_library_tests/Be_FCI_631G
 
Processor list
 
g1010
 
 argument  1 = /home/kowalski/NWCHEM_GITHUB/nwchem_2018_clean/QA/chem_library_tests/Be_FCI_631G/be_6-31g_fci.nw
All connections between all procs tested: SUCCESS
 


============================== echo of input deck ==============================
start be_6-31g_fci

echo

geometry units bohr
symmetry c1
  be  0.0 0.0 0.0
end

basis
 * library 6-31g
end

scf
thresh 1.0e-10
tol2e 1.0e-11
singlet
rhf
end

tce
2eorb
2emet 13
tilesize 1
ccsd
thresh 1.0e-6
end

set tce:print_integrals T
set tce:qorb  9
set tce:qela  2
set tce:qelb  2

task tce energy

mcscf
  active   9
  actelec  4
  multiplicity 1
end

task mcscf
================================================================================


                                         
                                         
 
 
              Northwest Computational Chemistry Package (NWChem) 6.8
              ------------------------------------------------------
 
 
                    Environmental Molecular Sciences Laboratory
                       Pacific Northwest National Laboratory
                                Richland, WA 99352
 
                              Copyright (c) 1994-2018
                       Pacific Northwest National Laboratory
                            Battelle Memorial Institute
 
             NWChem is an open-source computational chemistry package
                        distributed under the terms of the
                      Educational Community License (ECL) 2.0
             A copy of the license is included with this distribution
                              in the LICENSE.TXT file
 
                                  ACKNOWLEDGMENT
                                  --------------

            This software and its documentation were developed at the
            EMSL at Pacific Northwest National Laboratory, a multiprogram
            national laboratory, operated for the U.S. Department of Energy
            by Battelle under Contract Number DE-AC05-76RL01830. Support
            for this work was provided by the Department of Energy Office
            of Biological and Environmental Research, Office of Basic
            Energy Sciences, and the Office of Advanced Scientific Computing.


           Job information
           ---------------

    hostname        = g1010
    program         = /home/kowalski/NWCHEM_GITHUB/nwchem_2018_clean/bin/LINUX64/nwchem
    date            = Thu Oct 18 10:07:13 2018

    compiled        = Wed_Oct_17_13:24:31_2018
    source          = /home/kowalski/NWCHEM_GITHUB/nwchem_2018_clean
    nwchem branch   = Development
    nwchem revision = nwchem_on_git-600-g8e3a403
    ga revision     = 5.6.5
    use scalapack   = T
    input           = /home/kowalski/NWCHEM_GITHUB/nwchem_2018_clean/QA/chem_library_tests/Be_FCI_631G/be_6-31g_fci.nw
    prefix          = be_6-31g_fci.
    data base       = ./be_6-31g_fci.db
    status          = startup
    nproc           =       16
    time left       =     -1s



           Memory information
           ------------------

    heap     =   13107198 doubles =    100.0 Mbytes
    stack    =   13107195 doubles =    100.0 Mbytes
    global   =   26214400 doubles =    200.0 Mbytes (distinct from heap & stack)
    total    =   52428793 doubles =    400.0 Mbytes
    verify   = yes
    hardfail = no 


           Directory information
           ---------------------
 
  0 permanent = .
  0 scratch   = .
 
 
 
 
                                NWChem Input Module
                                -------------------
 
 
 
 
                             Geometry "geometry" -> ""
                             -------------------------
 
 Output coordinates in a.u. (scale by  1.000000000 to convert to a.u.)
 
  No.       Tag          Charge          X              Y              Z
 ---- ---------------- ---------- -------------- -------------- --------------
    1 be                   4.0000     0.00000000     0.00000000     0.00000000
 
      Atomic Mass 
      ----------- 
 
      be                 9.012180
 

 Effective nuclear repulsion energy (a.u.)       0.0000000000

            Nuclear Dipole moment (a.u.) 
            ----------------------------
        X                 Y               Z
 ---------------- ---------------- ----------------
     0.0000000000     0.0000000000     0.0000000000
 
 
            XYZ format geometry
            -------------------
     1
 geometry
 be                    0.00000000     0.00000000     0.00000000
 
  library name resolved from: environment
  library file name is: <
 /home/scicons/cascade/apps/nwchem-6.8.1_rhel7/src/basis/libraries/>
  


 Summary of "ao basis" -> "" (cartesian)
 ------------------------------------------------------------------------------
       Tag                 Description            Shells   Functions and Types
 ---------------- ------------------------------  ------  ---------------------
 *                           6-31g                    on all atoms 


                      Basis "ao basis" -> "ao basis" (cartesian)
                      -----
  be (Beryllium)
  --------------
            Exponent  Coefficients 
       -------------- ---------------------------------------------------------
  1 S  1.26458570E+03  0.001945
  1 S  1.89936810E+02  0.014835
  1 S  4.31590890E+01  0.072091
  1 S  1.20986630E+01  0.237154
  1 S  3.80632320E+00  0.469199
  1 S  1.27289030E+00  0.356520
 
  2 S  3.19646310E+00 -0.112649
  2 S  7.47813300E-01 -0.229506
  2 S  2.19966300E-01  1.186917
 
  3 P  3.19646310E+00  0.055980
  3 P  7.47813300E-01  0.261551
  3 P  2.19966300E-01  0.793972
 
  4 S  8.23099000E-02  1.000000
 
  5 P  8.23099000E-02  1.000000
 


 Summary of "ao basis" -> "ao basis" (cartesian)
 ------------------------------------------------------------------------------
       Tag                 Description            Shells   Functions and Types
 ---------------- ------------------------------  ------  ---------------------
 be                          6-31g                   5        9   3s2p


                                 NWChem SCF Module
                                 -----------------
 
 

  ao basis        = "ao basis"
  functions       =     9
  atoms           =     1
  closed shells   =     2
  open shells     =     0
  charge          =   0.00
  wavefunction    = RHF 
  input vectors   = atomic
  output vectors  = ./be_6-31g_fci.movecs
  use symmetry    = F
  symmetry adapt  = F


 Summary of "ao basis" -> "ao basis" (cartesian)
 ------------------------------------------------------------------------------
       Tag                 Description            Shells   Functions and Types
 ---------------- ------------------------------  ------  ---------------------
 be                          6-31g                   5        9   3s2p



 Forming initial guess at       0.5s

 
      Superposition of Atomic Density Guess
      -------------------------------------
 
 Sum of atomic energies:         -14.56676403
 
      Non-variational initial energy
      ------------------------------

 Total energy =     -14.566764
 1-e energy   =     -19.117157
 2-e energy   =       4.550393
 HOMO         =      -0.301295
 LUMO         =       0.082435
 

 Starting SCF solution at       0.6s



 ----------------------------------------------
         Quadratically convergent ROHF

 Convergence threshold     :          1.000E-10
 Maximum no. of iterations :           30
 Final Fock-matrix accuracy:          1.000E-11
 ----------------------------------------------


              iter       energy          gnorm     gmax       time
             ----- ------------------- --------- --------- --------
                 1      -14.5667640335  1.40D-07  1.39D-07      0.0
                 2      -14.5667640335  2.38D-15  1.35D-15      0.0


       Final RHF  results 
       ------------------ 

         Total SCF energy =    -14.566764033507
      One-electron energy =    -19.117156281519
      Two-electron energy =      4.550392248012
 Nuclear repulsion energy =      0.000000000000

        Time for solution =      0.0s


             Final eigenvalues
             -----------------

              1      
    1   -4.7069
    2   -0.3013
    3    0.0824
    4    0.0824
    5    0.0824
    6    0.4398
    7    0.4649
    8    0.4649
    9    0.4649
 
                       ROHF Final Molecular Orbital Analysis
                       -------------------------------------
 
 Vector    2  Occ=2.000000D+00  E=-3.012954D-01
              MO Center= -2.1D-18,  4.1D-16,  2.2D-16, r^2= 2.1D+00
   Bfn.  Coefficient  Atom+Function         Bfn.  Coefficient  Atom+Function  
  ----- ------------  ---------------      ----- ------------  ---------------
     6      0.760980  1 Be s                  2      0.288767  1 Be s          
     1     -0.222660  1 Be s          
 
 Vector    3  Occ=0.000000D+00  E= 8.243534D-02
              MO Center=  1.0D-16, -4.1D-17,  1.1D-18, r^2= 3.4D+00
   Bfn.  Coefficient  Atom+Function         Bfn.  Coefficient  Atom+Function  
  ----- ------------  ---------------      ----- ------------  ---------------
     7      0.749027  1 Be px                 8     -0.291530  1 Be py         
     3      0.246153  1 Be px         
 
 Vector    4  Occ=0.000000D+00  E= 8.243534D-02
              MO Center= -8.6D-17, -2.2D-16,  4.2D-17, r^2= 3.4D+00
   Bfn.  Coefficient  Atom+Function         Bfn.  Coefficient  Atom+Function  
  ----- ------------  ---------------      ----- ------------  ---------------
     8      0.736920  1 Be py                 7      0.288256  1 Be px         
     4      0.242174  1 Be py         
 
 Vector    5  Occ=0.000000D+00  E= 8.243534D-02
              MO Center= -1.3D-17, -4.0D-17, -2.4D-16, r^2= 3.4D+00
   Bfn.  Coefficient  Atom+Function         Bfn.  Coefficient  Atom+Function  
  ----- ------------  ---------------      ----- ------------  ---------------
     9      0.791255  1 Be pz                 5      0.260030  1 Be pz         
 
 Vector    6  Occ=0.000000D+00  E= 4.397543D-01
              MO Center= -5.5D-17, -1.3D-15, -3.4D-16, r^2= 3.8D+00
   Bfn.  Coefficient  Atom+Function         Bfn.  Coefficient  Atom+Function  
  ----- ------------  ---------------      ----- ------------  ---------------
     2      2.017245  1 Be s                  6     -1.898320  1 Be s          
 
 Vector    7  Occ=0.000000D+00  E= 4.649310D-01
              MO Center=  5.1D-16,  4.8D-16,  5.4D-16, r^2= 3.0D+00
   Bfn.  Coefficient  Atom+Function         Bfn.  Coefficient  Atom+Function  
  ----- ------------  ---------------      ----- ------------  ---------------
     5      0.808668  1 Be pz                 3      0.760118  1 Be px         
     4      0.713512  1 Be py                 9     -0.661400  1 Be pz         
     7     -0.621692  1 Be px                 8     -0.583573  1 Be py         
 
 Vector    8  Occ=0.000000D+00  E= 4.649310D-01
              MO Center=  1.0D-16,  3.8D-16, -4.3D-16, r^2= 3.0D+00
   Bfn.  Coefficient  Atom+Function         Bfn.  Coefficient  Atom+Function  
  ----- ------------  ---------------      ----- ------------  ---------------
     5      0.974934  1 Be pz                 4     -0.858331  1 Be py         
     9     -0.797388  1 Be pz                 8      0.702019  1 Be py         
     3     -0.231501  1 Be px                 7      0.189342  1 Be px         
 
 Vector    9  Occ=0.000000D+00  E= 4.649310D-01
              MO Center= -5.4D-16,  3.6D-16,  1.9D-16, r^2= 3.0D+00
   Bfn.  Coefficient  Atom+Function         Bfn.  Coefficient  Atom+Function  
  ----- ------------  ---------------      ----- ------------  ---------------
     3      1.053304  1 Be px                 7     -0.861486  1 Be px         
     4     -0.703556  1 Be py                 8      0.575430  1 Be py         
     5     -0.369299  1 Be pz                 9      0.302046  1 Be pz         
 

 center of mass
 --------------
 x =   0.00000000 y =   0.00000000 z =   0.00000000

 moments of inertia (a.u.)
 ------------------
           0.000000000000           0.000000000000           0.000000000000
           0.000000000000           0.000000000000           0.000000000000
           0.000000000000           0.000000000000           0.000000000000
 
  Mulliken analysis of the total density
  --------------------------------------

    Atom       Charge   Shell Charges
 -----------   ------   -------------------------------------------------------
    1 Be   4     4.00   2.00  0.53  0.00  1.47  0.00
 
       Multipole analysis of the density wrt the origin
       ------------------------------------------------
 
     L   x y z        total         open         nuclear
     -   - - -        -----         ----         -------
     0   0 0 0     -0.000000      0.000000      4.000000
 
     1   1 0 0      0.000000      0.000000      0.000000
     1   0 1 0     -0.000000      0.000000      0.000000
     1   0 0 1     -0.000000      0.000000      0.000000
 
     2   2 0 0     -5.249721      0.000000      0.000000
     2   1 1 0      0.000000      0.000000      0.000000
     2   1 0 1      0.000000      0.000000      0.000000
     2   0 2 0     -5.249721      0.000000      0.000000
     2   0 1 1     -0.000000      0.000000      0.000000
     2   0 0 2     -5.249721      0.000000      0.000000
 
 ------------------------------------
     Number of active orbitals      9
     Number of active alpha electrons      2
     Number of active beta electrons       2
 ------------------------------------
                   NWChem Extensible Many-Electron Theory Module
                   ---------------------------------------------
 
              ======================================================
                   This portion of the program was automatically
                  generated by a Tensor Contraction Engine (TCE).
                  The development of this portion of the program
                 and TCE was supported by US Department of Energy,
                Office of Science, Office of Basic Energy Science.
                      TCE is a product of Battelle and PNNL.
              Please cite: S.Hirata, J.Phys.Chem.A 107, 9887 (2003).
              ======================================================
 
            General Information
            -------------------
      Number of processors :    16
         Wavefunction type : Restricted Hartree-Fock
          No. of electrons :     4
           Alpha electrons :     2
            Beta electrons :     2
           No. of orbitals :    18
            Alpha orbitals :     9
             Beta orbitals :     9
        Alpha frozen cores :     0
         Beta frozen cores :     0
     Alpha frozen virtuals :     0
      Beta frozen virtuals :     0
         Spin multiplicity : singlet 
    Number of AO functions :     9
       Number of AO shells :     5
        Use of symmetry is : off
      Symmetry adaption is : off
         Schwarz screening : 0.10D-10
 
          Correlation Information
          -----------------------
          Calculation type : Coupled-cluster singles & doubles                           
   Perturbative correction : none                                                        
            Max iterations :      100
        Residual threshold : 0.10D-05
     T(0) DIIS level shift : 0.00D+00
     L(0) DIIS level shift : 0.00D+00
     T(1) DIIS level shift : 0.00D+00
     L(1) DIIS level shift : 0.00D+00
     T(R) DIIS level shift : 0.00D+00
     T(I) DIIS level shift : 0.00D+00
   CC-T/L Amplitude update :  5-th order DIIS
                I/O scheme : Global Array Library
        L-threshold :  0.10D-05
        EOM-threshold :  0.10D-05
 no EOMCCSD initial starts read in
 TCE RESTART OPTIONS
 READ_INT:   F
 WRITE_INT:  F
 READ_TA:    F
 WRITE_TA:   F
 READ_XA:    F
 WRITE_XA:   F
 READ_IN3:   F
 WRITE_IN3:  F
 SLICE:      F
 D4D5:       F
 
            Memory Information
            ------------------
          Available GA space size is     419430319 doubles
          Available MA space size is      26213460 doubles
 
 Maximum block size supplied by input
 Maximum block size         1 doubles

 tile_dim =      1

 Block   Spin    Irrep     Size     Offset   Alpha
 -------------------------------------------------
   1    alpha     a      1 doubles       0       1
   2    alpha     a      1 doubles       1       2
   3    beta      a      1 doubles       2       1
   4    beta      a      1 doubles       3       2
   5    alpha     a      1 doubles       4       5
   6    alpha     a      1 doubles       5       6
   7    alpha     a      1 doubles       6       7
   8    alpha     a      1 doubles       7       8
   9    alpha     a      1 doubles       8       9
  10    alpha     a      1 doubles       9      10
  11    alpha     a      1 doubles      10      11
  12    beta      a      1 doubles      11       5
  13    beta      a      1 doubles      12       6
  14    beta      a      1 doubles      13       7
  15    beta      a      1 doubles      14       8
  16    beta      a      1 doubles      15       9
  17    beta      a      1 doubles      16      10
  18    beta      a      1 doubles      17      11

 Global array virtual files algorithm will be used

 Parallel file system coherency ......... OK
 
 Fock matrix recomputed
 1-e file size   =               81
 1-e file name   = ./be_6-31g_fci.f1
 Cpu & wall time / sec            0.0            0.0
 4-electron integrals stored in orbital form
 
 v2    file size   =             1035
 4-index algorithm nr.  13 is used
 imaxsize =       30
 imaxsize ichop =        0
 begin_one_electron_integrals
    1    1        -7.9405042813
    2    1         0.2066373870
    6    1         0.1796596257
    1    2         0.2066373870
    2    2        -1.6180738595
    6    2        -0.4321776948
    3    3        -1.1962837827
    7    3        -0.1681257929
    8    3        -0.0385495604
    9    3        -0.4534687252
    4    4        -1.1962837827
    7    4        -0.2885288254
    8    4         0.3828816192
    9    4         0.0744245801
    5    5        -1.1962837827
    7    5        -0.3519532216
    8    5        -0.2954688353
    9    5         0.1556063389
    1    6         0.1796596257
    2    6        -0.4321776948
    6    6        -0.9545689719
    3    7        -0.1681257929
    4    7        -0.2885288254
    5    7        -0.3519532216
    7    7        -1.3410307991
    3    8        -0.0385495604
    4    8         0.3828816192
    5    8        -0.2954688353
    8    8        -1.3410307991
    3    9        -0.4534687252
    4    9         0.0744245801
    5    9         0.1556063389
    9    9        -1.3410307991
 end_one_electron_integrals
 begin_two_electron_integrals
    1    1    1    1        2.2713064900
    2    1    1    1       -0.1999691549
    2    1    2    1        0.0283882044
    3    1    3    1        0.0033008617
    4    1    4    1        0.0033008617
    5    1    5    1        0.0033008617
    6    1    1    1       -0.1739863238
    6    1    2    1        0.0238700855
    6    1    6    1        0.0206775456
    6    1    2    2       -0.0056300446
    6    1    3    3       -0.0011819772
    6    1    4    4       -0.0011819772
    6    1    5    5       -0.0011819772
    7    1    3    1        0.0032432157
    7    1    4    1        0.0055658398
    7    1    5    1        0.0067893224
    7    1    7    1        0.0269900982
    7    1    3    2        0.0054097994
    7    1    4    2        0.0092840191
    7    1    5    2        0.0113248319
    7    1    6    3        0.0021877440
    7    1    6    4        0.0037544936
    7    1    6    5        0.0045798063
    8    1    3    1        0.0007436369
    8    1    4    1       -0.0073859440
    8    1    5    1        0.0056997154
    8    1    8    1        0.0269900982
    8    1    3    2        0.0012404128
    8    1    4    2       -0.0123200178
    8    1    5    2        0.0095073285
    8    1    6    3        0.0005016278
    8    1    6    4       -0.0049822634
    8    1    6    5        0.0038448008
    9    1    3    1        0.0087475983
    9    1    4    1       -0.0014356808
    9    1    5    1       -0.0030017103
    9    1    9    1        0.0269900982
    9    1    3    2        0.0145913058
    9    1    4    2       -0.0023947667
    9    1    5    2       -0.0050069598
    9    1    6    3        0.0059007811
    9    1    6    4       -0.0009684530
    9    1    6    5       -0.0020248341
    2    2    1    1        0.4953477445
    2    2    2    1       -0.0066682321
    2    2    2    2        0.3544711885
    3    2    3    1        0.0065981816
    3    2    3    2        0.0630349977
    4    2    4    1        0.0065981816
    4    2    4    2        0.0630349977
    5    2    5    1        0.0065981816
    5    2    5    2        0.0630349977
    6    2    1    1        0.1913426750
    6    2    2    1       -0.0055867873
    6    2    6    1       -0.0047247463
    6    2    2    2        0.0733624302
    6    2    6    2        0.0476883741
    6    2    3    3        0.0445450181
    6    2    4    4        0.0445450181
    6    2    5    5        0.0445450181
    7    2    3    1        0.0023344068
    7    2    4    1        0.0040061887
    7    2    5    1        0.0048868290
    7    2    7    1        0.0166308367
    7    2    3    2        0.0098721624
    7    2    4    2        0.0169420966
    7    2    5    2        0.0206663077
    7    2    7    2        0.0316916959
    7    2    6    3        0.0055504578
    7    2    6    4        0.0095254098
    7    2    6    5        0.0116192851
    8    2    3    1        0.0005352561
    8    2    4    1       -0.0053162661
    8    2    5    1        0.0041025499
    8    2    8    1        0.0166308367
    8    2    3    2        0.0022635880
    8    2    4    2       -0.0224823893
    8    2    5    2        0.0173496064
    8    2    8    2        0.0316916959
    8    2    6    3        0.0012726644
    8    2    6    4       -0.0126403465
    8    2    6    5        0.0097545254
    9    2    3    1        0.0062963598
    9    2    4    1       -0.0010333765
    9    2    5    1       -0.0021605757
    9    2    9    1        0.0166308367
    9    2    3    2        0.0266271869
    9    2    4    2       -0.0043701298
    9    2    5    2       -0.0091370338
    9    2    9    2        0.0316916959
    9    2    6    3        0.0149706895
    9    2    6    4       -0.0024570322
    9    2    6    5       -0.0051371441
    3    3    1    1        0.3670601614
    3    3    2    1       -0.0012558055
    3    3    2    2        0.3054673302
    3    3    3    3        0.2966816205
    4    3    4    3        0.0166658252
    5    3    5    3        0.0166658252
    6    3    3    1        0.0024846654
    6    3    3    2       -0.0063594926
    6    3    6    3        0.0204245887
    7    3    1    1        0.0632580873
    7    3    2    1       -0.0011814217
    7    3    6    1       -0.0010822771
    7    3    2    2        0.0273624982
    7    3    6    2        0.0159898267
    7    3    3    3        0.0182229971
    7    3    4    3        0.0008473996
    7    3    5    3        0.0010336749
    7    3    7    3        0.0126561913
    7    3    4    4        0.0172354374
    7    3    5    5        0.0172354374
    7    3    6    6        0.0199125203
    8    3    1    1        0.0145044458
    8    3    2    1       -0.0002708882
    8    3    6    1       -0.0002481553
    8    3    2    2        0.0062739468
    8    3    6    2        0.0036663071
    8    3    3    3        0.0041783507
    8    3    4    3       -0.0011245106
    8    3    5    3        0.0008677821
    8    3    7    3        0.0013325303
    8    3    8    3        0.0071501766
    8    3    4    4        0.0039519132
    8    3    7    4        0.0000915526
    8    3    5    5        0.0039519132
    8    3    7    5        0.0038394777
    8    3    6    6        0.0045657415
    8    3    7    7        0.0067696595
    9    3    1    1        0.1706196516
    9    3    2    1       -0.0031865295
    9    3    6    1       -0.0029191168
    9    3    2    2        0.0738021035
    9    3    6    2        0.0431277451
    9    3    3    3        0.0491510502
    9    3    4    3       -0.0002185825
    9    3    5    3       -0.0004570106
    9    3    7    3        0.0156749086
    9    3    8    3        0.0035940995
    9    3    9    3        0.0491229889
    9    3    4    4        0.0464874051
    9    3    7    4        0.0227320474
    9    3    8    4       -0.0307319900
    9    3    5    5        0.0464874051
    9    3    7    5        0.0274121035
    9    3    8    5        0.0234769953
    9    3    6    6        0.0537080304
    9    3    7    7        0.0796333044
    9    3    8    8        0.0796333044
    4    4    1    1        0.3670601614
    4    4    2    1       -0.0012558055
    4    4    2    2        0.3054673302
    4    4    3    3        0.2633499702
    4    4    4    4        0.2966816205
    5    4    5    4        0.0166658252
    6    4    4    1        0.0024846654
    6    4    4    2       -0.0063594926
    6    4    6    4        0.0204245887
    7    4    1    1        0.1085602710
    7    4    2    1       -0.0020274951
    7    4    6    1       -0.0018573482
    7    4    2    2        0.0469581099
    7    4    6    2        0.0274409170
    7    4    3    3        0.0295785699
    7    4    4    3        0.0004937799
    7    4    7    3        0.0099734837
    7    4    4    4        0.0312733690
    7    4    5    4        0.0010336749
    7    4    7    4        0.0239606198
    7    4    5    5        0.0295785699
    7    4    6    6        0.0341728416
    8    4    1    1       -0.1440609349
    8    4    2    1        0.0026905132
    8    4    6    1        0.0024647260
    8    4    2    2       -0.0623140414
    8    4    6    2       -0.0364144647
    8    4    3    3       -0.0392511588
    8    4    4    3        0.0001132188
    8    4    7    3       -0.0110396793
    8    4    8    3       -0.0030346407
    8    4    4    4       -0.0415001799
    8    4    5    4        0.0008677821
    8    4    7    4       -0.0227131336
    8    4    8    4        0.0369852735
    8    4    5    5       -0.0392511588
    8    4    7    5       -0.0213084755
    8    4    6    6       -0.0453478189
    8    4    7    7       -0.0672375554
    9    4    1    1       -0.0280025837
    9    4    2    1        0.0005229823
    9    4    6    1        0.0004790938
    9    4    2    2       -0.0121126117
    9    4    6    2       -0.0070782485
    9    4    3    3       -0.0076296455
    9    4    4    3        0.0013318226
    9    4    7    3        0.0015958125
    9    4    8    3       -0.0055551690
    9    4    9    3       -0.0069388430
    9    4    4    4       -0.0080668105
    9    4    5    4       -0.0004570106
    9    4    7    4       -0.0044149819
    9    4    8    4        0.0058587402
    9    4    9    4        0.0079834634
    9    4    5    5       -0.0076296455
    9    4    7    5       -0.0059293336
    9    4    8    5       -0.0021492863
    9    4    6    6       -0.0088147151
    9    4    7    7       -0.0130696450
    9    4    8    8       -0.0130696450
    5    5    1    1        0.3670601614
    5    5    2    1       -0.0012558055
    5    5    2    2        0.3054673302
    5    5    3    3        0.2633499702
    5    5    4    4        0.2633499702
    5    5    5    5        0.2966816205
    6    5    5    1        0.0024846654
    6    5    5    2       -0.0063594926
    6    5    6    5        0.0204245887
    7    5    1    1        0.1324239859
    7    5    2    1       -0.0024731790
    7    5    6    1       -0.0022656305
    7    5    2    2        0.0572804400
    7    5    6    2        0.0334729784
    7    5    3    3        0.0360805301
    7    5    5    3        0.0004937799
    7    5    7    3        0.0121658546
    7    5    4    4        0.0360805301
    7    5    5    4        0.0008473996
    7    5    7    4        0.0208784129
    7    5    5    5        0.0381478799
    7    5    7    5        0.0323125457
    7    5    6    6        0.0416847144
    8    5    1    1        0.1111714810
    8    5    2    1       -0.0020762626
    8    5    6    1       -0.0019020232
    8    5    2    2        0.0480875976
    8    5    6    2        0.0281009558
    8    5    3    3        0.0302900259
    8    5    5    3        0.0001132188
    8    5    7    3        0.0091634077
    8    5    8    3        0.0023418250
    8    5    4    4        0.0302900259
    8    5    5    4       -0.0011245106
    8    5    7    4        0.0111302129
    8    5    8    4       -0.0232594547
    8    5    5    5        0.0320255902
    8    5    7    5        0.0213806033
    8    5    8    5        0.0247939066
    8    5    6    6        0.0349948040
    8    5    7    7        0.0518870616
    9    5    1    1       -0.0585475863
    9    5    2    1        0.0010934474
    9    5    6    1        0.0010016856
    9    5    2    2       -0.0253249552
    9    5    6    2       -0.0147991474
    9    5    3    3       -0.0159520040
    9    5    5    3        0.0013318226
    9    5    7    3        0.0000228330
    9    5    8    3        0.0028372110
    9    5    9    3       -0.0145076796
    9    5    4    4       -0.0159520040
    9    5    5    4       -0.0002185825
    9    5    7    4       -0.0086869597
    9    5    8    4        0.0098775193
    9    5    9    4        0.0023810417
    9    5    5    5       -0.0168660253
    9    5    7    5       -0.0112599266
    9    5    8    5       -0.0094528397
    9    5    9    5        0.0118229045
    9    5    6    6       -0.0184297384
    9    5    7    7       -0.0273259130
    9    5    8    8       -0.0273259130
    6    6    1    1        0.4255893712
    6    6    2    1       -0.0051259599
    6    6    6    1       -0.0044540262
    6    6    2    2        0.3057552296
    6    6    6    2        0.0538816559
    6    6    3    3        0.2704220800
    6    6    4    4        0.2704220800
    6    6    5    5        0.2704220800
    6    6    6    6        0.2749637087
    7    6    3    1        0.0026242092
    7    6    4    1        0.0045035327
    7    6    5    1        0.0054934991
    7    6    7    1        0.0184626649
    7    6    3    2        0.0180443971
    7    6    4    2        0.0309668647
    7    6    5    2        0.0377739999
    7    6    7    2        0.0286156354
    7    6    6    3       -0.0007690303
    7    6    6    4       -0.0013197702
    7    6    6    5       -0.0016098820
    7    6    7    6        0.0506250046
    8    6    3    1        0.0006017049
    8    6    4    1       -0.0059762483
    8    6    5    1        0.0046118566
    8    6    8    1        0.0184626649
    8    6    3    2        0.0041373995
    8    6    4    2       -0.0410934446
    8    6    5    2        0.0317117135
    8    6    8    2        0.0286156354
    8    6    6    3       -0.0001763309
    8    6    6    4        0.0017513527
    8    6    6    5       -0.0013515147
    8    6    8    6        0.0506250046
    9    6    3    1        0.0070780146
    9    6    4    1       -0.0011616639
    9    6    5    1       -0.0024287980
    9    6    9    1        0.0184626649
    9    6    3    2        0.0486693302
    9    6    4    2       -0.0079877492
    9    6    5    2       -0.0167007246
    9    6    9    2        0.0286156354
    9    6    6    3       -0.0020742278
    9    6    6    4        0.0003404282
    9    6    6    5        0.0007117646
    9    6    9    6        0.0506250046
    7    7    1    1        0.5830239457
    7    7    2    1       -0.0096240950
    7    7    6    1       -0.0090006757
    7    7    2    2        0.3492978544
    7    7    6    2        0.0863009774
    7    7    3    3        0.2895316566
    7    7    4    3        0.0054061835
    7    7    5    3        0.0065945706
    7    7    7    3        0.0337078433
    7    7    4    4        0.2956592863
    7    7    5    4        0.0113172623
    7    7    7    4        0.0578476644
    7    7    5    5        0.3001864951
    7    7    7    5        0.0705637359
    7    7    6    6        0.3084121578
    7    7    7    7        0.3940256571
    8    7    3    3        0.0007223056
    8    7    4    3       -0.0029672471
    8    7    5    3        0.0035241440
    8    7    7    3        0.0004796057
    8    7    8    3        0.0020916992
    8    7    4    4       -0.0123117831
    8    7    5    4       -0.0027585925
    8    7    7    4       -0.0047635354
    8    7    8    4        0.0035896663
    8    7    5    5        0.0115894775
    8    7    7    5        0.0036760089
    8    7    8    5        0.0043787467
    8    7    8    7        0.0187794504
    9    7    3    3        0.0084966732
    9    7    4    3        0.0065935273
    9    7    5    3        0.0074356316
    9    7    7    3        0.0056417289
    9    7    9    3        0.0020916992
    9    7    4    4       -0.0023931660
    9    7    5    4       -0.0039614224
    9    7    7    4       -0.0009259366
    9    7    9    4        0.0035896663
    9    7    5    5       -0.0061035072
    9    7    7    5       -0.0019359412
    9    7    9    5        0.0043787467
    9    7    9    7        0.0187794504
    8    8    1    1        0.5830239457
    8    8    2    1       -0.0096240950
    8    8    6    1       -0.0090006757
    8    8    2    2        0.3492978544
    8    8    6    2        0.0863009774
    8    8    3    3        0.2865470900
    8    8    4    3       -0.0016449442
    8    8    5    3        0.0012693996
    8    8    7    3        0.0295244450
    8    8    8    3        0.0077288709
    8    8    4    4        0.3027193738
    8    8    5    4       -0.0126079195
    8    8    7    4        0.0506683317
    8    8    8    4       -0.0767646261
    8    8    5    5        0.2961109741
    8    8    7    5        0.0618062426
    8    8    8    5        0.0592390795
    8    8    6    6        0.3084121578
    8    8    7    7        0.3564667563
    8    8    8    8        0.3940256571
    9    8    3    3        0.0019482021
    9    8    4    3       -0.0098348303
    9    8    5    3        0.0071318825
    9    8    8    3        0.0056417289
    9    8    9    3        0.0004796057
    9    8    4    4        0.0031757634
    9    8    5    4        0.0020945663
    9    8    8    4       -0.0009259366
    9    8    9    4       -0.0047635354
    9    8    5    5       -0.0051239655
    9    8    8    5       -0.0019359412
    9    8    9    5        0.0036760089
    9    8    9    8        0.0187794504
    9    9    1    1        0.5830239457
    9    9    2    1       -0.0096240950
    9    9    6    1       -0.0090006757
    9    9    2    2        0.3492978544
    9    9    6    2        0.0863009774
    9    9    3    3        0.3092986914
    9    9    4    3       -0.0037612393
    9    9    5    3       -0.0078639701
    9    9    7    3        0.0295244450
    9    9    8    3        0.0067696595
    9    9    9    3        0.0909167622
    9    9    4    4        0.2869987779
    9    9    5    4        0.0012906572
    9    9    7    4        0.0506683317
    9    9    8    4       -0.0672375554
    9    9    9    4       -0.0149215182
    9    9    5    5        0.2890799687
    9    9    7    5        0.0618062426
    9    9    8    5        0.0518870616
    9    9    9    5       -0.0311977954
    9    9    6    6        0.3084121578
    9    9    7    7        0.3564667563
    9    9    8    8        0.3564667563
    9    9    9    9        0.3940256571
 end_two_electron_integrals
 enrep_tce =   0.000000000000000E+000
  EHF(A)             =       -14.56676403
  EHF(total)         =       -14.56676403
  Shift (HFtot-HFA)  =         0.00000000
 Cpu & wall time / sec            0.0            0.0
 T1-number-of-tasks                    14
 
 t1 file size   =               14
 t1 file name   = ./be_6-31g_fci.t1
 t1 file handle =       -998
 T2-number-of-boxes                   280
 
 t2 file size   =              280
 t2 file name   = ./be_6-31g_fci.t2
 t2 file handle =       -996

 CCSD iterations
 -----------------------------------------------------------------
 Iter          Residuum       Correlation     Cpu    Wall    V2*C2
 -----------------------------------------------------------------
    1   0.0727368917101  -0.0243090050105     0.1     0.1     0.0
    2   0.0379546589975  -0.0356127893581     0.1     0.1     0.0
    3   0.0201219538040  -0.0411070644398     0.1     0.1     0.0
    4   0.0105387771465  -0.0438662845063     0.1     0.1     0.0
    5   0.0054692639455  -0.0452728869124     0.1     0.1     0.0
 MICROCYCLE DIIS UPDATE:                     5                     5
    6   0.0000233636299  -0.0467563795993     0.1     0.1     0.0
    7   0.0000065186608  -0.0467551366415     0.1     0.1     0.0
    8   0.0000026128238  -0.0467545853727     0.1     0.1     0.0
    9   0.0000012397407  -0.0467543156405     0.1     0.1     0.0
   10   0.0000006109130  -0.0467541781025     0.1     0.1     0.0
 -----------------------------------------------------------------
 Iterations converged
 CCSD correlation energy / hartree =        -0.046754178102478
 CCSD total energy / hartree       =       -14.613518211609758

 Singles contributions

 Doubles contributions
     3a   (alpha)     3a   (beta ) ---     2a   (alpha)     2a   (beta )       -0.1715381657
     4a   (alpha)     4a   (beta ) ---     2a   (alpha)     2a   (beta )       -0.1715381657
     5a   (alpha)     5a   (beta ) ---     2a   (alpha)     2a   (beta )       -0.1715381657
 Ground state specisication for QC:
 exp(T)|Ref>~(1+T)|Ref>
 ------- a(p)+/a(q) strings ----------

 singles norm

 doubles norm

 Reference string
  0.958584646764823      :(1a)+ (2a)+ (1b)+ (2b)+ |0>

 Singles strings

 Doubles strings
 -0.164433851935218      :(3a)+ (3b)+ (2b)  (2a)  (1a)+ (2a)+ (1b)+ (2b)+ |0>
 -0.164433851935218      :(4a)+ (4b)+ (2b)  (2a)  (1a)+ (2a)+ (1b)+ (2b)+ |0>
 -0.164433851935217      :(5a)+ (5b)+ (2b)  (2a)  (1a)+ (2a)+ (1b)+ (2b)+ |0>
 -------------------------------------

 Task  times  cpu:        1.1s     wall:        1.7s
 
 
                                NWChem Input Module
                                -------------------
 
 
 
                            NWChem Direct MCSCF Module
                            --------------------------
 
 
     -----------------------------------
       Basis functions:              9
       Inactive shells:              0
       Active shells:                9
       Active electrons:             4
       Symmetry:                    a       
       Multiplicity:                 1
       Orbital rotations:            0
     -----------------------------------

     -----------------------------------
       E2 extrapolation:             F
       Conjugacy:                    T
       Micro CI relax:               T
       Canonical orbitals:           T
       Maximum iterations:          20
       Converge threshold:    1.00E-04
       Conjugacy resets:            20
       Initial levelshift:        0.10
     -----------------------------------

   input molecular orbitals = ./be_6-31g_fci.movecs
  output molecular orbtials = ./be_6-31g_fci.movecs

       No. of determinants:          1296


  Starting Orbital Energies
    -4.706891    -0.301295     0.082435     0.082435     0.082435     0.439754
     0.464931     0.464931     0.464931

  Orbital Symmetry Irreps
a    a    a    a    a    a    a    a    a   



          %%%%% MacroIteration   1 %%%%%


          Number of sigma calls:       10
                       o<<<<< (aa):             0.00
                       o<<<<< (bb):             0.00
                       o<<<<< (ab):             0.00
                       o<<<<< (total)           0.01
                       o<<<<< (aa) ff           0.00
                       o<<<<< (aa) gop          0.00
                       o<<<<< (aa) dot          0.00
                       o<<<<< (ab) str          0.00
                       o<<<<< (ab) gath         0.00
                       o<<<<< (ab) dotab        0.00
                       o<<<<< (ab) scat         0.00
                       o<<<<< (ab) sync         0.00
                       o<<<<< Density           0.00
                       o<<<<< Density one       0.00
                       o<<<<< Density two       0.00
                       o<<<<< Density ab        0.00
                       o<<<<< Spin adapt        0.00
                       o<<<<< Symm adapt        0.00

                       o<<<<< (ab) max sync:      0.00

           >>>| Valence CI:            -14.613545269592
           >>>| MCSCF energy:          -14.613545269592
           >>>| Gradient norm:          0.000000000D+00




     ==============================
            MCSCF Converged
     ==============================



          Canonical Eigenvalues

              1      
    1   -4.7069
    2   -0.3013
    3    0.0824
    4    0.0824
    5    0.0824
    6    0.4398
    7    0.4649
    8    0.4649
    9    0.4649


