All connections between all procs tested: SUCCESS
 argument  1 = nwxc_pspw_4n.nw



============================== echo of input deck ==============================
# $Id: nwxc_pspw_u1ne.nw 23503 2013-01-29 01:46:38Z d3y133 $
echo

#memory 950 mb

start nwxc_dat

charge 0

geometry
  N 0.0 0.0 0.0
end

set nwpw:minimizer 2

# LDA exchange-correlation

nwpw
   mult 4
   simulation_cell
     boundary_conditions aperiodic
     ngrid 32 32 32
     SC 20.0      #Not checking automatic unit cell generation
   end
   lcao #added 3/26/10 because of changed default
   xc lda
   unrestricted
end
task pspw energy

# GGA exchange-correlation

nwpw
   mult 4
   simulation_cell
     boundary_conditions aperiodic
     ngrid 32 32 32
     SC 20.0      #Not checking automatic unit cell generation
   end
   lcao #added 3/26/10 because of changed default
   xc pbe96
   unrestricted
end
task pspw energy

================================================================================


                                         
                                         


             Northwest Computational Chemistry Package (NWChem) 6.1.1
             --------------------------------------------------------


                    Environmental Molecular Sciences Laboratory
                       Pacific Northwest National Laboratory
                                Richland, WA 99352

                              Copyright (c) 1994-2012
                       Pacific Northwest National Laboratory
                            Battelle Memorial Institute

             NWChem is an open-source computational chemistry package
                        distributed under the terms of the
                      Educational Community License (ECL) 2.0
             A copy of the license is included with this distribution
                              in the LICENSE.TXT file

                                  ACKNOWLEDGMENT
                                  --------------

            This software and its documentation were developed at the
            EMSL at Pacific Northwest National Laboratory, a multiprogram
            national laboratory, operated for the U.S. Department of Energy
            by Battelle under Contract Number DE-AC05-76RL01830. Support
            for this work was provided by the Department of Energy Office
            of Biological and Environmental Research, Office of Basic
            Energy Sciences, and the Office of Advanced Scientific Computing.


           Job information
           ---------------

    hostname        = arcen
    program         = /home/d3y133/nwchem-dev/nwchem-ref/QA/../bin/LINUX64/nwchem
    date            = Mon Jan 28 22:52:45 2013

    compiled        = Thu_Jan_24_19:07:16_2013
    source          = /home/d3y133/nwchem-dev/nwchem-ref
    nwchem branch   = Development
    nwchem revision = 23457
    ga revision     = 10183
    input           = nwxc_pspw_4n.nw
    prefix          = nwxc_dat.
    data base       = /home/d3y133/nwchem-dev/nwchem-ref/QA/scratchdir/nwxc_dat.db
    status          = startup
    nproc           =        1
    time left       =     -1s



           Memory information
           ------------------

    heap     =   13107201 doubles =    100.0 Mbytes
    stack    =   13107201 doubles =    100.0 Mbytes
    global   =   26214400 doubles =    200.0 Mbytes (distinct from heap & stack)
    total    =   52428802 doubles =    400.0 Mbytes
    verify   = yes
    hardfail = no 


           Directory information
           ---------------------

  0 permanent = /home/d3y133/nwchem-dev/nwchem-ref/QA/scratchdir
  0 scratch   = /home/d3y133/nwchem-dev/nwchem-ref/QA/scratchdir




                                NWChem Input Module
                                -------------------



 Scaling coordinates for geometry "geometry" by  1.889725989
 (inverse scale =  0.529177249)



                             Geometry "geometry" -> ""
                             -------------------------

 Output coordinates in angstroms (scale by  1.889725989 to convert to a.u.)

  No.       Tag          Charge          X              Y              Z
 ---- ---------------- ---------- -------------- -------------- --------------
    1 N                    7.0000     0.00000000     0.00000000     0.00000000

      Atomic Mass 
      ----------- 

      N                 14.003070


 Effective nuclear repulsion energy (a.u.)       0.0000000000

            Nuclear Dipole moment (a.u.) 
            ----------------------------
        X                 Y               Z
 ---------------- ---------------- ----------------
     0.0000000000     0.0000000000     0.0000000000


            XYZ format geometry
            -------------------
     1
 geometry
 N                     0.00000000     0.00000000     0.00000000

          ****************************************************
          *                                                  *
          *               NWPW PSPW Calculation              *
          *                                                  *
          *  [ (Grassman/Stiefel manifold implementation) ]  *
          *                                                  *
          *      [ NorthWest Chemistry implementation ]      *
          *                                                  *
          *            version #5.10   06/12/02              *
          *                                                  *
          *    This code was developed by Eric J. Bylaska,   *
          *    and was based upon algorithms and code        *
          *    developed by the group of Prof. John H. Weare *
          *                                                  *
          ****************************************************
     >>>  JOB STARTED       AT Mon Jan 28 22:52:45 2013  <<<
          ================ input data ========================
  library name resolved from: environment
  NWCHEM_NWPW_LIBRARY set to: </home/d3y133/nwchem-dev/nwchem-ref/QA/../src/nwpw/libraryps/>
 Generating 1d pseudopotential for N   

 Generated formatted_filename: /home/d3y133/nwchem-dev/nwchem-ref/QA/scratchdir/N.vpp
  library name resolved from: environment
  NWCHEM_NWPW_LIBRARY set to: </home/d3y133/nwchem-dev/nwchem-ref/QA/../src/nwpw/libraryps/>

 Generated formatted atomic orbitals, filename: /home/d3y133/nwchem-dev/nwchem-ref/QA/scratchdir/N.aorb

 lcao guess, initial psi:nwxc_dat.movecs                                   
 -   spin, nalpha, nbeta:                    2                    4                    1

 input psi filename:/home/d3y133/nwchem-dev/nwchem-ref/QA/scratchdir/nwxc_dat.movecs

 number of processors used:         1
 processor grid           :   1 x   1
 parallel mapping         :2d hilbert
 parallel mapping         :  balanced
 parallel io              :       off

 options:
      boundary conditions  = aperiodic   (version4)
      electron spin        = unrestricted
      exchange-correlation = LDA (Vosko et al) parameterization

 elements involved in the cluster:
      1: N   valence charge:  5.0000  lmax=  2
             comment    : Hamann pseudopotential
             pseudpotential type            :   0
             highest angular component      :   2
             local potential used           :   2
             number of non-local projections:   4
             aperiodic cutoff radius        :  1.000
             cutoff =   0.700   0.700   0.700


 total charge:   0.000

 atomic composition:
     N   :    1

 number of electrons: spin up=     4 (   4 per task)  down=     1 (   1 per task) (fourier space)
 number of orbitals : spin up=     4 (   4 per task)  down=     1 (   1 per task) (fourier space)

 supercell:
      cell_name:  cell_default                                      
      lattice:    a1=<  20.000   0.000   0.000 >
                  a2=<   0.000  20.000   0.000 >
                  a3=<   0.000   0.000  20.000 >
      reciprocal: b1=<   0.314   0.000   0.000 >
                  b2=<   0.000   0.314   0.000 >
                  b3=<   0.000   0.000   0.314 >
      lattice:    a=      20.000 b=     20.000 c=      20.000
                  alpha=  90.000 beta=  90.000 gamma=  90.000
                  omega=      8000.0

      density cutoff= 12.633  fft= 32x 32x 32(     8536 waves     8536 per task)
      wavefnc cutoff= 12.633  fft= 32x 32x 32(     8536 waves     8536 per task)

 technical parameters:
      time step=      5.80     ficticious mass=  400000.0
      tolerance=.100E-06 (energy)   0.100E-06 (density)
      maximum iterations =      1000 (   10 inner    100 outer )





== Energy Calculation ==


          ============ Grassmann lmbfgs iteration ============
     >>>  ITERATION STARTED AT Mon Jan 28 22:52:58 2013  <<<
    iter.           Energy         DeltaE       DeltaRho 
    ------------------------------------------------------
     -  15 steepest descent iterations performed
      10   -0.9430322755E+01   -0.29814E-05    0.19404E-02
      20   -0.9430325688E+01   -0.59710E-07    0.36023E-07
  *** tolerance ok. iteration terminated
     >>>  ITERATION ENDED   AT Mon Jan 28 22:53:03 2013  <<<


==  Summary Of Results  ==

 number of electrons: spin up=    4.00000  down=    1.00000 (real space)

 total     energy    :  -0.9430325688E+01 (   -0.94303E+01/ion)
 total orbital energy:  -0.2264303175E+01 (   -0.45286E+00/electron)
 hartree   energy    :   0.7855547066E+01 (    0.15711E+01/electron)
 exc-corr  energy    :  -0.2202770086E+01 (   -0.44055E+00/electron)
 ion-ion   energy    :   0.0000000000E+00 (    0.00000E+00/ion)

 kinetic (planewave) :   0.5348254986E+01 (    0.10697E+01/electron)
 V_local (planewave) :  -0.2110138381E+02 (   -0.42203E+01/electron)
 V_nl    (planewave) :   0.6700261545E+00 (    0.13401E+00/electron)
 V_Coul  (planewave) :   0.1571109413E+02 (    0.31422E+01/electron)
 V_xc.   (planewave) :  -0.2892294640E+01 (   -0.57846E+00/electron)
 Virial Coefficient  :  -0.1423372330E+01

 orbital energies:
    -0.2847292E+00 (  -7.748eV)
    -0.2847292E+00 (  -7.748eV)
    -0.2847292E+00 (  -7.748eV)
    -0.7835679E+00 ( -21.322eV)    -0.6265479E+00 ( -17.049eV)

 Total PSPW energy   :  -0.9430325688E+01


=== Spin Contamination ===

 <Sexact^2> =    3.75000000000000     
 <S^2>      =    3.75203993135379     



== Center of Charge ==

spin up     (    0.0000,    0.0000,    0.0000 )
spin down   (    0.0000,    0.0000,    0.0000 )
     total  (    0.0000,    0.0000,    0.0000 )
ionic       (    0.0000,    0.0000,    0.0000 )
crystal     (    0.0000,    0.0000,    0.0000 )


== Crystal Dipole ==

mu   =  (    0.0000,    0.0000,    0.0000 ) au
|mu| =     0.0000 au,       0.0000 Debye


== Molecular Dipole wrt Center of Mass ==

mu   =  (    0.0000,    0.0000,    0.0000 ) au
|mu| =     0.0000 au,       0.0000 Debye

 output psi filename:/home/d3y133/nwchem-dev/nwchem-ref/QA/scratchdir/nwxc_dat.movecs


== Timing ==

cputime in seconds
  prologue    :   0.127113E+02
  main loop   :   0.495862E+01
  epilogue    :   0.615001E-02
  total       :   0.176761E+02
  cputime/step:   0.972278E-01       (      51 evalulations,      16 linesearches)


Time spent doing                        total          step
  FFTs                       :   0.180316E+01  0.353561E-01
  dot products               :   0.114914E+00  0.225321E-02
  geodesic                   :   0.437799E+00  0.858429E-02
  ffm_dgemm                  :   0.465117E-01  0.911994E-03
  fmf_dgemm                  :   0.460836E+00  0.903600E-02
  m_diagonalize              :   0.648966E-03  0.127248E-04
    - m_tredq                :   0.000000E+00  0.000000E+00
       - m_tredq_houseq      :   0.000000E+00  0.000000E+00
       - m_tredq_houseq_dgemm:   0.000000E+00  0.000000E+00
       - m_tredq_dgemm1      :   0.000000E+00  0.000000E+00
    - m_getdiags             :   0.000000E+00  0.000000E+00
    - m_tqliq                :   0.000000E+00  0.000000E+00
    - m_eigsrt               :   0.000000E+00  0.000000E+00
  exchange correlation       :   0.244231E+01  0.478884E-01
  local pseudopotentials     :   0.284441E-01  0.557727E-03
  non-local pseudopotentials :   0.114427E+00  0.224367E-02
  hartree potentials         :   0.000000E+00  0.000000E+00
  ion-ion interaction        :   0.000000E+00  0.000000E+00
  structure factors          :   0.211685E+00  0.415068E-02
  phase factors              :   0.219345E-04  0.430088E-06
  masking and packing        :   0.178879E+00  0.350743E-02
  queue fft                  :   0.727432E+00  0.142634E-01
  queue fft (serial)         :   0.494083E+00  0.968789E-02
  queue fft (message passing):   0.218827E+00  0.429073E-02
  HFX potential              :   0.000000E+00  0.000000E+00
  qmmm LJ                    :   0.000000E+00  0.000000E+00
  qmmm residual Q            :   0.000000E+00  0.000000E+00

     >>>  JOB COMPLETED     AT Mon Jan 28 22:53:03 2013  <<<

 Task  times  cpu:       17.4s     wall:       17.7s


                                NWChem Input Module
                                -------------------


          ****************************************************
          *                                                  *
          *               NWPW PSPW Calculation              *
          *                                                  *
          *  [ (Grassman/Stiefel manifold implementation) ]  *
          *                                                  *
          *      [ NorthWest Chemistry implementation ]      *
          *                                                  *
          *            version #5.10   06/12/02              *
          *                                                  *
          *    This code was developed by Eric J. Bylaska,   *
          *    and was based upon algorithms and code        *
          *    developed by the group of Prof. John H. Weare *
          *                                                  *
          ****************************************************
     >>>  JOB STARTED       AT Mon Jan 28 22:53:03 2013  <<<
          ================ input data ========================

 input psi filename:/home/d3y133/nwchem-dev/nwchem-ref/QA/scratchdir/nwxc_dat.movecs

 number of processors used:         1
 processor grid           :   1 x   1
 parallel mapping         :2d hilbert
 parallel mapping         :  balanced
 parallel io              :       off

 options:
      boundary conditions  = aperiodic   (version4)
      electron spin        = unrestricted
      exchange-correlation = PBE96 (White and Bird) parameterization

 elements involved in the cluster:
      1: N   valence charge:  5.0000  lmax=  2
             comment    : Hamann pseudopotential
             pseudpotential type            :   0
             highest angular component      :   2
             local potential used           :   2
             number of non-local projections:   4
             aperiodic cutoff radius        :  1.000
             cutoff =   0.700   0.700   0.700


 total charge:   0.000

 atomic composition:
     N   :    1

 number of electrons: spin up=     4 (   4 per task)  down=     1 (   1 per task) (fourier space)
 number of orbitals : spin up=     4 (   4 per task)  down=     1 (   1 per task) (fourier space)

 supercell:
      cell_name:  cell_default                                      
      lattice:    a1=<  20.000   0.000   0.000 >
                  a2=<   0.000  20.000   0.000 >
                  a3=<   0.000   0.000  20.000 >
      reciprocal: b1=<   0.314   0.000   0.000 >
                  b2=<   0.000   0.314   0.000 >
                  b3=<   0.000   0.000   0.314 >
      lattice:    a=      20.000 b=     20.000 c=      20.000
                  alpha=  90.000 beta=  90.000 gamma=  90.000
                  omega=      8000.0

      density cutoff= 12.633  fft= 32x 32x 32(     8536 waves     8536 per task)
      wavefnc cutoff= 12.633  fft= 32x 32x 32(     8536 waves     8536 per task)

 technical parameters:
      time step=      5.80     ficticious mass=  400000.0
      tolerance=.100E-06 (energy)   0.100E-06 (density)
      maximum iterations =      1000 (   10 inner    100 outer )





== Energy Calculation ==


          ============ Grassmann lmbfgs iteration ============
     >>>  ITERATION STARTED AT Mon Jan 28 22:53:03 2013  <<<
    iter.           Energy         DeltaE       DeltaRho 
    ------------------------------------------------------
      10   -0.9519994957E+01   -0.26207E-05    0.39421E-03
      20   -0.9519998298E+01   -0.79021E-07    0.23770E-07
  *** tolerance ok. iteration terminated
     >>>  ITERATION ENDED   AT Mon Jan 28 22:53:12 2013  <<<


==  Summary Of Results  ==

 number of electrons: spin up=    4.00000  down=    1.00000 (real space)

 total     energy    :  -0.9519998298E+01 (   -0.95200E+01/ion)
 total orbital energy:  -0.2327946552E+01 (   -0.46559E+00/electron)
 hartree   energy    :   0.7876408623E+01 (    0.15753E+01/electron)
 exc-corr  energy    :  -0.2303498230E+01 (   -0.46070E+00/electron)
 ion-ion   energy    :   0.0000000000E+00 (    0.00000E+00/ion)

 kinetic (planewave) :   0.5440274204E+01 (    0.10881E+01/electron)
 V_local (planewave) :  -0.2119442687E+02 (   -0.42389E+01/electron)
 V_nl    (planewave) :   0.6612439783E+00 (    0.13225E+00/electron)
 V_Coul  (planewave) :   0.1575281725E+02 (    0.31506E+01/electron)
 V_xc.   (planewave) :  -0.2987855106E+01 (   -0.59757E+00/electron)
 Virial Coefficient  :  -0.1427909783E+01

 orbital energies:
    -0.3031845E+00 (  -8.250eV)
    -0.3031845E+00 (  -8.250eV)
    -0.3031845E+00 (  -8.250eV)
    -0.7929041E+00 ( -21.576eV)    -0.6254889E+00 ( -17.021eV)

 Total PSPW energy   :  -0.9519998298E+01


=== Spin Contamination ===

 <Sexact^2> =    3.75000000000000     
 <S^2>      =    3.75166398040370     



== Center of Charge ==

spin up     (    0.0000,    0.0000,    0.0000 )
spin down   (    0.0000,    0.0000,    0.0000 )
     total  (    0.0000,    0.0000,    0.0000 )
ionic       (    0.0000,    0.0000,    0.0000 )
crystal     (    0.0000,    0.0000,    0.0000 )


== Crystal Dipole ==

mu   =  (    0.0000,    0.0000,    0.0000 ) au
|mu| =     0.0000 au,       0.0000 Debye


== Molecular Dipole wrt Center of Mass ==

mu   =  (    0.0000,    0.0000,    0.0000 ) au
|mu| =     0.0000 au,       0.0000 Debye

 output psi filename:/home/d3y133/nwchem-dev/nwchem-ref/QA/scratchdir/nwxc_dat.movecs


== Timing ==

cputime in seconds
  prologue    :   0.212165E+00
  main loop   :   0.891793E+01
  epilogue    :   0.597000E-02
  total       :   0.913607E+01
  cputime/step:   0.247720E+00       (      36 evalulations,      16 linesearches)


Time spent doing                        total          step
  FFTs                       :   0.166319E+01  0.461998E-01
  dot products               :   0.674490E-01  0.187358E-02
  geodesic                   :   0.410304E+00  0.113973E-01
  ffm_dgemm                  :   0.219942E-01  0.610949E-03
  fmf_dgemm                  :   0.407148E+00  0.113097E-01
  m_diagonalize              :   0.659452E-03  0.183181E-04
    - m_tredq                :   0.000000E+00  0.000000E+00
       - m_tredq_houseq      :   0.000000E+00  0.000000E+00
       - m_tredq_houseq_dgemm:   0.000000E+00  0.000000E+00
       - m_tredq_dgemm1      :   0.000000E+00  0.000000E+00
    - m_getdiags             :   0.000000E+00  0.000000E+00
    - m_tqliq                :   0.000000E+00  0.000000E+00
    - m_eigsrt               :   0.000000E+00  0.000000E+00
  exchange correlation       :   0.685540E+01  0.190428E+00
  local pseudopotentials     :   0.142648E-01  0.396245E-03
  non-local pseudopotentials :   0.763199E-01  0.212000E-02
  hartree potentials         :   0.000000E+00  0.000000E+00
  ion-ion interaction        :   0.000000E+00  0.000000E+00
  structure factors          :   0.287747E-02  0.799298E-04
  phase factors              :   0.159730E-04  0.443696E-06
  masking and packing        :   0.604663E-01  0.167962E-02
  queue fft                  :   0.480002E+00  0.133334E-01
  queue fft (serial)         :   0.327422E+00  0.909505E-02
  queue fft (message passing):   0.142739E+00  0.396497E-02
  HFX potential              :   0.000000E+00  0.000000E+00
  qmmm LJ                    :   0.000000E+00  0.000000E+00
  qmmm residual Q            :   0.000000E+00  0.000000E+00

     >>>  JOB COMPLETED     AT Mon Jan 28 22:53:12 2013  <<<

 Task  times  cpu:        9.1s     wall:        9.1s
 Summary of allocated global arrays
-----------------------------------
  No active global arrays



                         GA Statistics for process    0
                         ------------------------------

       create   destroy   get      put      acc     scatter   gather  read&inc
calls:   12       12       95       20        0        0        0        0     
number of processes/call 1.00e+00 1.00e+00 0.00e+00 0.00e+00 0.00e+00
bytes total:             6.88e+03 2.56e+03 0.00e+00 0.00e+00 0.00e+00 0.00e+00
bytes remote:            0.00e+00 0.00e+00 0.00e+00 0.00e+00 0.00e+00 0.00e+00
Max memory consumed for GA by this process: 1536 bytes
MA_summarize_allocated_blocks: starting scan ...
MA_summarize_allocated_blocks: scan completed: 0 heap blocks, 0 stack blocks
MA usage statistics:

	allocation statistics:
					      heap	     stack
					      ----	     -----
	current number of blocks	         0	         0
	maximum number of blocks	       288	        20
	current total bytes		         0	         0
	maximum total bytes		  39916160	   8159920
	maximum total K-bytes		     39917	      8160
	maximum total M-bytes		        40	         9


                                NWChem Input Module
                                -------------------





                                     CITATION
                                     --------
                Please cite the following reference when publishing
                           results obtained with NWChem:

                 M. Valiev, E.J. Bylaska, N. Govind, K. Kowalski,
              T.P. Straatsma, H.J.J. van Dam, D. Wang, J. Nieplocha,
                        E. Apra, T.L. Windus, W.A. de Jong
                 "NWChem: a comprehensive and scalable open-source
                  solution for large scale molecular simulations"
                      Comput. Phys. Commun. 181, 1477 (2010)
                           doi:10.1016/j.cpc.2010.04.018

                              AUTHORS & CONTRIBUTORS
                              ----------------------
          E. Apra, E. J. Bylaska, W. A. de Jong, N. Govind, K. Kowalski,
       T. P. Straatsma, M. Valiev, H. J. J. van Dam, D. Wang, T. L. Windus,
    J. Hammond, J. Autschbach, F. Aquino, S. Hirata, M. T. Hackler, K. Lopata,
      J. Mullin, P. Nichols, R. Peverati, Y. Zhao, P.-D. Fan, R. J. Harrison,
        M. Dupuis, D. M. A. Smith, J. Nieplocha, V. Tipparaju, M. Krishnan,
       B. E. Van Kuiken, A. Vazquez-Mayagoitia, L. Jensen, M. Swart, Q. Wu,
   T. Van Voorhis, A. A. Auer, M. Nooijen, L. D. Crosby, E. Brown, G. Cisneros,
      G. I. Fann, H. Fruchtl, J. Garza, K. Hirao, R. Kendall, J. A. Nichols,
        K. Tsemekhman, K. Wolinski, J. Anchell, D. Bernholdt, P. Borowski,
  T. Clark, D. Clerc, H. Dachsel, M. Deegan, K. Dyall, D. Elwood, E. Glendening,
         M. Gutowski, A. Hess, J. Jaffe, B. Johnson, J. Ju, R. Kobayashi,
     R. Kutteh, Z. Lin, R. Littlefield, X. Long, B. Meng, T. Nakajima, S. Niu,
      L. Pollack, M. Rosing, K. Glaesemann, G. Sandrone, M. Stave, H. Taylor,
                  G. Thomas, J. H. van Lenthe, A. Wong, Z. Zhang.

 Total times  cpu:       26.5s     wall:       26.8s
