 argument  1 = cosmo_h2o_dft.nw
All connections between all procs tested: SUCCESS
 


============================== echo of input deck ==============================
echo
start cosmo_h2o_dft_dat
title "cosmo_h2o_dft"

geometry nocenter noautosym noautoz
  H    0.290  -1.478   2.133
  O   -0.526  -1.642   2.602
  H   -0.729  -0.989   3.278
end

basis noprint
  * library 6-31G
end


dft
  print medium cosmo_energies
  xc hfexch
  iterations 200
  noio
  direct
  GRID nodisk
end

cosmo
  minbem 2
  maxbem 3
end

property
  efield
end

set dft:xcreplicated f
set fock:replicated .false.

task dft property
================================================================================


                                         
                                         
 
 
              Northwest Computational Chemistry Package (NWChem) 6.5
              ------------------------------------------------------
 
 
                    Environmental Molecular Sciences Laboratory
                       Pacific Northwest National Laboratory
                                Richland, WA 99352
 
                              Copyright (c) 1994-2013
                       Pacific Northwest National Laboratory
                            Battelle Memorial Institute
 
             NWChem is an open-source computational chemistry package
                        distributed under the terms of the
                      Educational Community License (ECL) 2.0
             A copy of the license is included with this distribution
                              in the LICENSE.TXT file
 
                                  ACKNOWLEDGMENT
                                  --------------

            This software and its documentation were developed at the
            EMSL at Pacific Northwest National Laboratory, a multiprogram
            national laboratory, operated for the U.S. Department of Energy
            by Battelle under Contract Number DE-AC05-76RL01830. Support
            for this work was provided by the Department of Energy Office
            of Biological and Environmental Research, Office of Basic
            Energy Sciences, and the Office of Advanced Scientific Computing.


           Job information
           ---------------

    hostname        = arcen
    program         = ../../../bin/LINUX64/nwchem
    date            = Thu Oct 16 13:02:05 2014

    compiled        = Thu_Oct_16_12:14:56_2014
    source          = /home/d3y133/nwchem-dev/nwchem-newest
    nwchem branch   = Development
    nwchem revision = 26300
    ga revision     = 10506
    input           = cosmo_h2o_dft.nw
    prefix          = cosmo_h2o_dft_dat.
    data base       = ./cosmo_h2o_dft_dat.db
    status          = startup
    nproc           =        1
    time left       =     -1s



           Memory information
           ------------------

    heap     =   13107194 doubles =    100.0 Mbytes
    stack    =   13107199 doubles =    100.0 Mbytes
    global   =   26214400 doubles =    200.0 Mbytes (distinct from heap & stack)
    total    =   52428793 doubles =    400.0 Mbytes
    verify   = yes
    hardfail = no 


           Directory information
           ---------------------
 
  0 permanent = .
  0 scratch   = .
 
 
 
 
                                NWChem Input Module
                                -------------------
 
 
                                   cosmo_h2o_dft
                                   -------------

 Scaling coordinates for geometry "geometry" by  1.889725989
 (inverse scale =  0.529177249)

 
 
                             Geometry "geometry" -> ""
                             -------------------------
 
 Output coordinates in angstroms (scale by  1.889725989 to convert to a.u.)
 
  No.       Tag          Charge          X              Y              Z
 ---- ---------------- ---------- -------------- -------------- --------------
    1 H                    1.0000     0.29000000    -1.47800000     2.13300000
    2 O                    8.0000    -0.52600000    -1.64200000     2.60200000
    3 H                    1.0000    -0.72900000    -0.98900000     3.27800000
 
      Atomic Mass 
      ----------- 
 
      H                  1.007825
      O                 15.994910
 

 Effective nuclear repulsion energy (a.u.)       9.1628016539

            Nuclear Dipole moment (a.u.) 
            ----------------------------
        X                 Y               Z
 ---------------- ---------------- ----------------
    -8.7815566689   -29.4853945998    49.5618435025
 
 
            XYZ format geometry
            -------------------
     3
 geometry
 H                     0.29000000    -1.47800000     2.13300000
 O                    -0.52600000    -1.64200000     2.60200000
 H                    -0.72900000    -0.98900000     3.27800000
 
 ==============================================================================
                                internuclear distances
 ------------------------------------------------------------------------------
       center one      |      center two      | atomic units |  angstroms
 ------------------------------------------------------------------------------
    2 O                |   1 H                |     1.80537  |     0.95536
    3 H                |   2 O                |     1.81708  |     0.96156
 ------------------------------------------------------------------------------
                         number of included internuclear distances:          2
 ==============================================================================



 ==============================================================================
                                 internuclear angles
 ------------------------------------------------------------------------------
        center 1       |       center 2       |       center 3       |  degrees
 ------------------------------------------------------------------------------
    1 H                |   2 O                |   3 H                |   114.13
 ------------------------------------------------------------------------------
                            number of included internuclear angles:          1
 ==============================================================================



  xc_inp: hfexch multiplicative factor not found.
                              NWChem Property Module
                              ----------------------
 
 
                                   cosmo_h2o_dft
 
  itol2e modified to match energy
  convergence criterion.
 
                                 NWChem DFT Module
                                 -----------------
 
 
                                   cosmo_h2o_dft
 
 


 Summary of "ao basis" -> "ao basis" (cartesian)
 ------------------------------------------------------------------------------
       Tag                 Description            Shells   Functions and Types
 ---------------- ------------------------------  ------  ---------------------
 H                           6-31G                   2        2   2s
 O                           6-31G                   5        9   3s2p


 
 solvent parameters
 solvname_short: h2o     
 solvname_long:  water                              
 dielec:       78.4000
 dielecinf:     1.7769

          ---------------
          -cosmo- solvent
          ---------------
 Cosmo: York-Karplus, doi: 10.1021/jp992097l
 dielectric constant -eps-     =  78.40
 screen = (eps-1)/(eps    )    =   0.98724
 surface charge correction     = lagrangian
 -lineq- algorithm             =   0
 -bem- low  level              =   2
 -bem- from -octahedral-
 gaussian surface charge width =   0.98000
 degree of switching           =   1.00000
 switching function tolerance  =   0.00010
 atomic radii = 
 --------------
    1  1.000  1.300
    2  8.000  1.720
    3  1.000  1.300

 solvent accessible surface
 --------------------------

 ---------- ATOMIC COORDINATES (A.U.) ------------ VDWR(ANG.) --
     1    0.54802054   -2.79301501    4.03078553     1.300
     2   -0.99399587   -3.10293007    4.91706702     1.720
     3   -1.37761025   -1.86893900    6.19452179     1.300
 number of segments per atom =         32
 number of   points per atom =        128
 atom (   nspa,  nppa )
 ----------------------
    1 (     18,     0 )       0
    2 (     26,     0 )       0
    3 (     17,     0 )       0
 number of -cosmo- surface points =       61
 molecular surface =     10.535 angstrom**2
 molecular volume  =      5.404 angstrom**3
 G(cav/disp)       =      0.913 kcal/mol
 ...... end of -cosmo- initialization ......


  Caching 1-el integrals 
 
            General Information
            -------------------
          SCF calculation type: DFT
          Wavefunction type:  closed shell.
          No. of atoms     :     3
          No. of electrons :    10
           Alpha electrons :     5
            Beta electrons :     5
          Charge           :     0
          Spin multiplicity:     1
          Use of symmetry is: off; symmetry adaption is: off
          Maximum number of iterations: 200
          This is a Direct SCF calculation.
          AO basis - number of functions:    13
                     number of shells:     9
          Convergence on energy requested: 1.00D-07
          Convergence on density requested: 1.00D-05
          Convergence on gradient requested: 5.00D-04
 
              XC Information
              --------------
                     Hartree-Fock (Exact) Exchange  1.000          
 
          Convergence Information
          -----------------------
          Convergence aids based upon iterative change in 
          total energy or number of iterations. 
          Levelshifting, if invoked, occurs when the 
          HOMO/LUMO gap drops below (HL_TOL): 1.00D-02
          DIIS, if invoked, will attempt to extrapolate 
          using up to (NFOCK): 10 stored Fock matrices.

                    Damping( 0%)  Levelshifting(0.5)       DIIS
                  --------------- ------------------- ---------------
          dE  on:    start            ASAP                start   
          dE off:    2 iters        200 iters           200 iters 

 
      Screening Tolerance Information
      -------------------------------
          Density screening/tol_rho: 1.00D-11
          AO Gaussian exp screening on grid/accAOfunc:  16
          CD Gaussian exp screening on grid/accCDfunc:  20
          XC Gaussian exp screening on grid/accXCfunc:  20
          Schwarz screening/accCoul: 1.00D-08

 
      Superposition of Atomic Density Guess
      -------------------------------------
 
 Sum of atomic energies:         -75.75081731
 
      Non-variational initial energy
      ------------------------------

 Total energy =     -75.908302
 1-e energy   =    -121.677027
 2-e energy   =      36.605923
 HOMO         =      -0.468658
 LUMO         =       0.113391
 
   Time after variat. SCF:      0.0
   Time prior to 1st pass:      0.0

           Memory utilization after 1st SCF pass: 
           Heap Space remaining (MW):       13.11            13105690
          Stack Space remaining (MW):       13.11            13106972

   convergence    iter        energy       DeltaE   RMS-Dens  Diis-err    time
 ---------------- ----- ----------------- --------- --------- ---------  ------
     COSMO gas phase
 d= 0,ls=0.0,diis     1    -75.9504799103 -8.51D+01  2.93D-02  3.18D-01     0.1
 d= 0,ls=0.0,diis     2    -75.9768470171 -2.64D-02  1.00D-02  9.03D-02     0.1
 d= 0,ls=0.0,diis     3    -75.9847782864 -7.93D-03  1.82D-03  9.54D-04     0.1
 d= 0,ls=0.0,diis     4    -75.9849420289 -1.64D-04  3.64D-04  2.14D-05     0.1
 d= 0,ls=0.0,diis     5    -75.9849470684 -5.04D-06  6.65D-05  4.82D-07     0.1
 d= 0,ls=0.0,diis     6    -75.9849472000 -1.32D-07  6.19D-06  4.10D-09     0.1
 d= 0,ls=0.0,diis     7    -75.9849472012 -1.20D-09  2.02D-06  1.87D-10     0.2
 Alternative 1
 -atmefc- energy =       0.054597667558
 -elcefc- energy =      -0.083708737728
 -efcefc- energy =       0.014555535085
 -lambda- energy =      -0.000000000000
 -solnrg- energy =      -0.014555535085
 -allefc- energy =      -0.029111070170     -0.029111070170
 -ecos  - energy =       0.069153202643
 Alternative 2
 -atmefc- energy =       0.054597667558
 -elcefc- energy =      -0.083708737728
 -allefc- energy =      -0.029111070170
 -solnrg- energy =      -0.014555535085
 -ecos  - energy =       0.069153202643

           Memory utilization after 1st SCF pass: 
           Heap Space remaining (MW):       13.11            13105410
          Stack Space remaining (MW):       13.11            13106972

   convergence    iter        energy       DeltaE   RMS-Dens  Diis-err    time
 ---------------- ----- ----------------- --------- --------- ---------  ------
     COSMO solvation phase
 d= 0,ls=0.0,diis     1    -75.9995027364 -1.46D-02  5.83D-03  4.17D-03     0.2
 Alternative 1
 -atmefc- energy =       0.058154449310
 -elcefc- energy =      -0.090851194136
 -efcefc- energy =       0.016348372413
 -lambda- energy =      -0.000000000000
 -solnrg- energy =      -0.016348372413
 -allefc- energy =      -0.032696744826     -0.032696744826
 -ecos  - energy =       0.074502821723
 Alternative 2
 -atmefc- energy =       0.058154449310
 -elcefc- energy =      -0.090851194136
 -allefc- energy =      -0.032696744826
 -solnrg- energy =      -0.016348372413
 -ecos  - energy =       0.074502821723
 d= 0,ls=0.0,diis     2    -76.0006175482 -1.11D-03  2.38D-03  8.52D-04     0.2
 Alternative 1
 -atmefc- energy =       0.059079902401
 -elcefc- energy =      -0.092878858655
 -efcefc- energy =       0.016899478127
 -lambda- energy =      -0.000000000000
 -solnrg- energy =      -0.016899478127
 -allefc- energy =      -0.033798956254     -0.033798956254
 -ecos  - energy =       0.075979380528
 Alternative 2
 -atmefc- energy =       0.059079902401
 -elcefc- energy =      -0.092878858655
 -allefc- energy =      -0.033798956254
 -solnrg- energy =      -0.016899478127
 -ecos  - energy =       0.075979380528
 d= 0,ls=0.0,diis     3    -76.0007923613 -1.75D-04  1.12D-03  1.49D-04     0.3
 Alternative 1
 -atmefc- energy =       0.059716208197
 -elcefc- energy =      -0.094193992665
 -efcefc- energy =       0.017238892234
 -lambda- energy =       0.000000000000
 -solnrg- energy =      -0.017238892234
 -allefc- energy =      -0.034477784468     -0.034477784468
 -ecos  - energy =       0.076955100431
 Alternative 2
 -atmefc- energy =       0.059716208197
 -elcefc- energy =      -0.094193992665
 -allefc- energy =      -0.034477784468
 -solnrg- energy =      -0.017238892234
 -ecos  - energy =       0.076955100431
 d= 0,ls=0.0,diis     4    -76.0008261691 -3.38D-05  2.81D-04  4.62D-06     0.3
 Alternative 1
 -atmefc- energy =       0.059799408210
 -elcefc- energy =      -0.094379316839
 -efcefc- energy =       0.017289954314
 -lambda- energy =       0.000000000000
 -solnrg- energy =      -0.017289954314
 -allefc- energy =      -0.034579908629     -0.034579908629
 -ecos  - energy =       0.077089362525
 Alternative 2
 -atmefc- energy =       0.059799408210
 -elcefc- energy =      -0.094379316839
 -allefc- energy =      -0.034579908629
 -solnrg- energy =      -0.017289954314
 -ecos  - energy =       0.077089362525
 d= 0,ls=0.0,diis     5    -76.0008277291 -1.56D-06  3.57D-05  1.06D-07     0.3
 Alternative 1
 -atmefc- energy =       0.059800537406
 -elcefc- energy =      -0.094383909104
 -efcefc- energy =       0.017291685849
 -lambda- energy =       0.000000000000
 -solnrg- energy =      -0.017291685849
 -allefc- energy =      -0.034583371699     -0.034583371699
 -ecos  - energy =       0.077092223255
 Alternative 2
 -atmefc- energy =       0.059800537406
 -elcefc- energy =      -0.094383909104
 -allefc- energy =      -0.034583371699
 -solnrg- energy =      -0.017291685849
 -ecos  - energy =       0.077092223255
 d= 0,ls=0.0,diis     6    -76.0008277642 -3.51D-08  5.70D-06  2.82D-09     0.4


         Total DFT energy =      -76.000827764211
      One electron energy =     -123.142356011896
           Coulomb energy =       46.860473574236
    Exchange-Corr. energy =       -8.958839203709
 Nuclear repulsion energy =        9.162801653904

 Numeric. integr. density =        0.000000000000

     Total iterative time =      0.3s


                  COSMO solvation results
                  -----------------------
  
                 gas phase energy =       -75.9849472012
                 sol phase energy =       -76.0008277642
 (electrostatic) solvation energy =         0.0158805630 (    9.97 kcal/mol)
 
                       DFT Final Molecular Orbital Analysis
                       ------------------------------------
 
 Vector    1  Occ=2.000000D+00  E=-2.055208D+01
              MO Center= -5.3D-01, -1.6D+00,  2.6D+00, r^2= 1.5D-02
   Bfn.  Coefficient  Atom+Function         Bfn.  Coefficient  Atom+Function  
  ----- ------------  ---------------      ----- ------------  ---------------
     3      0.995763  2 O  s          
 
 Vector    2  Occ=2.000000D+00  E=-1.342538D+00
              MO Center= -4.3D-01, -1.5D+00,  2.6D+00, r^2= 5.1D-01
   Bfn.  Coefficient  Atom+Function         Bfn.  Coefficient  Atom+Function  
  ----- ------------  ---------------      ----- ------------  ---------------
     8      0.493082  2 O  s                  4      0.471277  2 O  s          
     3     -0.214704  2 O  s          
 
 Vector    3  Occ=2.000000D+00  E=-7.219693D-01
              MO Center= -4.2D-01, -1.5D+00,  2.6D+00, r^2= 7.8D-01
   Bfn.  Coefficient  Atom+Function         Bfn.  Coefficient  Atom+Function  
  ----- ------------  ---------------      ----- ------------  ---------------
     7      0.361187  2 O  pz                 5     -0.324374  2 O  px         
     1     -0.255577  1 H  s                 12      0.254146  3 H  s          
    11      0.202660  2 O  pz                 9     -0.181855  2 O  px         
     6      0.151903  2 O  py         
 
 Vector    4  Occ=2.000000D+00  E=-5.520180D-01
              MO Center= -5.9D-01, -1.7D+00,  2.6D+00, r^2= 6.6D-01
   Bfn.  Coefficient  Atom+Function         Bfn.  Coefficient  Atom+Function  
  ----- ------------  ---------------      ----- ------------  ---------------
     6      0.444200  2 O  py                10      0.344346  2 O  py         
     5      0.333764  2 O  px                 9      0.258443  2 O  px         
     8     -0.254835  2 O  s          
 
 Vector    5  Occ=2.000000D+00  E=-5.009275D-01
              MO Center= -5.3D-01, -1.6D+00,  2.6D+00, r^2= 6.1D-01
   Bfn.  Coefficient  Atom+Function         Bfn.  Coefficient  Atom+Function  
  ----- ------------  ---------------      ----- ------------  ---------------
     7      0.428711  2 O  pz                11      0.349651  2 O  pz         
     6     -0.344666  2 O  py                 5      0.315909  2 O  px         
    10     -0.281575  2 O  py                 9      0.258068  2 O  px         
 
 Vector    6  Occ=0.000000D+00  E= 2.272827D-01
              MO Center= -1.6D-01, -1.1D+00,  2.7D+00, r^2= 2.6D+00
   Bfn.  Coefficient  Atom+Function         Bfn.  Coefficient  Atom+Function  
  ----- ------------  ---------------      ----- ------------  ---------------
     8      1.188982  2 O  s                 13     -1.008121  3 H  s          
     2     -0.983454  1 H  s                 10      0.342506  2 O  py         
     9      0.250684  2 O  px                 6      0.152990  2 O  py         
 
 Vector    7  Occ=0.000000D+00  E= 3.263938D-01
              MO Center= -1.1D-01, -1.1D+00,  2.7D+00, r^2= 2.8D+00
   Bfn.  Coefficient  Atom+Function         Bfn.  Coefficient  Atom+Function  
  ----- ------------  ---------------      ----- ------------  ---------------
     2      1.377578  1 H  s                 13     -1.346045  3 H  s          
    11      0.593703  2 O  pz                 9     -0.533372  2 O  px         
    10      0.248952  2 O  py                 7      0.235399  2 O  pz         
     5     -0.210997  2 O  px         
 
 Vector    8  Occ=0.000000D+00  E= 1.121124D+00
              MO Center= -5.2D-01, -1.5D+00,  2.7D+00, r^2= 1.5D+00
   Bfn.  Coefficient  Atom+Function         Bfn.  Coefficient  Atom+Function  
  ----- ------------  ---------------      ----- ------------  ---------------
    12      1.102546  3 H  s                  1     -0.901961  1 H  s          
    11     -0.603936  2 O  pz                 9      0.539066  2 O  px         
    13     -0.465498  3 H  s                  2      0.343598  1 H  s          
    10     -0.266678  2 O  py         
 
 Vector    9  Occ=0.000000D+00  E= 1.149713D+00
              MO Center= -1.1D-01, -1.2D+00,  2.6D+00, r^2= 1.2D+00
   Bfn.  Coefficient  Atom+Function         Bfn.  Coefficient  Atom+Function  
  ----- ------------  ---------------      ----- ------------  ---------------
     1      1.099177  1 H  s                 12      0.887417  3 H  s          
     2     -0.530329  1 H  s                 13     -0.476280  3 H  s          
     4     -0.277993  2 O  s                  9     -0.253511  2 O  px         
    10     -0.203548  2 O  py                 6     -0.195395  2 O  py         
 
 Vector   10  Occ=0.000000D+00  E= 1.160383D+00
              MO Center= -5.3D-01, -1.6D+00,  2.6D+00, r^2= 1.1D+00
   Bfn.  Coefficient  Atom+Function         Bfn.  Coefficient  Atom+Function  
  ----- ------------  ---------------      ----- ------------  ---------------
    11     -0.699128  2 O  pz                 7      0.650582  2 O  pz         
    10      0.565968  2 O  py                 6     -0.529680  2 O  py         
     9     -0.508715  2 O  px                 5      0.479382  2 O  px         
 
 Vector   11  Occ=0.000000D+00  E= 1.187319D+00
              MO Center= -6.9D-01, -1.9D+00,  2.5D+00, r^2= 1.0D+00
   Bfn.  Coefficient  Atom+Function         Bfn.  Coefficient  Atom+Function  
  ----- ------------  ---------------      ----- ------------  ---------------
    10      0.881040  2 O  py                 6     -0.736847  2 O  py         
     9      0.660903  2 O  px                 5     -0.564158  2 O  px         
     4      0.263818  2 O  s                 11      0.230401  2 O  pz         
     7     -0.184875  2 O  pz         
 
 Vector   12  Occ=0.000000D+00  E= 1.387026D+00
              MO Center= -5.0D-01, -1.6D+00,  2.6D+00, r^2= 1.4D+00
   Bfn.  Coefficient  Atom+Function         Bfn.  Coefficient  Atom+Function  
  ----- ------------  ---------------      ----- ------------  ---------------
    11      1.140629  2 O  pz                 9     -1.012015  2 O  px         
     2      0.927754  1 H  s                 13     -0.913884  3 H  s          
     7     -0.739688  2 O  pz                 5      0.659435  2 O  px         
    10      0.488085  2 O  py                 6     -0.313288  2 O  py         
 
 Vector   13  Occ=0.000000D+00  E= 1.673988D+00
              MO Center= -3.5D-01, -1.4D+00,  2.7D+00, r^2= 1.2D+00
   Bfn.  Coefficient  Atom+Function         Bfn.  Coefficient  Atom+Function  
  ----- ------------  ---------------      ----- ------------  ---------------
     8      2.719835  2 O  s                  4     -1.701170  2 O  s          
     2     -0.664106  1 H  s                 13     -0.647810  3 H  s          
    10      0.559400  2 O  py                 9      0.426212  2 O  px         
    12     -0.331780  3 H  s                  1     -0.327593  1 H  s          
     6     -0.157201  2 O  py         
 

 center of mass
 --------------
 x =  -0.92917465 y =  -3.01653702 z =   4.93895608

 moments of inertia (a.u.)
 ------------------
           3.924693981154           0.096308248243           1.896794114038
           0.096308248243           4.896728093959          -1.277822468465
           1.896794114038          -1.277822468465           3.966077698630
 
     Multipole analysis of the density
     ---------------------------------
 
     L   x y z        total         alpha         beta         nuclear
     -   - - -        -----         -----         ----         -------
     0   0 0 0     -0.000000     -5.000000     -5.000000     10.000000
 
     1   1 0 0      0.629166      4.705361      4.705361     -8.781557
     1   0 1 0      0.833922     15.159658     15.159658    -29.485395
     1   0 0 1      0.208527    -24.676658    -24.676658     49.561844
 
     2   2 0 0     -5.149070     -7.625714     -7.625714     10.102359
     2   1 1 0     -2.802131    -14.260284    -14.260284     25.718437
     2   1 0 1      1.776147     23.600593     23.600593    -45.425038
     2   0 2 0     -9.631123    -48.975195    -48.975195     88.319266
     2   0 1 1      4.215708     74.554728     74.554728   -144.893749
     2   0 0 2     -1.898246   -124.968981   -124.968981    248.039717
 

          --------------
          Electric field
          --------------

 1 a.u. = 0.171524 10**(-8) dyn/esu 

   Atom       X         Y         Z                        Electric field (a.u.)
                                              X              Y              Z           Field
  ------------------------------------------------------------------------------------------------
    1 H    0.54802  -2.79302   4.03079       0.086185       0.012246      -0.053737       0.102301
    2 O   -0.99400  -3.10293   4.91707      -0.131411      -0.172430      -0.042429       0.220909
    3 H   -1.37761  -1.86894   6.19452      -0.024855       0.061416       0.067950       0.094905

 Task  times  cpu:        0.4s     wall:        0.4s
 
 
                                NWChem Input Module
                                -------------------
 
 
 Summary of allocated global arrays
-----------------------------------
  No active global arrays



                         GA Statistics for process    0
                         ------------------------------

       create   destroy   get      put      acc     scatter   gather  read&inc
calls:  212      212     2683      515     2753        0        0      513     
number of processes/call 1.00e+00 1.00e+00 1.00e+00 0.00e+00 0.00e+00
bytes total:             7.55e+05 2.54e+05 5.93e+05 0.00e+00 0.00e+00 4.10e+03
bytes remote:            0.00e+00 0.00e+00 0.00e+00 0.00e+00 0.00e+00 0.00e+00
Max memory consumed for GA by this process: 52728 bytes
 
MA_summarize_allocated_blocks: starting scan ...
MA_summarize_allocated_blocks: scan completed: 0 heap blocks, 0 stack blocks
MA usage statistics:

	allocation statistics:
					      heap	     stack
					      ----	     -----
	current number of blocks	         0	         0
	maximum number of blocks	        26	        26
	current total bytes		         0	         0
	maximum total bytes		   3214552	  22510488
	maximum total K-bytes		      3215	     22511
	maximum total M-bytes		         4	        23
 
 
                                     CITATION
                                     --------
                Please cite the following reference when publishing
                           results obtained with NWChem:
 
                 M. Valiev, E.J. Bylaska, N. Govind, K. Kowalski,
              T.P. Straatsma, H.J.J. van Dam, D. Wang, J. Nieplocha,
                        E. Apra, T.L. Windus, W.A. de Jong
                 "NWChem: a comprehensive and scalable open-source
                  solution for large scale molecular simulations"
                      Comput. Phys. Commun. 181, 1477 (2010)
                           doi:10.1016/j.cpc.2010.04.018
 
                                      AUTHORS
                                      -------
          E. Apra, E. J. Bylaska, W. A. de Jong, N. Govind, K. Kowalski,
       T. P. Straatsma, M. Valiev, H. J. J. van Dam, D. Wang, T. L. Windus,
        J. Hammond, J. Autschbach, K. Bhaskaran-Nair, J. Brabec, K. Lopata,
        S. Krishnamoorthy, W. Ma, M. Klemm, O. Villa, Y. Chen, V. Anisimov,
    F. Aquino, S. Hirata, M. T. Hackler, T. Risthaus, M. Malagoli, A. Marenich,
   A. Otero-de-la-Roza, J. Mullin, P. Nichols, R. Peverati, J. Pittner, Y. Zhao,
         P.-D. Fan, A. Fonari, R. J. Harrison, M. Dupuis, D. Silverstein,
    D. M. A. Smith, J. Nieplocha, V. Tipparaju, M. Krishnan, B. E. Van Kuiken,
        A. Vazquez-Mayagoitia, L. Jensen, M. Swart, Q. Wu, T. Van Voorhis,
     A. A. Auer, M. Nooijen, L. D. Crosby, E. Brown, G. Cisneros, G. I. Fann,
   H. Fruchtl, J. Garza, K. Hirao, R. A. Kendall, J. A. Nichols, K. Tsemekhman,
    K. Wolinski, J. Anchell, D. E. Bernholdt, P. Borowski, T. Clark, D. Clerc,
   H. Dachsel, M. J. O. Deegan, K. Dyall, D. Elwood, E. Glendening, M. Gutowski,
   A. C. Hess, J. Jaffe, B. G. Johnson, J. Ju, R. Kobayashi, R. Kutteh, Z. Lin,
   R. Littlefield, X. Long, B. Meng, T. Nakajima, S. Niu, L. Pollack, M. Rosing,
   K. Glaesemann, G. Sandrone, M. Stave, H. Taylor, G. Thomas, J. H. van Lenthe,
                               A. T. Wong, Z. Zhang.

 Total times  cpu:        0.4s     wall:        0.5s
