mpiexec_curie (handle_stdin_input 1064): stdin problem; if pgm is run in background, redirect from /dev/null
mpiexec_curie (handle_stdin_input 1065):     e.g.: mpiexec -n 4 a.out < /dev/null &
mpiexec_curie (handle_stdin_input 1064): stdin problem; if pgm is run in background, redirect from /dev/null
mpiexec_curie (handle_stdin_input 1065):     e.g.: mpiexec -n 4 a.out < /dev/null &
mpiexec_curie (handle_stdin_input 1064): stdin problem; if pgm is run in background, redirect from /dev/null
mpiexec_curie (handle_stdin_input 1065):     e.g.: mpiexec -n 4 a.out < /dev/null &
 argument  1 = prop_ch3f.nw
 


============================== echo of input deck ==============================
echo
title ch3f

geometry
c  0.0    0.0    0.0
f  0.0    0.0    1.383
h  1.028  0.0   -0.350
h -0.514  0.890 -0.350
h -0.514 -0.890 -0.350
end

basis
* library 6-311++G**
end

charge 0

property
  mulliken
  dipole
  quadrupole
  octupole
  esp
  efield
  efieldgrad
  electrondensity
  shielding
end

task scf property

dft
 xc b3lyp
end

task dft property
================================================================================


                                         
                                         
 
 
              Northwest Computational Chemistry Package (NWChem) 6.0
              ------------------------------------------------------
 
 
                    Environmental Molecular Sciences Laboratory
                       Pacific Northwest National Laboratory
                                Richland, WA 99352
 
                              Copyright (c) 1994-2010
                       Pacific Northwest National Laboratory
                            Battelle Memorial Institute
 
             NWChem is an open-source computational chemistry package
                        distributed under the terms of the
                      Educational Community License (ECL) 2.0
             A copy of the license is included with this distribution
                              in the LICENSE.TXT file
 
                                  ACKNOWLEDGMENT
                                  --------------

            This software and its documentation were developed at the
            EMSL at Pacific Northwest National Laboratory, a multiprogram
            national laboratory, operated for the U.S. Department of Energy
            by Battelle under Contract Number DE-AC05-76RL01830. Support
            for this work was provided by the Department of Energy Office
            of Biological and Environmental Research, Office of Basic
            Energy Sciences, and the Office of Advanced Scientific Computing.


           Job information
           ---------------

    hostname      = curie
    program       = ../../../bin/LINUX64/nwchem
    date          = Wed Sep  8 09:21:23 2010

    compiled      = Wed_Sep_08_09:18:36_2010
    source        = /home/niri/nwchem/nwchem-6.0_new
    nwchem branch = 6.0
    input         = prop_ch3f.nw
    prefix        = prop_ch3f.
    data base     = ./prop_ch3f.db
    status        = startup
    nproc         =        2
    time left     =     -1s



           Memory information
           ------------------

    heap     =   13107201 doubles =    100.0 Mbytes
    stack    =   13107201 doubles =    100.0 Mbytes
    global   =   26214400 doubles =    200.0 Mbytes (distinct from heap & stack)
    total    =   52428802 doubles =    400.0 Mbytes
    verify   = yes
    hardfail = no 


           Directory information
           ---------------------
 
  0 permanent = .
  0 scratch   = .
 
 
 
 
                                NWChem Input Module
                                -------------------
 
 
                                       ch3f
                                       ----

 Scaling coordinates for geometry "geometry" by  1.889725989
 (inverse scale =  0.529177249)

 C3V symmetry detected

          ------
          auto-z
          ------
  Looking for out-of-plane bends
 
 
                             Geometry "geometry" -> ""
                             -------------------------
 
 Output coordinates in angstroms (scale by  1.889725989 to convert to a.u.)
 
  No.       Tag          Charge          X              Y              Z
 ---- ---------------- ---------- -------------- -------------- --------------
    1 c                    6.0000     0.00000000     0.00000000     0.63316667
    2 f                    9.0000     0.00000000     0.00000000    -0.74983333
    3 h                    1.0000     0.72679386     0.72679386     0.98316667
    4 h                    1.0000     0.26602502    -0.99281888     0.98316667
    5 h                    1.0000    -0.99281888     0.26602502     0.98316667
 
      Atomic Mass 
      ----------- 
 
      c                 12.000000
      f                 18.998400
      h                  1.007825
 

 Effective nuclear repulsion energy (a.u.)      37.4174025709

            Nuclear Dipole moment (a.u.) 
            ----------------------------
        X                 Y               Z
 ---------------- ---------------- ----------------
     0.0000000000     0.0000000000     0.0000000000
 
      Symmetry information
      --------------------
 
 Group name             C3v       
 Group number             17
 Group order               6
 No. of unique centers     3
 
      Symmetry unique atoms
 
     1    2    3
 


                                Z-matrix (autoz)
                                -------- 

 Units are Angstrom for bonds and degrees for angles
 
      Type          Name      I     J     K     L     M      Value
      ----------- --------  ----- ----- ----- ----- ----- ----------
    1 Stretch                  1     2                       1.38300
    2 Stretch                  1     3                       1.08580
    3 Stretch                  1     4                       1.08580
    4 Stretch                  1     5                       1.08580
    5 Bend                     2     1     3               108.80470
    6 Bend                     2     1     4               108.80470
    7 Bend                     2     1     5               108.80470
    8 Bend                     3     1     4               110.12944
    9 Bend                     3     1     5               110.12944
   10 Bend                     4     1     5               110.12944
 
 
            XYZ format geometry
            -------------------
     5
 geometry
 c                     0.00000000     0.00000000     0.63316667
 f                     0.00000000     0.00000000    -0.74983333
 h                     0.72679386     0.72679386     0.98316667
 h                     0.26602502    -0.99281888     0.98316667
 h                    -0.99281888     0.26602502     0.98316667
 
 ==============================================================================
                                internuclear distances
 ------------------------------------------------------------------------------
       center one      |      center two      | atomic units |  angstroms
 ------------------------------------------------------------------------------
    2 f                |   1 c                |     2.61349  |     1.38300
    3 h                |   1 c                |     2.05186  |     1.08580
    4 h                |   1 c                |     2.05186  |     1.08580
    5 h                |   1 c                |     2.05186  |     1.08580
 ------------------------------------------------------------------------------
                         number of included internuclear distances:          4
 ==============================================================================



 ==============================================================================
                                 internuclear angles
 ------------------------------------------------------------------------------
        center 1       |       center 2       |       center 3       |  degrees
 ------------------------------------------------------------------------------
    2 f                |   1 c                |   3 h                |   108.80
    2 f                |   1 c                |   4 h                |   108.80
    2 f                |   1 c                |   5 h                |   108.80
    3 h                |   1 c                |   4 h                |   110.13
    3 h                |   1 c                |   5 h                |   110.13
    4 h                |   1 c                |   5 h                |   110.13
 ------------------------------------------------------------------------------
                            number of included internuclear angles:          6
 ==============================================================================



  library name resolved from: environment
  library file name is: </home/niri/nwchem/nwchem-6.0_new/src/basis/libraries/>
  


 Summary of "ao basis" -> "" (cartesian)
 ------------------------------------------------------------------------------
       Tag                 Description            Shells   Functions and Types
 ---------------- ------------------------------  ------  ---------------------
 *                         6-311++G**                 on all atoms 


                              NWChem Property Module
                              ----------------------
 
 
                                       ch3f
 
                      Basis "ao basis" -> "ao basis" (cartesian)
                      -----
  c (Carbon)
  ----------
            Exponent  Coefficients 
       -------------- ---------------------------------------------------------
  1 S  4.56324000E+03  0.001967
  1 S  6.82024000E+02  0.015231
  1 S  1.54973000E+02  0.076127
  1 S  4.44553000E+01  0.260801
  1 S  1.30290000E+01  0.616462
  1 S  1.82773000E+00  0.221006
 
  2 S  2.09642000E+01  0.114660
  2 S  4.80331000E+00  0.919999
  2 S  1.45933000E+00 -0.003031
 
  3 P  2.09642000E+01  0.040249
  3 P  4.80331000E+00  0.237594
  3 P  1.45933000E+00  0.815854
 
  4 S  4.83456000E-01  1.000000
 
  5 P  4.83456000E-01  1.000000
 
  6 S  1.45585000E-01  1.000000
 
  7 P  1.45585000E-01  1.000000
 
  8 S  4.38000000E-02  1.000000
 
  9 P  4.38000000E-02  1.000000
 
 10 D  6.26000000E-01  1.000000
 
  f (Fluorine)
  ------------
            Exponent  Coefficients 
       -------------- ---------------------------------------------------------
  1 S  1.14271000E+04  0.001801
  1 S  1.72235000E+03  0.013742
  1 S  3.95746000E+02  0.068133
  1 S  1.15139000E+02  0.233325
  1 S  3.36026000E+01  0.589086
  1 S  4.91901000E+00  0.299505
 
  2 S  5.54441000E+01  0.114536
  2 S  1.26323000E+01  0.920512
  2 S  3.71756000E+00 -0.003378
 
  3 P  5.54441000E+01  0.035461
  3 P  1.26323000E+01  0.237451
  3 P  3.71756000E+00  0.820458
 
  4 S  1.16545000E+00  1.000000
 
  5 P  1.16545000E+00  1.000000
 
  6 S  3.21892000E-01  1.000000
 
  7 P  3.21892000E-01  1.000000
 
  8 S  1.07600000E-01  1.000000
 
  9 P  1.07600000E-01  1.000000
 
 10 D  1.75000000E+00  1.000000
 
  h (Hydrogen)
  ------------
            Exponent  Coefficients 
       -------------- ---------------------------------------------------------
  1 S  3.38650000E+01  0.025494
  1 S  5.09479000E+00  0.190373
  1 S  1.15879000E+00  0.852161
 
  2 S  3.25840000E-01  1.000000
 
  3 S  1.02741000E-01  1.000000
 
  4 S  3.60000000E-02  1.000000
 
  5 P  7.50000000E-01  1.000000
 


 Summary of "ao basis" -> "ao basis" (cartesian)
 ------------------------------------------------------------------------------
       Tag                 Description            Shells   Functions and Types
 ---------------- ------------------------------  ------  ---------------------
 c                         6-311++G**               10       23   5s4p1d
 f                         6-311++G**               10       23   5s4p1d
 h                         6-311++G**                5        7   4s1p


                                 NWChem SCF Module
                                 -----------------
 
 
                                       ch3f
 
 

  ao basis        = "ao basis"
  functions       =    67
  atoms           =     5
  closed shells   =     9
  open shells     =     0
  charge          =   0.00
  wavefunction    = RHF 
  input vectors   = atomic
  output vectors  = ./prop_ch3f.movecs
  use symmetry    = F
  symmetry adapt  = F


 Summary of "ao basis" -> "ao basis" (cartesian)
 ------------------------------------------------------------------------------
       Tag                 Description            Shells   Functions and Types
 ---------------- ------------------------------  ------  ---------------------
 c                         6-311++G**               10       23   5s4p1d
 f                         6-311++G**               10       23   5s4p1d
 h                         6-311++G**                5        7   4s1p



 Forming initial guess at       0.1s

 
      Superposition of Atomic Density Guess
      -------------------------------------
 
 Sum of atomic energies:        -138.57644570
 
      Non-variational initial energy
      ------------------------------

 Total energy =    -139.239820
 1-e energy   =    -264.810328
 2-e energy   =      88.153106
 HOMO         =      -0.448860
 LUMO         =       0.032921
 

 Starting SCF solution at       0.4s



 ----------------------------------------------
         Quadratically convergent ROHF

 Convergence threshold     :          1.000E-06
 Maximum no. of iterations :           30
 Final Fock-matrix accuracy:          1.000E-08
 ----------------------------------------------


 Integral file          = ./prop_ch3f.aoints.0
 Record size in doubles =  65536        No. of integs per rec  =  43688
 Max. records in memory =     42        Max. records in file   =  11655
 No. of bits per label  =      8        No. of bits per value  =     64

mpiexec_curie (handle_stdin_input 1064): stdin problem; if pgm is run in background, redirect from /dev/null
mpiexec_curie (handle_stdin_input 1065):     e.g.: mpiexec -n 4 a.out < /dev/null &
mpiexec_curie (handle_stdin_input 1064): stdin problem; if pgm is run in background, redirect from /dev/null
mpiexec_curie (handle_stdin_input 1065):     e.g.: mpiexec -n 4 a.out < /dev/null &
mpiexec_curie (handle_stdin_input 1064): stdin problem; if pgm is run in background, redirect from /dev/null
mpiexec_curie (handle_stdin_input 1065):     e.g.: mpiexec -n 4 a.out < /dev/null &
mpiexec_curie (handle_stdin_input 1064): stdin problem; if pgm is run in background, redirect from /dev/null
mpiexec_curie (handle_stdin_input 1065):     e.g.: mpiexec -n 4 a.out < /dev/null &
mpiexec_curie (handle_stdin_input 1064): stdin problem; if pgm is run in background, redirect from /dev/null
mpiexec_curie (handle_stdin_input 1065):     e.g.: mpiexec -n 4 a.out < /dev/null &
mpiexec_curie (handle_stdin_input 1064): stdin problem; if pgm is run in background, redirect from /dev/null
mpiexec_curie (handle_stdin_input 1065):     e.g.: mpiexec -n 4 a.out < /dev/null &
mpiexec_curie (handle_stdin_input 1064): stdin problem; if pgm is run in background, redirect from /dev/null
mpiexec_curie (handle_stdin_input 1065):     e.g.: mpiexec -n 4 a.out < /dev/null &
mpiexec_curie (handle_stdin_input 1064): stdin problem; if pgm is run in background, redirect from /dev/null
mpiexec_curie (handle_stdin_input 1065):     e.g.: mpiexec -n 4 a.out < /dev/null &
mpiexec_curie (handle_stdin_input 1064): stdin problem; if pgm is run in background, redirect from /dev/null
mpiexec_curie (handle_stdin_input 1065):     e.g.: mpiexec -n 4 a.out < /dev/null &
mpiexec_curie (handle_stdin_input 1064): stdin problem; if pgm is run in background, redirect from /dev/null
mpiexec_curie (handle_stdin_input 1065):     e.g.: mpiexec -n 4 a.out < /dev/null &
mpiexec_curie (handle_stdin_input 1064): stdin problem; if pgm is run in background, redirect from /dev/null
mpiexec_curie (handle_stdin_input 1065):     e.g.: mpiexec -n 4 a.out < /dev/null &
mpiexec_curie (handle_stdin_input 1064): stdin problem; if pgm is run in background, redirect from /dev/null
mpiexec_curie (handle_stdin_input 1065):     e.g.: mpiexec -n 4 a.out < /dev/null &
mpiexec_curie (handle_stdin_input 1064): stdin problem; if pgm is run in background, redirect from /dev/null
mpiexec_curie (handle_stdin_input 1065):     e.g.: mpiexec -n 4 a.out < /dev/null &
mpiexec_curie (handle_stdin_input 1064): stdin problem; if pgm is run in background, redirect from /dev/null
mpiexec_curie (handle_stdin_input 1065):     e.g.: mpiexec -n 4 a.out < /dev/null &
mpiexec_curie (handle_stdin_input 1064): stdin problem; if pgm is run in background, redirect from /dev/null
mpiexec_curie (handle_stdin_input 1065):     e.g.: mpiexec -n 4 a.out < /dev/null &
mpiexec_curie (handle_stdin_input 1064): stdin problem; if pgm is run in background, redirect from /dev/null
mpiexec_curie (handle_stdin_input 1065):     e.g.: mpiexec -n 4 a.out < /dev/null &
mpiexec_curie (handle_stdin_input 1064): stdin problem; if pgm is run in background, redirect from /dev/null
mpiexec_curie (handle_stdin_input 1065):     e.g.: mpiexec -n 4 a.out < /dev/null &
mpiexec_curie (handle_stdin_input 1064): stdin problem; if pgm is run in background, redirect from /dev/null
mpiexec_curie (handle_stdin_input 1065):     e.g.: mpiexec -n 4 a.out < /dev/null &

 #quartets = 1.965D+05 #integrals = 2.214D+06 #direct =  0.0% #cached =100.0%


File balance: exchanges=     1  moved=     2  time=   0.0


              iter       energy          gnorm     gmax       time
             ----- ------------------- --------- --------- --------
                 1     -139.0516226166  7.55D-01  2.06D-01      0.6
mpiexec_curie (handle_stdin_input 1064): stdin problem; if pgm is run in background, redirect from /dev/null
mpiexec_curie (handle_stdin_input 1065):     e.g.: mpiexec -n 4 a.out < /dev/null &
mpiexec_curie (handle_stdin_input 1064): stdin problem; if pgm is run in background, redirect from /dev/null
mpiexec_curie (handle_stdin_input 1065):     e.g.: mpiexec -n 4 a.out < /dev/null &
mpiexec_curie (handle_stdin_input 1064): stdin problem; if pgm is run in background, redirect from /dev/null
mpiexec_curie (handle_stdin_input 1065):     e.g.: mpiexec -n 4 a.out < /dev/null &
mpiexec_curie (handle_stdin_input 1064): stdin problem; if pgm is run in background, redirect from /dev/null
mpiexec_curie (handle_stdin_input 1065):     e.g.: mpiexec -n 4 a.out < /dev/null &
mpiexec_curie (handle_stdin_input 1064): stdin problem; if pgm is run in background, redirect from /dev/null
mpiexec_curie (handle_stdin_input 1065):     e.g.: mpiexec -n 4 a.out < /dev/null &
mpiexec_curie (handle_stdin_input 1064): stdin problem; if pgm is run in background, redirect from /dev/null
mpiexec_curie (handle_stdin_input 1065):     e.g.: mpiexec -n 4 a.out < /dev/null &
                 2     -139.0794347262  2.56D-01  6.76D-02      0.7
mpiexec_curie (handle_stdin_input 1064): stdin problem; if pgm is run in background, redirect from /dev/null
mpiexec_curie (handle_stdin_input 1065):     e.g.: mpiexec -n 4 a.out < /dev/null &
mpiexec_curie (handle_stdin_input 1064): stdin problem; if pgm is run in background, redirect from /dev/null
mpiexec_curie (handle_stdin_input 1065):     e.g.: mpiexec -n 4 a.out < /dev/null &
mpiexec_curie (handle_stdin_input 1064): stdin problem; if pgm is run in background, redirect from /dev/null
mpiexec_curie (handle_stdin_input 1065):     e.g.: mpiexec -n 4 a.out < /dev/null &
mpiexec_curie (handle_stdin_input 1064): stdin problem; if pgm is run in background, redirect from /dev/null
mpiexec_curie (handle_stdin_input 1065):     e.g.: mpiexec -n 4 a.out < /dev/null &
mpiexec_curie (handle_stdin_input 1064): stdin problem; if pgm is run in background, redirect from /dev/null
mpiexec_curie (handle_stdin_input 1065):     e.g.: mpiexec -n 4 a.out < /dev/null &
mpiexec_curie (handle_stdin_input 1064): stdin problem; if pgm is run in background, redirect from /dev/null
mpiexec_curie (handle_stdin_input 1065):     e.g.: mpiexec -n 4 a.out < /dev/null &
                 3     -139.0831397142  1.25D-02  2.78D-03      0.8
mpiexec_curie (handle_stdin_input 1064): stdin problem; if pgm is run in background, redirect from /dev/null
mpiexec_curie (handle_stdin_input 1065):     e.g.: mpiexec -n 4 a.out < /dev/null &
mpiexec_curie (handle_stdin_input 1064): stdin problem; if pgm is run in background, redirect from /dev/null
mpiexec_curie (handle_stdin_input 1065):     e.g.: mpiexec -n 4 a.out < /dev/null &
mpiexec_curie (handle_stdin_input 1064): stdin problem; if pgm is run in background, redirect from /dev/null
mpiexec_curie (handle_stdin_input 1065):     e.g.: mpiexec -n 4 a.out < /dev/null &
mpiexec_curie (handle_stdin_input 1064): stdin problem; if pgm is run in background, redirect from /dev/null
mpiexec_curie (handle_stdin_input 1065):     e.g.: mpiexec -n 4 a.out < /dev/null &
mpiexec_curie (handle_stdin_input 1064): stdin problem; if pgm is run in background, redirect from /dev/null
mpiexec_curie (handle_stdin_input 1065):     e.g.: mpiexec -n 4 a.out < /dev/null &
mpiexec_curie (handle_stdin_input 1064): stdin problem; if pgm is run in background, redirect from /dev/null
mpiexec_curie (handle_stdin_input 1065):     e.g.: mpiexec -n 4 a.out < /dev/null &
mpiexec_curie (handle_stdin_input 1064): stdin problem; if pgm is run in background, redirect from /dev/null
mpiexec_curie (handle_stdin_input 1065):     e.g.: mpiexec -n 4 a.out < /dev/null &
                 4     -139.0831526326  9.49D-05  2.47D-05      1.1
mpiexec_curie (handle_stdin_input 1064): stdin problem; if pgm is run in background, redirect from /dev/null
mpiexec_curie (handle_stdin_input 1065):     e.g.: mpiexec -n 4 a.out < /dev/null &
mpiexec_curie (handle_stdin_input 1064): stdin problem; if pgm is run in background, redirect from /dev/null
mpiexec_curie (handle_stdin_input 1065):     e.g.: mpiexec -n 4 a.out < /dev/null &
mpiexec_curie (handle_stdin_input 1064): stdin problem; if pgm is run in background, redirect from /dev/null
mpiexec_curie (handle_stdin_input 1065):     e.g.: mpiexec -n 4 a.out < /dev/null &
mpiexec_curie (handle_stdin_input 1064): stdin problem; if pgm is run in background, redirect from /dev/null
mpiexec_curie (handle_stdin_input 1065):     e.g.: mpiexec -n 4 a.out < /dev/null &
mpiexec_curie (handle_stdin_input 1064): stdin problem; if pgm is run in background, redirect from /dev/null
mpiexec_curie (handle_stdin_input 1065):     e.g.: mpiexec -n 4 a.out < /dev/null &
mpiexec_curie (handle_stdin_input 1064): stdin problem; if pgm is run in background, redirect from /dev/null
mpiexec_curie (handle_stdin_input 1065):     e.g.: mpiexec -n 4 a.out < /dev/null &
mpiexec_curie (handle_stdin_input 1064): stdin problem; if pgm is run in background, redirect from /dev/null
mpiexec_curie (handle_stdin_input 1065):     e.g.: mpiexec -n 4 a.out < /dev/null &
mpiexec_curie (handle_stdin_input 1064): stdin problem; if pgm is run in background, redirect from /dev/null
mpiexec_curie (handle_stdin_input 1065):     e.g.: mpiexec -n 4 a.out < /dev/null &
                 5     -139.0831526336  9.25D-08  2.96D-08      1.3


       Final RHF  results 
       ------------------ 

         Total SCF energy =   -139.083152633596
      One-electron energy =   -266.467568027245
      Two-electron energy =     89.967012822749
 Nuclear repulsion energy =     37.417402570901

        Time for solution =      1.0s


             Final eigenvalues
             -----------------

              1      
    1  -26.2767
    2  -11.3082
    3   -1.5879
    4   -0.9586
    5   -0.6967
    6   -0.6967
    7   -0.6752
    8   -0.5334
    9   -0.5334
   10    0.0399
   11    0.0719
   12    0.0719
   13    0.0976
   14    0.1506
   15    0.1506
   16    0.1818
   17    0.2888
   18    0.2912
   19    0.2912
 
                       ROHF Final Molecular Orbital Analysis
                       -------------------------------------
 
 Vector    2  Occ=2.000000D+00  E=-1.130821D+01
              MO Center=  7.9D-13,  7.9D-13,  6.3D-01, r^2= 2.7D-02
   Bfn.  Coefficient  Atom+Function         Bfn.  Coefficient  Atom+Function  
  ----- ------------  ---------------      ----- ------------  ---------------
     1      0.563566  1 C  s                  2      0.466114  1 C  s          
 
 Vector    3  Occ=2.000000D+00  E=-1.587860D+00
              MO Center=  4.1D-10,  4.1D-10, -6.1D-01, r^2= 4.1D-01
   Bfn.  Coefficient  Atom+Function         Bfn.  Coefficient  Atom+Function  
  ----- ------------  ---------------      ----- ------------  ---------------
    29      0.592410  2 F  s                 33      0.472545  2 F  s          
    25     -0.201575  2 F  s          
 
 Vector    4  Occ=2.000000D+00  E=-9.586035D-01
              MO Center= -6.1D-10, -6.1D-10,  5.0D-01, r^2= 1.3D+00
   Bfn.  Coefficient  Atom+Function         Bfn.  Coefficient  Atom+Function  
  ----- ------------  ---------------      ----- ------------  ---------------
     6      0.424967  1 C  s                 10      0.269362  1 C  s          
    33     -0.186710  2 F  s                 29     -0.173528  2 F  s          
     2     -0.162695  1 C  s                 32      0.153334  2 F  pz         
 
 Vector    5  Occ=2.000000D+00  E=-6.966803D-01
              MO Center=  5.0D-02,  5.0D-02, -2.0D-01, r^2= 1.2D+00
   Bfn.  Coefficient  Atom+Function         Bfn.  Coefficient  Atom+Function  
  ----- ------------  ---------------      ----- ------------  ---------------
    30      0.255658  2 F  px                31      0.255657  2 F  py         
    34      0.217486  2 F  px                35      0.217486  2 F  py         
    26      0.167746  2 F  px                27      0.167746  2 F  py         
 
 Vector    6  Occ=2.000000D+00  E=-6.966803D-01
              MO Center= -5.0D-02, -5.0D-02, -2.0D-01, r^2= 1.2D+00
   Bfn.  Coefficient  Atom+Function         Bfn.  Coefficient  Atom+Function  
  ----- ------------  ---------------      ----- ------------  ---------------
    31      0.255658  2 F  py                30     -0.255657  2 F  px         
    35      0.217486  2 F  py                34     -0.217486  2 F  px         
    27      0.167746  2 F  py                26     -0.167746  2 F  px         
 
 Vector    7  Occ=2.000000D+00  E=-6.752109D-01
              MO Center= -1.0D-08, -1.0D-08, -2.0D-01, r^2= 1.3D+00
   Bfn.  Coefficient  Atom+Function         Bfn.  Coefficient  Atom+Function  
  ----- ------------  ---------------      ----- ------------  ---------------
    32      0.365684  2 F  pz                36      0.277312  2 F  pz         
     9     -0.255365  1 C  pz                28      0.237635  2 F  pz         
 
 Vector    8  Occ=2.000000D+00  E=-5.333926D-01
              MO Center=  1.3D-01,  1.3D-01,  2.9D-01, r^2= 1.6D+00
   Bfn.  Coefficient  Atom+Function         Bfn.  Coefficient  Atom+Function  
  ----- ------------  ---------------      ----- ------------  ---------------
    48      0.240048  3 H  s                 30     -0.211075  2 F  px         
    31     -0.211070  2 F  py                34     -0.199238  2 F  px         
    35     -0.199234  2 F  py                 7      0.170989  1 C  px         
     8      0.170985  1 C  py         
 
 Vector    9  Occ=2.000000D+00  E=-5.333926D-01
              MO Center= -1.3D-01, -1.3D-01,  2.9D-01, r^2= 1.6D+00
   Bfn.  Coefficient  Atom+Function         Bfn.  Coefficient  Atom+Function  
  ----- ------------  ---------------      ----- ------------  ---------------
    31      0.211075  2 F  py                30     -0.211070  2 F  px         
    55      0.207889  4 H  s                 62     -0.207886  5 H  s          
    35      0.199238  2 F  py                34     -0.199234  2 F  px         
     8     -0.170989  1 C  py                 7      0.170985  1 C  px         
 
 Vector   10  Occ=0.000000D+00  E= 3.992796D-02
              MO Center= -2.2D-07, -2.2D-07,  1.7D+00, r^2= 1.4D+01
   Bfn.  Coefficient  Atom+Function         Bfn.  Coefficient  Atom+Function  
  ----- ------------  ---------------      ----- ------------  ---------------
    14      5.646285  1 C  s                 64     -1.940471  5 H  s          
    57     -1.940471  4 H  s                 50     -1.940469  3 H  s          
    37     -0.582858  2 F  s                 17      0.352233  1 C  pz         
    56     -0.298300  4 H  s                 63     -0.298300  5 H  s          
    49     -0.298300  3 H  s                 10      0.241737  1 C  s          
 
 Vector   11  Occ=0.000000D+00  E= 7.185522D-02
              MO Center=  8.4D-01,  8.4D-01,  1.4D+00, r^2= 1.4D+01
   Bfn.  Coefficient  Atom+Function         Bfn.  Coefficient  Atom+Function  
  ----- ------------  ---------------      ----- ------------  ---------------
    50      4.518556  3 H  s                 64     -2.259337  5 H  s          
    57     -2.259219  4 H  s                 15     -0.967444  1 C  px         
    16     -0.967414  1 C  py                49     -0.434851  3 H  s          
    63      0.217431  5 H  s                 56      0.217420  4 H  s          
 
 Vector   12  Occ=0.000000D+00  E= 7.185522D-02
              MO Center= -8.4D-01, -8.4D-01,  1.4D+00, r^2= 1.4D+01
   Bfn.  Coefficient  Atom+Function         Bfn.  Coefficient  Atom+Function  
  ----- ------------  ---------------      ----- ------------  ---------------
    57      3.913218  4 H  s                 64     -3.913150  5 H  s          
    16      0.967443  1 C  py                15     -0.967414  1 C  px         
    56     -0.376596  4 H  s                 63      0.376589  5 H  s          
 
 Vector   13  Occ=0.000000D+00  E= 9.757426D-02
              MO Center= -2.6D-07, -2.6D-07,  4.4D-01, r^2= 1.0D+01
   Bfn.  Coefficient  Atom+Function         Bfn.  Coefficient  Atom+Function  
  ----- ------------  ---------------      ----- ------------  ---------------
    17      1.549483  1 C  pz                37      1.103580  2 F  s          
    14      0.948732  1 C  s                 50     -0.415904  3 H  s          
    57     -0.415903  4 H  s                 64     -0.415903  5 H  s          
    49     -0.279470  3 H  s                 56     -0.279470  4 H  s          
    63     -0.279470  5 H  s                 10     -0.261408  1 C  s          
 
 Vector   14  Occ=0.000000D+00  E= 1.506274D-01
              MO Center= -5.2D-01, -5.2D-01,  5.9D-01, r^2= 1.0D+01
   Bfn.  Coefficient  Atom+Function         Bfn.  Coefficient  Atom+Function  
  ----- ------------  ---------------      ----- ------------  ---------------
    50      5.487241  3 H  s                 15     -3.030460  1 C  px         
    16     -3.030443  1 C  py                64     -2.743636  5 H  s          
    57     -2.743608  4 H  s                 49      1.188870  3 H  s          
    63     -0.594439  5 H  s                 56     -0.594433  4 H  s          
    38      0.315932  2 F  px                39      0.315930  2 F  py         
 
 Vector   15  Occ=0.000000D+00  E= 1.506274D-01
              MO Center=  5.2D-01,  5.2D-01,  5.9D-01, r^2= 1.0D+01
   Bfn.  Coefficient  Atom+Function         Bfn.  Coefficient  Atom+Function  
  ----- ------------  ---------------      ----- ------------  ---------------
    57      4.752099  4 H  s                 64     -4.752083  5 H  s          
    16      3.030460  1 C  py                15     -3.030443  1 C  px         
    56      1.029594  4 H  s                 63     -1.029591  5 H  s          
    39     -0.315932  2 F  py                38      0.315930  2 F  px         
 
 Vector   16  Occ=0.000000D+00  E= 1.817990D-01
              MO Center=  5.0D-07,  5.0D-07,  1.4D+00, r^2= 1.2D+01
   Bfn.  Coefficient  Atom+Function         Bfn.  Coefficient  Atom+Function  
  ----- ------------  ---------------      ----- ------------  ---------------
    14     14.280589  1 C  s                 50     -3.379345  3 H  s          
    64     -3.379342  5 H  s                 57     -3.379342  4 H  s          
    37     -2.219939  2 F  s                 49     -1.353740  3 H  s          
    56     -1.353740  4 H  s                 63     -1.353740  5 H  s          
    17      1.154727  1 C  pz                40     -0.588580  2 F  pz         
 
 Vector   17  Occ=0.000000D+00  E= 2.887575D-01
              MO Center=  8.6D-07,  8.6D-07,  1.2D-01, r^2= 6.9D+00
   Bfn.  Coefficient  Atom+Function         Bfn.  Coefficient  Atom+Function  
  ----- ------------  ---------------      ----- ------------  ---------------
    14      6.559380  1 C  s                 10      3.394225  1 C  s          
    49     -2.291419  3 H  s                 56     -2.291414  4 H  s          
    63     -2.291414  5 H  s                 64     -1.022277  5 H  s          
    57     -1.022277  4 H  s                 50     -1.022273  3 H  s          
    37     -1.009702  2 F  s                 40     -0.960512  2 F  pz         
 
 Vector   18  Occ=0.000000D+00  E= 2.912160D-01
              MO Center= -5.4D-01, -5.4D-01,  1.1D+00, r^2= 6.4D+00
   Bfn.  Coefficient  Atom+Function         Bfn.  Coefficient  Atom+Function  
  ----- ------------  ---------------      ----- ------------  ---------------
    64      2.500840  5 H  s                 57     -2.500800  4 H  s          
    63     -2.495466  5 H  s                 56      2.495427  4 H  s          
    11     -1.091091  1 C  px                12      1.091062  1 C  py         
    15      0.528684  1 C  px                16     -0.528669  1 C  py         
 
 Vector   19  Occ=0.000000D+00  E= 2.912160D-01
              MO Center=  5.4D-01,  5.4D-01,  1.1D+00, r^2= 6.4D+00
   Bfn.  Coefficient  Atom+Function         Bfn.  Coefficient  Atom+Function  
  ----- ------------  ---------------      ----- ------------  ---------------
    50      2.887699  3 H  s                 49     -2.881491  3 H  s          
    57     -1.443882  4 H  s                 64     -1.443814  5 H  s          
    56      1.440783  4 H  s                 63      1.440715  5 H  s          
    12      1.091091  1 C  py                11      1.091062  1 C  px         
    16     -0.528684  1 C  py                15     -0.528669  1 C  px         
 
 Vector   20  Occ=0.000000D+00  E= 3.408211D-01
              MO Center=  1.1D-08,  1.1D-08,  4.3D-01, r^2= 4.5D+00
   Bfn.  Coefficient  Atom+Function         Bfn.  Coefficient  Atom+Function  
  ----- ------------  ---------------      ----- ------------  ---------------
    13      1.519660  1 C  pz                10     -1.092697  1 C  s          
    33      1.089436  2 F  s                 17     -1.074501  1 C  pz         
    40      0.711096  2 F  pz                36      0.345415  2 F  pz         
    37     -0.330694  2 F  s                 14     -0.285193  1 C  s          
     9      0.212690  1 C  pz                32      0.182615  2 F  pz         
 
 Vector   21  Occ=0.000000D+00  E= 3.772361D-01
              MO Center=  4.0D-02,  4.0D-02, -7.4D-01, r^2= 5.1D+00
   Bfn.  Coefficient  Atom+Function         Bfn.  Coefficient  Atom+Function  
  ----- ------------  ---------------      ----- ------------  ---------------
    64      1.342692  5 H  s                 57     -1.342689  4 H  s          
    38     -1.330151  2 F  px                39      1.330146  2 F  py         
    15      1.012112  1 C  px                16     -1.012108  1 C  py         
    11      0.502039  1 C  px                12     -0.502037  1 C  py         
    34      0.386584  2 F  px                35     -0.386583  2 F  py         
 
 Vector   22  Occ=0.000000D+00  E= 3.772361D-01
              MO Center= -4.0D-02, -4.0D-02, -7.4D-01, r^2= 5.1D+00
   Bfn.  Coefficient  Atom+Function         Bfn.  Coefficient  Atom+Function  
  ----- ------------  ---------------      ----- ------------  ---------------
    50      1.550406  3 H  s                 39      1.330151  2 F  py         
    38      1.330146  2 F  px                16     -1.012112  1 C  py         
    15     -1.012108  1 C  px                57     -0.775205  4 H  s          
    64     -0.775200  5 H  s                 12     -0.502039  1 C  py         
    11     -0.502037  1 C  px                35     -0.386584  2 F  py         
 
 Vector   23  Occ=0.000000D+00  E= 3.851892D-01
              MO Center=  3.1D-08,  3.1D-08, -6.3D-01, r^2= 6.8D+00
   Bfn.  Coefficient  Atom+Function         Bfn.  Coefficient  Atom+Function  
  ----- ------------  ---------------      ----- ------------  ---------------
    14      7.485159  1 C  s                 63     -2.564229  5 H  s          
    56     -2.564229  4 H  s                 49     -2.564229  3 H  s          
    40      2.415661  2 F  pz                50     -1.223852  3 H  s          
    57     -1.223852  4 H  s                 64     -1.223852  5 H  s          
    37      1.196378  2 F  s                 13      1.056049  1 C  pz         
 
 Vector   24  Occ=0.000000D+00  E= 5.295881D-01
              MO Center=  1.4D-08,  1.4D-08, -3.6D-01, r^2= 5.9D+00
   Bfn.  Coefficient  Atom+Function         Bfn.  Coefficient  Atom+Function  
  ----- ------------  ---------------      ----- ------------  ---------------
    14      9.386279  1 C  s                 37     -7.367080  2 F  s          
    10      4.207607  1 C  s                 13     -2.182301  1 C  pz         
    40     -2.048559  2 F  pz                57     -1.757882  4 H  s          
    64     -1.757882  5 H  s                 50     -1.757882  3 H  s          
    33      1.135803  2 F  s                 63     -1.067592  5 H  s          
 

 center of mass
 --------------
 x =   0.00000000 y =   0.00000000 z =  -0.20412880

 moments of inertia (a.u.)
 ------------------
          70.047499012709           0.000000000000           0.000000000000
           0.000000000000          70.047499012709           0.000000000000
           0.000000000000           0.000000000000          11.406608960443
 
  Mulliken analysis of the total density
  --------------------------------------

    Atom       Charge   Shell Charges
 -----------   ------   -------------------------------------------------------
    1 C    6     6.14   1.10  0.89  0.56  0.72  1.49  0.47  0.69  0.10  0.01  0.11
    2 F    9     9.24   1.08  0.92  1.14  1.08  2.42  0.91  1.74 -0.08  0.03 -0.01
    3 H    1     0.87   0.27  0.53  0.06 -0.01  0.02
    4 H    1     0.87   0.27  0.53  0.06 -0.01  0.02
    5 H    1     0.87   0.27  0.53  0.06 -0.01  0.02
 
       Multipole analysis of the density wrt the origin
       ------------------------------------------------
 
     L   x y z        total         open         nuclear
     -   - - -        -----         ----         -------
     0   0 0 0      0.000000      0.000000     18.000000
 
     1   1 0 0      0.000000      0.000000      0.000000
     1   0 1 0      0.000000      0.000000      0.000000
     1   0 0 1      0.882910      0.000000      0.000000
 
     2   2 0 0     -8.725694      0.000000      5.659023
     2   1 1 0      0.000000      0.000000      0.000000
     2   1 0 1      0.000000      0.000000      0.000000
     2   0 2 0     -8.725694      0.000000      5.659023
     2   0 1 1      0.000000      0.000000      0.000000
     2   0 0 2     -9.432077      0.000000     37.015869
 

 Parallel integral file used      52 records with       0 large values


          -------------
          Dipole Moment
          -------------

 Center of charge (in au) is the expansion point
         X =       0.0000000 Y =       0.0000000 Z =       0.0000000

   Dipole moment        0.8829104035 A.U.
             DMX        0.0000000168 DMXEFC        0.0000000000
             DMY        0.0000000168 DMYEFC        0.0000000000
             DMZ        0.8829104035 DMZEFC        0.0000000000
   -EFC- dipole         0.0000000000 A.U.
   Total dipole         0.8829104035 A.U.

   Dipole moment        2.2441513622 Debye(s)
             DMX        0.0000000426 DMXEFC        0.0000000000
             DMY        0.0000000426 DMYEFC        0.0000000000
             DMZ        2.2441513622 DMZEFC        0.0000000000
   -EFC- dipole         0.0000000000 DEBYE(S)
   Total dipole         2.2441513622 DEBYE(S)

 1 a.u. = 2.541766 Debyes 

          -----------------
          Quadrupole Moment
          -----------------

 Center of charge (in au) is the expansion point
         X =       0.0000000 Y =       0.0000000 Z =       0.0000000

 < R**2 > =  75.217379 a.u.  ( 1 a.u. = 0.280023 10**(-16) cm**2 ) 
 ( also called diamagnetic susceptibility ) 

   Second moments in atomic units

   Component  Electronic+nuclear     Point charges             Total
  --------------------------------------------------------------------------
      XX           -8.7256939633          0.0000000000         -8.7256939633
      YY           -8.7256939633          0.0000000000         -8.7256939633
      ZZ           -9.4320768323          0.0000000000         -9.4320768323
      XY            0.0000000013          0.0000000000          0.0000000013
      XZ            0.0000000208          0.0000000000          0.0000000208
      YZ            0.0000000208          0.0000000000          0.0000000208

   Second moments in buckingham(s)

   Component  Electronic+nuclear     Point charges             Total
  --------------------------------------------------------------------------
      XX          -11.7352817939          0.0000000000        -11.7352817939
      YY          -11.7352817939          0.0000000000        -11.7352817939
      ZZ          -12.6853038847          0.0000000000        -12.6853038847
      XY            0.0000000018          0.0000000000          0.0000000018
      XZ            0.0000000280          0.0000000000          0.0000000280
      YZ            0.0000000280          0.0000000000          0.0000000280

   Quadrupole moments in atomic units

   Component  Electronic+nuclear     Point charges             Total
  --------------------------------------------------------------------------
      XX            0.3531914345          0.0000000000          0.3531914345
      YY            0.3531914345          0.0000000000          0.3531914345
      ZZ           -0.7063828690          0.0000000000         -0.7063828690
      XY            0.0000000020          0.0000000000          0.0000000020
      XZ            0.0000000312          0.0000000000          0.0000000312
      YZ            0.0000000312          0.0000000000          0.0000000312

   Quadrupole moments in buckingham(s)

   Component  Electronic+nuclear     Point charges             Total
  --------------------------------------------------------------------------
      XX            0.4750110454          0.0000000000          0.4750110454
      YY            0.4750110454          0.0000000000          0.4750110454
      ZZ           -0.9500220908          0.0000000000         -0.9500220908
      XY            0.0000000027          0.0000000000          0.0000000027
      XZ            0.0000000420          0.0000000000          0.0000000420
      YZ            0.0000000420          0.0000000000          0.0000000420

 1 a.u. = 1.344911 Buckinghams = 1.344911 10**(-26) esu*cm**2 

          ---------------
          Octupole Moment
          ---------------

 Center of charge (in au) is the expansion point
         X =       0.0000000 Y =       0.0000000 Z =       0.0000000

   Third moments in atomic units

   Component  Electronic+nuclear     Point charges             Total
  --------------------------------------------------------------------------
      XXX          -0.6471102812          0.0000000000         -0.6471102812
      YYY          -0.6471102812          0.0000000000         -0.6471102812
      ZZZ          -4.8801568165          0.0000000000         -4.8801568165
      XXY           0.6471106407          0.0000000000          0.6471106407
      XXZ          -1.4493469946          0.0000000000         -1.4493469946
      YYX           0.6471106407          0.0000000000          0.6471106407
      YYZ          -1.4493469946          0.0000000000         -1.4493469946
      ZZX           0.0000000924          0.0000000000          0.0000000924
      ZZY           0.0000000924          0.0000000000          0.0000000924
      XYZ           0.0000000202          0.0000000000          0.0000000202

   Third moments in 10**(-34) esu*cm**3

   Component  Electronic+nuclear     Point charges             Total
  --------------------------------------------------------------------------
      XXX          -0.4605406218          0.0000000000         -0.4605406218
      YYY          -0.4605406218          0.0000000000         -0.4605406218
      ZZZ          -3.4731490444          0.0000000000         -3.4731490444
      XXY           0.4605408777          0.0000000000          0.4605408777
      XXZ          -1.0314828639          0.0000000000         -1.0314828639
      YYX           0.4605408777          0.0000000000          0.4605408777
      YYZ          -1.0314828639          0.0000000000         -1.0314828639
      ZZX           0.0000000657          0.0000000000          0.0000000657
      ZZY           0.0000000657          0.0000000000          0.0000000657
      XYZ           0.0000000144          0.0000000000          0.0000000144

   Octupole moments in atomic units

   Component  Electronic+nuclear     Point charges             Total
  --------------------------------------------------------------------------
      XXX          -1.6177763808          0.0000000000         -1.6177763808
      YYY          -1.6177763808          0.0000000000         -1.6177763808
      ZZZ          -0.5321158327          0.0000000000         -0.5321158327
      XXY           1.6177763759          0.0000000000          1.6177763759
      XXZ           0.2660579163          0.0000000000          0.2660579163
      YYX           1.6177763759          0.0000000000          1.6177763759
      YYZ           0.2660579164          0.0000000000          0.2660579164
      ZZX           0.0000000049          0.0000000000          0.0000000049
      ZZY           0.0000000049          0.0000000000          0.0000000049
      XYZ           0.0000000505          0.0000000000          0.0000000505

   Octupole moments in 10**(-34) esu*cm**3

   Component  Electronic+nuclear     Point charges             Total
  --------------------------------------------------------------------------
      XXX          -1.1513520369          0.0000000000         -1.1513520369
      YYY          -1.1513520369          0.0000000000         -1.1513520369
      ZZZ          -0.3787004528          0.0000000000         -0.3787004528
      XXY           1.1513520334          0.0000000000          1.1513520334
      XXZ           0.1893502264          0.0000000000          0.1893502264
      YYX           1.1513520334          0.0000000000          1.1513520334
      YYZ           0.1893502264          0.0000000000          0.1893502264
      ZZX           0.0000000035          0.0000000000          0.0000000035
      ZZY           0.0000000035          0.0000000000          0.0000000035
      XYZ           0.0000000360          0.0000000000          0.0000000360

 1 a.u. = 0.711688 10**(-34) esu*cm**3 


          ----------------------------
          Mulliken population analysis
          ----------------------------

          ----- Total      overlap population -----

                               1              2              3              4              5              6              7

    1  1 C  s             0.6563520427   0.4922631318   0.0000000000   0.0000000000   0.0000000000  -0.0282069829   0.0000000000
    2  1 C  s             0.4922631318   0.4925058271   0.0000000000   0.0000000000   0.0000000000  -0.0611429674   0.0000000000
    3  1 C  px            0.0000000000   0.0000000000   0.0801507841   0.0000000000   0.0000000000   0.0000000000   0.0796436560
    4  1 C  py            0.0000000000   0.0000000000   0.0000000000   0.0801507841   0.0000000000   0.0000000000   0.0000000000
    5  1 C  pz            0.0000000000   0.0000000000   0.0000000000   0.0000000000   0.0418607200   0.0000000000   0.0000000000
    6  1 C  s            -0.0282069829  -0.0611429674   0.0000000000   0.0000000000   0.0000000000   0.3887072827   0.0000000000
    7  1 C  px            0.0000000000   0.0000000000   0.0796436560   0.0000000000   0.0000000000   0.0000000000   0.2002612765
    8  1 C  py            0.0000000000   0.0000000000   0.0000000000   0.0796436560   0.0000000000   0.0000000000   0.0000000000
    9  1 C  pz            0.0000000000   0.0000000000   0.0000000000   0.0000000000   0.0478757873   0.0000000000   0.0000000000
   10  1 C  s            -0.0084201317  -0.0171684203   0.0000000000   0.0000000000   0.0000000000   0.1862444338   0.0000000000
   11  1 C  px            0.0000000000   0.0000000000   0.0169602733   0.0000000000   0.0000000000   0.0000000000   0.0793772083
   12  1 C  py            0.0000000000   0.0000000000   0.0000000000   0.0169602733   0.0000000000   0.0000000000   0.0000000000
   13  1 C  pz            0.0000000000   0.0000000000   0.0000000000   0.0000000000   0.0062806472   0.0000000000   0.0000000000
   14  1 C  s            -0.0006152297  -0.0012840044   0.0000000000   0.0000000000   0.0000000000   0.0175163984   0.0000000000
   15  1 C  px            0.0000000000   0.0000000000  -0.0000615394   0.0000000000   0.0000000000   0.0000000000  -0.0003078356
   16  1 C  py            0.0000000000   0.0000000000   0.0000000000  -0.0000615394   0.0000000000   0.0000000000   0.0000000000
   17  1 C  pz            0.0000000000   0.0000000000   0.0000000000   0.0000000000  -0.0000575654   0.0000000000   0.0000000000
   18  1 C  dxx          -0.0000450681  -0.0000235637   0.0000000000   0.0000000000   0.0000000000  -0.0007688366   0.0000000000
   19  1 C  dxy           0.0000000000   0.0000000000   0.0000000000   0.0000000000   0.0000000000   0.0000000000   0.0000000000
   20  1 C  dxz           0.0000000000   0.0000000000   0.0000000000   0.0000000000   0.0000000000   0.0000000000   0.0000000000
   21  1 C  dyy          -0.0000450681  -0.0000235637   0.0000000000   0.0000000000   0.0000000000  -0.0007688366   0.0000000000
   22  1 C  dyz           0.0000000000   0.0000000000   0.0000000000   0.0000000000   0.0000000000   0.0000000000   0.0000000000
   23  1 C  dzz          -0.0001653340  -0.0001939115   0.0000000000   0.0000000000   0.0000000000   0.0033117941   0.0000000000
   24  2 F  s             0.0000000038  -0.0000000003   0.0000000000   0.0000000000  -0.0000027301   0.0000084111   0.0000000000
   25  2 F  s             0.0000000015  -0.0000000002   0.0000000000   0.0000000000  -0.0000024439   0.0000227891   0.0000000000
   26  2 F  px            0.0000000000   0.0000000000  -0.0000016520   0.0000000000   0.0000000000   0.0000000000   0.0000193668
   27  2 F  py            0.0000000000   0.0000000000   0.0000000000  -0.0000016520   0.0000000000   0.0000000000   0.0000000000
   28  2 F  pz           -0.0000019016   0.0000000540   0.0000000000   0.0000000000   0.0003423057   0.0018449432   0.0000000000
   29  2 F  s            -0.0000025514  -0.0000014371   0.0000000000   0.0000000000   0.0007309326  -0.0010172550   0.0000000000
   30  2 F  px            0.0000000000   0.0000000000  -0.0000523913   0.0000000000   0.0000000000   0.0000000000   0.0002471888
   31  2 F  py            0.0000000000   0.0000000000   0.0000000000  -0.0000523913   0.0000000000   0.0000000000   0.0000000000
   32  2 F  pz           -0.0001545545  -0.0001876489   0.0000000000   0.0000000000   0.0075716653   0.0147794646   0.0000000000
   33  2 F  s             0.0002720565   0.0005313761   0.0000000000   0.0000000000   0.0009670752  -0.0118345224   0.0000000000
   34  2 F  px            0.0000000000   0.0000000000  -0.0010002450   0.0000000000   0.0000000000   0.0000000000  -0.0027196481
   35  2 F  py            0.0000000000   0.0000000000   0.0000000000  -0.0010002450   0.0000000000   0.0000000000   0.0000000000
   36  2 F  pz           -0.0011956127  -0.0024163573   0.0000000000   0.0000000000   0.0146653806   0.0273712460   0.0000000000
   37  2 F  s             0.0005463932   0.0011503621   0.0000000000   0.0000000000  -0.0007245734  -0.0158212917   0.0000000000
   38  2 F  px            0.0000000000   0.0000000000  -0.0012105463   0.0000000000   0.0000000000   0.0000000000  -0.0064741348
   39  2 F  py            0.0000000000   0.0000000000   0.0000000000  -0.0012105463   0.0000000000   0.0000000000   0.0000000000
   40  2 F  pz            0.0001689600   0.0003974164   0.0000000000   0.0000000000   0.0001704125  -0.0047673272   0.0000000000
   41  2 F  dxx           0.0000001310   0.0000000239   0.0000000000   0.0000000000  -0.0000112392  -0.0001155166   0.0000000000
   42  2 F  dxy           0.0000000000   0.0000000000   0.0000000000   0.0000000000   0.0000000000   0.0000000000   0.0000000000
   43  2 F  dxz           0.0000000000   0.0000000000   0.0000270061   0.0000000000   0.0000000000   0.0000000000   0.0002833111
   44  2 F  dyy           0.0000001310   0.0000000239   0.0000000000   0.0000000000  -0.0000112392  -0.0001155166   0.0000000000
   45  2 F  dyz           0.0000000000   0.0000000000   0.0000000000   0.0000270061   0.0000000000   0.0000000000   0.0000000000
   46  2 F  dzz          -0.0000069267  -0.0000055384   0.0000000000   0.0000000000   0.0003125042   0.0011435883   0.0000000000
   47  3 H  s            -0.0002168375  -0.0003306133   0.0033988280   0.0033988280   0.0006251223   0.0149213950   0.0191668810
   48  3 H  s            -0.0019613377  -0.0039429832   0.0088480836   0.0088480836   0.0013133200   0.0490431287   0.0386449231
   49  3 H  s             0.0001104977   0.0002344992   0.0011751802   0.0011751802   0.0001021706  -0.0031039230   0.0063467178
   50  3 H  s             0.0000533390   0.0001142613   0.0000543831   0.0000543831   0.0000075425  -0.0016210376   0.0003382069
   51  3 H  px           -0.0001770263  -0.0003670719   0.0000925813   0.0010263355   0.0001064996   0.0035710190   0.0000502831
   52  3 H  py           -0.0001770263  -0.0003670719   0.0010263355   0.0000925813   0.0001064996   0.0035710190   0.0027094270
   53  3 H  pz           -0.0000255003  -0.0000549837   0.0001682262   0.0001682262   0.0000568921   0.0005581941   0.0004389890
   54  4 H  s            -0.0002168375  -0.0003306133   0.0004553566   0.0063422993   0.0006251223   0.0149213952   0.0025678750
   55  4 H  s            -0.0019613377  -0.0039429832   0.0011854184   0.0165107484   0.0013133199   0.0490431294   0.0051774376
   56  4 H  s             0.0001104980   0.0002344997   0.0001574442   0.0021929177   0.0001021706  -0.0031039290   0.0008502983
   57  4 H  s             0.0000533400   0.0001142631   0.0000072861   0.0001014809   0.0000075425  -0.0016210615   0.0000453119
   58  4 H  px           -0.0000237170  -0.0000491783   0.0002710215   0.0002565838   0.0000142682   0.0004784258   0.0014087339
   59  4 H  py           -0.0003303356  -0.0006849654   0.0002565837   0.0014536448   0.0001987308   0.0066636116   0.0006773563
   60  4 H  pz           -0.0000255003  -0.0000549837   0.0000225380   0.0003139142   0.0000568922   0.0005581940   0.0000588133
   61  5 H  s            -0.0002168375  -0.0003306133   0.0063422993   0.0004553566   0.0006251223   0.0149213952   0.0357658873
   62  5 H  s            -0.0019613377  -0.0039429832   0.0165107484   0.0011854184   0.0013133199   0.0490431294   0.0721124075
   63  5 H  s             0.0001104980   0.0002344997   0.0021929177   0.0001574442   0.0001021706  -0.0031039290   0.0118431456
   64  5 H  s             0.0000533400   0.0001142631   0.0001014809   0.0000072861   0.0000075425  -0.0016210615   0.0006311067
   65  5 H  px           -0.0003303356  -0.0006849654   0.0014536448   0.0002565837   0.0001987308   0.0066636116   0.0027559735
   66  5 H  py           -0.0000237170  -0.0000491783   0.0002565838   0.0002710215   0.0000142682   0.0004784258   0.0006773566
   67  5 H  pz           -0.0000255003  -0.0000549837   0.0003139142   0.0000225380   0.0000568922   0.0005581940   0.0008191646

                               8              9             10             11             12             13             14

    1  1 C  s             0.0000000000   0.0000000000  -0.0084201317   0.0000000000   0.0000000000   0.0000000000  -0.0006152297
    2  1 C  s             0.0000000000   0.0000000000  -0.0171684203   0.0000000000   0.0000000000   0.0000000000  -0.0012840044
    3  1 C  px            0.0000000000   0.0000000000   0.0000000000   0.0169602733   0.0000000000   0.0000000000   0.0000000000
    4  1 C  py            0.0796436560   0.0000000000   0.0000000000   0.0000000000   0.0169602733   0.0000000000   0.0000000000
    5  1 C  pz            0.0000000000   0.0478757873   0.0000000000   0.0000000000   0.0000000000   0.0062806472   0.0000000000
    6  1 C  s             0.0000000000   0.0000000000   0.1862444338   0.0000000000   0.0000000000   0.0000000000   0.0175163984
    7  1 C  px            0.0000000000   0.0000000000   0.0000000000   0.0793772083   0.0000000000   0.0000000000   0.0000000000
    8  1 C  py            0.2002612765   0.0000000000   0.0000000000   0.0000000000   0.0793772083   0.0000000000   0.0000000000
    9  1 C  pz            0.0000000000   0.1407158605   0.0000000000   0.0000000000   0.0000000000   0.0339408848   0.0000000000
   10  1 C  s             0.0000000000   0.0000000000   0.1640080148   0.0000000000   0.0000000000   0.0000000000   0.0130581712
   11  1 C  px            0.0000000000   0.0000000000   0.0000000000   0.0740834754   0.0000000000   0.0000000000   0.0000000000
   12  1 C  py            0.0793772083   0.0000000000   0.0000000000   0.0000000000   0.0740834754   0.0000000000   0.0000000000
   13  1 C  pz            0.0000000000   0.0339408848   0.0000000000   0.0000000000   0.0000000000   0.0205113103   0.0000000000
   14  1 C  s             0.0000000000   0.0000000000   0.0130581712   0.0000000000   0.0000000000   0.0000000000   0.0232488607
   15  1 C  px            0.0000000000   0.0000000000   0.0000000000  -0.0007902631   0.0000000000   0.0000000000   0.0000000000
   16  1 C  py           -0.0003078356   0.0000000000   0.0000000000   0.0000000000  -0.0007902631   0.0000000000   0.0000000000
   17  1 C  pz            0.0000000000  -0.0004729063   0.0000000000   0.0000000000   0.0000000000  -0.0006617710   0.0000000000
   18  1 C  dxx           0.0000000000   0.0000000000   0.0028140130   0.0000000000   0.0000000000   0.0000000000  -0.0010367954
   19  1 C  dxy           0.0000000000   0.0000000000   0.0000000000   0.0000000000   0.0000000000   0.0000000000   0.0000000000
   20  1 C  dxz           0.0000000000   0.0000000000   0.0000000000   0.0000000000   0.0000000000   0.0000000000   0.0000000000
   21  1 C  dyy           0.0000000000   0.0000000000   0.0028140130   0.0000000000   0.0000000000   0.0000000000  -0.0010367954
   22  1 C  dyz           0.0000000000   0.0000000000   0.0000000000   0.0000000000   0.0000000000   0.0000000000   0.0000000000
   23  1 C  dzz           0.0000000000   0.0000000000  -0.0056722663   0.0000000000   0.0000000000   0.0000000000   0.0017631649
   24  2 F  s             0.0000000000  -0.0003012635   0.0003973386   0.0000000000   0.0000000000   0.0001163746  -0.0006944237
   25  2 F  s             0.0000000000  -0.0004858209   0.0007082947   0.0000000000   0.0000000000   0.0002257567  -0.0011652600
   26  2 F  px            0.0000000000   0.0000000000   0.0000000000  -0.0002404660   0.0000000000   0.0000000000   0.0000000000
   27  2 F  py            0.0000193668   0.0000000000   0.0000000000   0.0000000000  -0.0002404660   0.0000000000   0.0000000000
   28  2 F  pz            0.0000000000   0.0091323236   0.0002283684   0.0000000000   0.0000000000   0.0012589007   0.0000268349
   29  2 F  s             0.0000000000   0.0093311333  -0.0130734621   0.0000000000   0.0000000000  -0.0039028463   0.0202866301
   30  2 F  px            0.0000000000   0.0000000000   0.0000000000  -0.0014671242   0.0000000000   0.0000000000   0.0000000000
   31  2 F  py            0.0002471888   0.0000000000   0.0000000000   0.0000000000  -0.0014671242   0.0000000000   0.0000000000
   32  2 F  pz            0.0000000000   0.0534895734   0.0016803324   0.0000000000   0.0000000000   0.0069684067   0.0002579030
   33  2 F  s             0.0000000000   0.0031286772  -0.0298542241   0.0000000000   0.0000000000  -0.0111575212   0.0376960089
   34  2 F  px            0.0000000000   0.0000000000   0.0000000000  -0.0076273307   0.0000000000   0.0000000000   0.0000000000
   35  2 F  py           -0.0027196481   0.0000000000   0.0000000000   0.0000000000  -0.0076273307   0.0000000000   0.0000000000
   36  2 F  pz            0.0000000000   0.0597467146  -0.0010573366   0.0000000000   0.0000000000   0.0082584354   0.0004019920
   37  2 F  s             0.0000000000  -0.0055838895  -0.0106346065   0.0000000000   0.0000000000  -0.0029902817  -0.0088902407
   38  2 F  px            0.0000000000   0.0000000000   0.0000000000  -0.0096312512   0.0000000000   0.0000000000   0.0000000000
   39  2 F  py           -0.0064741348   0.0000000000   0.0000000000   0.0000000000  -0.0096312512   0.0000000000   0.0000000000
   40  2 F  pz            0.0000000000   0.0005787171  -0.0049163627   0.0000000000   0.0000000000  -0.0004376438  -0.0008813384
   41  2 F  dxx           0.0000000000  -0.0004172715  -0.0000458777   0.0000000000   0.0000000000  -0.0002562617  -0.0001525102
   42  2 F  dxy           0.0000000000   0.0000000000   0.0000000000   0.0000000000   0.0000000000   0.0000000000   0.0000000000
   43  2 F  dxz           0.0000000000   0.0000000000   0.0000000000   0.0000949749   0.0000000000   0.0000000000   0.0000000000
   44  2 F  dyy           0.0000000000  -0.0004172715  -0.0000458777   0.0000000000   0.0000000000  -0.0002562617  -0.0001525102
   45  2 F  dyz           0.0002833111   0.0000000000   0.0000000000   0.0000000000   0.0000949749   0.0000000000   0.0000000000
   46  2 F  dzz           0.0000000000   0.0026230668   0.0005555972   0.0000000000   0.0000000000   0.0010155530   0.0001537807
   47  3 H  s             0.0191668810   0.0034065818   0.0149556931   0.0113267958   0.0113267958   0.0015029483   0.0012370040
   48  3 H  s             0.0386449231   0.0054172212   0.0458438018   0.0305152538   0.0305152538   0.0033748638   0.0056265539
   49  3 H  s             0.0063467178   0.0006980214  -0.0003888269   0.0084689866   0.0084689866   0.0004367858  -0.0025424646
   50  3 H  s             0.0003382069   0.0000627503  -0.0006328885   0.0006902994   0.0006902994   0.0000160860  -0.0036119175
   51  3 H  px            0.0027094270   0.0001791371   0.0012491909  -0.0001581184   0.0007071305   0.0000599999   0.0000619117
   52  3 H  py            0.0000502831   0.0001791371   0.0012491909   0.0007071305  -0.0001581184   0.0000599999   0.0000619117
   53  3 H  pz            0.0004389890   0.0004778228   0.0001340601   0.0001170669   0.0001170669   0.0001680304   0.0000141918
   54  4 H  s             0.0357658873   0.0034065818   0.0149556869   0.0015175031   0.0211360899   0.0015029476   0.0012369922
   55  4 H  s             0.0721124075   0.0054172205   0.0458437780   0.0040882694   0.0569422404   0.0033748617   0.0056264982
   56  4 H  s             0.0118431456   0.0006980219  -0.0003888444   0.0011346282   0.0158033574   0.0004367855  -0.0025425196
   57  4 H  s             0.0006311067   0.0000627502  -0.0006329218   0.0000924841   0.0012881242   0.0000160856  -0.0036119433
   58  4 H  px            0.0006773566   0.0000239998   0.0001673598   0.0009746077   0.0001767826   0.0000080385   0.0000082945
   59  4 H  py            0.0027559735   0.0003342740   0.0023310213   0.0001767825  -0.0002301491   0.0001119613   0.0001155285
   60  4 H  pz            0.0008191646   0.0004778229   0.0001340599   0.0000156840   0.0002184497   0.0001680305   0.0000141917
   61  5 H  s             0.0025678750   0.0034065818   0.0149556869   0.0211360899   0.0015175031   0.0015029476   0.0012369922
   62  5 H  s             0.0051774376   0.0054172205   0.0458437780   0.0569422404   0.0040882694   0.0033748617   0.0056264982
   63  5 H  s             0.0008502983   0.0006980219  -0.0003888444   0.0158033574   0.0011346282   0.0004367855  -0.0025425196
   64  5 H  s             0.0000453119   0.0000627502  -0.0006329218   0.0012881242   0.0000924841   0.0000160856  -0.0036119433
   65  5 H  px            0.0006773563   0.0003342740   0.0023310213  -0.0002301491   0.0001767825   0.0001119613   0.0001155285
   66  5 H  py            0.0014087339   0.0000239998   0.0001673598   0.0001767826   0.0009746077   0.0000080385   0.0000082945
   67  5 H  pz            0.0000588133   0.0004778229   0.0001340599   0.0002184497   0.0000156840   0.0001680305   0.0000141917

                              15             16             17             18             19             20             21

    1  1 C  s             0.0000000000   0.0000000000   0.0000000000  -0.0000450681   0.0000000000   0.0000000000  -0.0000450681
    2  1 C  s             0.0000000000   0.0000000000   0.0000000000  -0.0000235637   0.0000000000   0.0000000000  -0.0000235637
    3  1 C  px           -0.0000615394   0.0000000000   0.0000000000   0.0000000000   0.0000000000   0.0000000000   0.0000000000
    4  1 C  py            0.0000000000  -0.0000615394   0.0000000000   0.0000000000   0.0000000000   0.0000000000   0.0000000000
    5  1 C  pz            0.0000000000   0.0000000000  -0.0000575654   0.0000000000   0.0000000000   0.0000000000   0.0000000000
    6  1 C  s             0.0000000000   0.0000000000   0.0000000000  -0.0007688366   0.0000000000   0.0000000000  -0.0007688366
    7  1 C  px           -0.0003078356   0.0000000000   0.0000000000   0.0000000000   0.0000000000   0.0000000000   0.0000000000
    8  1 C  py            0.0000000000  -0.0003078356   0.0000000000   0.0000000000   0.0000000000   0.0000000000   0.0000000000
    9  1 C  pz            0.0000000000   0.0000000000  -0.0004729063   0.0000000000   0.0000000000   0.0000000000   0.0000000000
   10  1 C  s             0.0000000000   0.0000000000   0.0000000000   0.0028140130   0.0000000000   0.0000000000   0.0028140130
   11  1 C  px           -0.0007902631   0.0000000000   0.0000000000   0.0000000000   0.0000000000   0.0000000000   0.0000000000
   12  1 C  py            0.0000000000  -0.0007902631   0.0000000000   0.0000000000   0.0000000000   0.0000000000   0.0000000000
   13  1 C  pz            0.0000000000   0.0000000000  -0.0006617710   0.0000000000   0.0000000000   0.0000000000   0.0000000000
   14  1 C  s             0.0000000000   0.0000000000   0.0000000000  -0.0010367954   0.0000000000   0.0000000000  -0.0010367954
   15  1 C  px            0.0003779500   0.0000000000   0.0000000000   0.0000000000   0.0000000000   0.0000000000   0.0000000000
   16  1 C  py            0.0000000000   0.0003779500   0.0000000000   0.0000000000   0.0000000000   0.0000000000   0.0000000000
   17  1 C  pz            0.0000000000   0.0000000000   0.0001483325   0.0000000000   0.0000000000   0.0000000000   0.0000000000
   18  1 C  dxx           0.0000000000   0.0000000000   0.0000000000   0.0029813760   0.0000000000   0.0000000000   0.0001464159
   19  1 C  dxy           0.0000000000   0.0000000000   0.0000000000   0.0000000000   0.0016947513   0.0000000000   0.0000000000
   20  1 C  dxz           0.0000000000   0.0000000000   0.0000000000   0.0000000000   0.0000000000   0.0028349479   0.0000000000
   21  1 C  dyy           0.0000000000   0.0000000000   0.0000000000   0.0001464159   0.0000000000   0.0000000000   0.0029813760
   22  1 C  dyz           0.0000000000   0.0000000000   0.0000000000   0.0000000000   0.0000000000   0.0000000000   0.0000000000
   23  1 C  dzz           0.0000000000   0.0000000000   0.0000000000  -0.0013700217   0.0000000000   0.0000000000  -0.0013700217
   24  2 F  s             0.0000000000   0.0000000000  -0.0000517900   0.0000014465   0.0000000000   0.0000000000   0.0000014465
   25  2 F  s             0.0000000000   0.0000000000  -0.0000880698   0.0000011772   0.0000000000   0.0000000000   0.0000011772
   26  2 F  px            0.0001161554   0.0000000000   0.0000000000   0.0000000000   0.0000000000   0.0006631326   0.0000000000
   27  2 F  py            0.0000000000   0.0001161554   0.0000000000   0.0000000000   0.0000000000   0.0000000000   0.0000000000
   28  2 F  pz            0.0000000000   0.0000000000   0.0000184516  -0.0000378791   0.0000000000   0.0000000000  -0.0000378791
   29  2 F  s             0.0000000000   0.0000000000   0.0015028273  -0.0003474639   0.0000000000   0.0000000000  -0.0003474639
   30  2 F  px            0.0008131092   0.0000000000   0.0000000000   0.0000000000   0.0000000000   0.0045281184   0.0000000000
   31  2 F  py            0.0000000000   0.0008131092   0.0000000000   0.0000000000   0.0000000000   0.0000000000   0.0000000000
   32  2 F  pz            0.0000000000   0.0000000000   0.0001339218  -0.0008873003   0.0000000000   0.0000000000  -0.0008873003
   33  2 F  s             0.0000000000   0.0000000000   0.0029611030  -0.0015346321   0.0000000000   0.0000000000  -0.0015346321
   34  2 F  px            0.0029747417   0.0000000000   0.0000000000   0.0000000000   0.0000000000   0.0080354957   0.0000000000
   35  2 F  py            0.0000000000   0.0029747417   0.0000000000   0.0000000000   0.0000000000   0.0000000000   0.0000000000
   36  2 F  pz            0.0000000000   0.0000000000   0.0004502325  -0.0046382208   0.0000000000   0.0000000000  -0.0046382208
   37  2 F  s             0.0000000000   0.0000000000   0.0000630939   0.0010351199   0.0000000000   0.0000000000   0.0010351199
   38  2 F  px            0.0009638390   0.0000000000   0.0000000000   0.0000000000   0.0000000000   0.0006309380   0.0000000000
   39  2 F  py            0.0000000000   0.0009638390   0.0000000000   0.0000000000   0.0000000000   0.0000000000   0.0000000000
   40  2 F  pz            0.0000000000   0.0000000000   0.0000985613  -0.0003588407   0.0000000000   0.0000000000  -0.0003588407
   41  2 F  dxx           0.0000000000   0.0000000000   0.0000018834   0.0000109062   0.0000000000   0.0000000000   0.0000032665
   42  2 F  dxy           0.0000000000   0.0000000000   0.0000000000   0.0000000000   0.0000007377   0.0000000000   0.0000000000
   43  2 F  dxz           0.0000018286   0.0000000000   0.0000000000   0.0000000000   0.0000000000   0.0000717183   0.0000000000
   44  2 F  dyy           0.0000000000   0.0000000000   0.0000018834   0.0000032665   0.0000000000   0.0000000000   0.0000109062
   45  2 F  dyz           0.0000000000   0.0000018286   0.0000000000   0.0000000000   0.0000000000   0.0000000000   0.0000000000
   46  2 F  dzz           0.0000000000   0.0000000000  -0.0000378726  -0.0000308329   0.0000000000   0.0000000000  -0.0000308329
   47  3 H  s            -0.0000941531  -0.0000941531   0.0000015950   0.0005498036   0.0030964661   0.0008338910   0.0005498036
   48  3 H  s            -0.0004421210  -0.0004421210  -0.0000037280   0.0010161848   0.0032161074   0.0009678301   0.0010161848
   49  3 H  s            -0.0003728211  -0.0003728211  -0.0000058579   0.0005063589   0.0002069489   0.0000835157   0.0005063589
   50  3 H  s            -0.0000899089  -0.0000899089   0.0000185037   0.0001904593   0.0000041629   0.0000022383   0.0001904593
   51  3 H  px            0.0000032525  -0.0000023227   0.0000002921   0.0000078689   0.0000559833   0.0000057560  -0.0001442887
   52  3 H  py           -0.0000023227   0.0000032525   0.0000002921  -0.0001442887   0.0000559833   0.0001170774   0.0000078689
   53  3 H  pz           -0.0000007192  -0.0000007192  -0.0000053816  -0.0000496594   0.0000697572  -0.0000627908  -0.0000496594
   54  4 H  s            -0.0000126149  -0.0001756928   0.0000015947  -0.0004197947   0.0007741167   0.0001117202   0.0038417520
   55  4 H  s            -0.0000592356  -0.0008250115  -0.0000037295  -0.0027403429   0.0008040269   0.0001296647   0.0071847926
   56  4 H  s            -0.0000499494  -0.0006956990  -0.0000058590  -0.0011682010   0.0000517373   0.0000111890   0.0023361310
   57  4 H  s            -0.0000120455  -0.0001677739   0.0000185034  -0.0000550531   0.0000010407   0.0000002999   0.0004390937
   58  4 H  px           -0.0000088405  -0.0000005807   0.0000000391  -0.0000049933  -0.0002175615   0.0000486000  -0.0000177795
   59  4 H  py           -0.0000005807   0.0000118615   0.0000005451  -0.0001785306   0.0000467503   0.0000292693   0.0002112416
   60  4 H  pz           -0.0000000964  -0.0000013420  -0.0000053815  -0.0000472021   0.0000174393  -0.0000084124   0.0000002011
   61  5 H  s            -0.0001756928  -0.0000126149   0.0000015947   0.0038417520   0.0007741167   0.0015560618  -0.0004197947
   62  5 H  s            -0.0008250115  -0.0000592356  -0.0000037295   0.0071847926   0.0008040269   0.0018059954  -0.0027403429
   63  5 H  s            -0.0006956990  -0.0000499494  -0.0000058590   0.0023361310   0.0000517373   0.0001558426  -0.0011682010
   64  5 H  s            -0.0001677739  -0.0000120455   0.0000185034   0.0004390937   0.0000010407   0.0000041767  -0.0000550531
   65  5 H  px            0.0000118615  -0.0000005807   0.0000005451   0.0002112416   0.0000467503   0.0001385280  -0.0001785306
   66  5 H  py           -0.0000005807  -0.0000088405   0.0000000391  -0.0000177795  -0.0002175615   0.0000292693  -0.0000049933
   67  5 H  pz           -0.0000013420  -0.0000000964  -0.0000053815   0.0000002011   0.0000174393  -0.0001171692  -0.0000472021

                              22             23             24             25             26             27             28

    1  1 C  s             0.0000000000  -0.0001653340   0.0000000038   0.0000000015   0.0000000000   0.0000000000  -0.0000019016
    2  1 C  s             0.0000000000  -0.0001939115  -0.0000000003  -0.0000000002   0.0000000000   0.0000000000   0.0000000540
    3  1 C  px            0.0000000000   0.0000000000   0.0000000000   0.0000000000  -0.0000016520   0.0000000000   0.0000000000
    4  1 C  py            0.0000000000   0.0000000000   0.0000000000   0.0000000000   0.0000000000  -0.0000016520   0.0000000000
    5  1 C  pz            0.0000000000   0.0000000000  -0.0000027301  -0.0000024439   0.0000000000   0.0000000000   0.0003423057
    6  1 C  s             0.0000000000   0.0033117941   0.0000084111   0.0000227891   0.0000000000   0.0000000000   0.0018449432
    7  1 C  px            0.0000000000   0.0000000000   0.0000000000   0.0000000000   0.0000193668   0.0000000000   0.0000000000
    8  1 C  py            0.0000000000   0.0000000000   0.0000000000   0.0000000000   0.0000000000   0.0000193668   0.0000000000
    9  1 C  pz            0.0000000000   0.0000000000  -0.0003012635  -0.0004858209   0.0000000000   0.0000000000   0.0091323236
   10  1 C  s             0.0000000000  -0.0056722663   0.0003973386   0.0007082947   0.0000000000   0.0000000000   0.0002283684
   11  1 C  px            0.0000000000   0.0000000000   0.0000000000   0.0000000000  -0.0002404660   0.0000000000   0.0000000000
   12  1 C  py            0.0000000000   0.0000000000   0.0000000000   0.0000000000   0.0000000000  -0.0002404660   0.0000000000
   13  1 C  pz            0.0000000000   0.0000000000   0.0001163746   0.0002257567   0.0000000000   0.0000000000   0.0012589007
   14  1 C  s             0.0000000000   0.0017631649  -0.0006944237  -0.0011652600   0.0000000000   0.0000000000   0.0000268349
   15  1 C  px            0.0000000000   0.0000000000   0.0000000000   0.0000000000   0.0001161554   0.0000000000   0.0000000000
   16  1 C  py            0.0000000000   0.0000000000   0.0000000000   0.0000000000   0.0000000000   0.0001161554   0.0000000000
   17  1 C  pz            0.0000000000   0.0000000000  -0.0000517900  -0.0000880698   0.0000000000   0.0000000000   0.0000184516
   18  1 C  dxx           0.0000000000  -0.0013700217   0.0000014465   0.0000011772   0.0000000000   0.0000000000  -0.0000378791
   19  1 C  dxy           0.0000000000   0.0000000000   0.0000000000   0.0000000000   0.0000000000   0.0000000000   0.0000000000
   20  1 C  dxz           0.0000000000   0.0000000000   0.0000000000   0.0000000000   0.0006631326   0.0000000000   0.0000000000
   21  1 C  dyy           0.0000000000  -0.0013700217   0.0000014465   0.0000011772   0.0000000000   0.0000000000  -0.0000378791
   22  1 C  dyz           0.0028349479   0.0000000000   0.0000000000   0.0000000000   0.0000000000   0.0006631326   0.0000000000
   23  1 C  dzz           0.0000000000   0.0102448075  -0.0001786694  -0.0002939859   0.0000000000   0.0000000000   0.0035153044
   24  2 F  s             0.0000000000  -0.0001786694   0.6312417770   0.5191569431   0.0000000000   0.0000000000   0.0000000000
   25  2 F  s             0.0000000000  -0.0002939859   0.5191569431   0.5374362703   0.0000000000   0.0000000000   0.0000000000
   26  2 F  px            0.0000000000   0.0000000000   0.0000000000   0.0000000000   0.1906515185   0.0000000000   0.0000000000
   27  2 F  py            0.0006631326   0.0000000000   0.0000000000   0.0000000000   0.0000000000   0.1906515185   0.0000000000
   28  2 F  pz            0.0000000000   0.0035153044   0.0000000000   0.0000000000   0.0000000000   0.0000000000   0.1335307690
   29  2 F  s             0.0000000000   0.0056071456  -0.0535134367  -0.1020033564   0.0000000000   0.0000000000   0.0000000000
   30  2 F  px            0.0000000000   0.0000000000   0.0000000000   0.0000000000   0.1757119847   0.0000000000   0.0000000000
   31  2 F  py            0.0045281184   0.0000000000   0.0000000000   0.0000000000   0.0000000000   0.1757119847   0.0000000000
   32  2 F  pz            0.0000000000   0.0182712568   0.0000000000   0.0000000000   0.0000000000   0.0000000000   0.1252252338
   33  2 F  s             0.0000000000   0.0038732274  -0.0206446053  -0.0362358975   0.0000000000   0.0000000000   0.0000000000
   34  2 F  px            0.0000000000   0.0000000000   0.0000000000   0.0000000000   0.0489577155   0.0000000000   0.0000000000
   35  2 F  py            0.0080354957   0.0000000000   0.0000000000   0.0000000000   0.0000000000   0.0489577155   0.0000000000
   36  2 F  pz            0.0000000000   0.0183153201   0.0000000000   0.0000000000   0.0000000000   0.0000000000   0.0288431474
   37  2 F  s             0.0000000000  -0.0029352696   0.0007848813   0.0012807692   0.0000000000   0.0000000000   0.0000000000
   38  2 F  px            0.0000000000   0.0000000000   0.0000000000   0.0000000000   0.0017065760   0.0000000000   0.0000000000
   39  2 F  py            0.0006309380   0.0000000000   0.0000000000   0.0000000000   0.0000000000   0.0017065760   0.0000000000
   40  2 F  pz            0.0000000000   0.0008996658   0.0000000000   0.0000000000   0.0000000000   0.0000000000   0.0004725744
   41  2 F  dxx           0.0000000000  -0.0001503791   0.0000664360   0.0000996823   0.0000000000   0.0000000000   0.0000000000
   42  2 F  dxy           0.0000000000   0.0000000000   0.0000000000   0.0000000000   0.0000000000   0.0000000000   0.0000000000
   43  2 F  dxz           0.0000000000   0.0000000000   0.0000000000   0.0000000000   0.0000000000   0.0000000000   0.0000000000
   44  2 F  dyy           0.0000000000  -0.0001503791   0.0000664360   0.0000996823   0.0000000000   0.0000000000   0.0000000000
   45  2 F  dyz           0.0000717183   0.0000000000   0.0000000000   0.0000000000   0.0000000000   0.0000000000   0.0000000000
   46  2 F  dzz           0.0000000000   0.0009466296  -0.0000185372   0.0000047929   0.0000000000   0.0000000000   0.0000000000
   47  3 H  s             0.0008338910  -0.0005386684   0.0000000004   0.0000000002  -0.0000000191  -0.0000000191  -0.0000000350
[...]
   30  2 F  px             0.83811
   31  2 F  py             0.83811
   32  2 F  pz             0.66634
   33  2 F  s              0.90128
   34  2 F  px             0.62550
   35  2 F  py             0.62550
   36  2 F  pz             0.42347
   37  2 F  s             -0.05471
   38  2 F  px             0.04155
   39  2 F  py             0.04155
   40  2 F  pz             0.00130
   41  2 F  dxx           -0.01217
   42  2 F  dxy            0.00000
   43  2 F  dxz            0.00094
   44  2 F  dyy           -0.01217
   45  2 F  dyz            0.00094
   46  2 F  dzz           -0.00069
   47  3 H  s              0.28142
   48  3 H  s              0.48044
   49  3 H  s              0.07264
   50  3 H  s             -0.00492
   51  3 H  px             0.00978
   52  3 H  py             0.00978
   53  3 H  pz             0.00335
   54  4 H  s              0.28142
   55  4 H  s              0.48044
   56  4 H  s              0.07264
   57  4 H  s             -0.00492
   58  4 H  px             0.00603
   59  4 H  py             0.01352
   60  4 H  pz             0.00335
   61  5 H  s              0.28142
   62  5 H  s              0.48044
   63  5 H  s              0.07264
   64  5 H  s             -0.00492
   65  5 H  px             0.01352
   66  5 H  py             0.00603
   67  5 H  pz             0.00335

          ----- Total      overlap population condensed to atoms -----


                               1              2              3              4              5
    1  C                  4.8384871652   0.1806744486   0.4070946402   0.4070951753   0.4070951764
    2  F                  0.1806744486   9.1836355788  -0.0540772779  -0.0540773904  -0.0540773916
    3  H                  0.4070946402  -0.0540772779   0.5855107755  -0.0430180903  -0.0430180905
    4  H                  0.4070951753  -0.0540773904  -0.0430180903   0.5855105825  -0.0430185421
    5  H                  0.4070951764  -0.0540773916  -0.0430180905  -0.0430185421   0.5855105825

 Total      S,P,D,... shell population
 --------------------------------
    Atom          S        P        D
 --------------------------------------------------------------------------------------
     1 C      3.31640   2.84808   0.07597
     2 F      3.94152   5.28370  -0.02314
     3 H      0.82959   0.02290   0.00000
     4 H      0.82959   0.02290   0.00000
     5 H      0.82959   0.02290   0.00000

          ----- Total      gross population on atoms ----

              1  C    6.0     6.24045
              2  F    9.0     9.20208
              3  H    1.0     0.85249
              4  H    1.0     0.85249
              5  H    1.0     0.85249

          ----- Bond indices -----
  1- 1   0.00000  1- 2   0.92624  1- 3   0.97566  1- 4   0.97566  1- 5   0.97566
  2- 1   0.92624  2- 2   0.00000  2- 3  -0.03135  2- 4  -0.03135  2- 5  -0.03135
  3- 1   0.97566  3- 2  -0.03135  3- 3   0.00000  3- 4  -0.01611  3- 5  -0.01611
  4- 1   0.97566  4- 2  -0.03135  4- 3  -0.01611  4- 4   0.00000  4- 5  -0.01611
  5- 1   0.97566  5- 2  -0.03135  5- 3  -0.01611  5- 4  -0.01611  5- 5   0.00000

 Large bond indices
 ------------------
  1   C -  2   F    0.92624
  1   C -  3   H    0.97566
  1   C -  4   H    0.97566
  1   C -  5   H    0.97566

                                                                Free electrons             Valency
                              Number of         Sum of          + Bond indices         - Bond indices    
                Valency     Free electrons    Bond indices     =Mulliken charge     = Net spin population
     1  C       3.85322        2.38722          3.85322           6.24045                 0.00000
     2  F       0.83219        8.36989          0.83219           9.20208                 0.00000
     3  H       0.91209       -0.05960          0.91209           0.85249                 0.00000
     4  H       0.91209       -0.05960          0.91209           0.85249                 0.00000
     5  H       0.91209       -0.05960          0.91209           0.85249                 0.00000

          ---------------------------------------------
          Electrostatic potential/diamagnetic shielding
          ---------------------------------------------

 1 a.u. = 9.07618 esu/cm ( or statvolts ) 
   Point      X         Y         Z     Total Potential(a.u.)   Diamagnetic shielding(a.u.)
    1 C    0.00000   0.00000   1.19651     -14.693956            19.599712
    2 F    0.00000   0.00000  -1.41698     -26.608896            29.692579
    3 H    1.37344   1.37344   1.85792      -1.099691             6.982064
    4 H    0.50271  -1.87616   1.85792      -1.099691             6.982064
    5 H   -1.87616   0.50271   1.85792      -1.099691             6.982064

          --------------
          Electric field
          --------------

 1 a.u. = 0.171524 10**(-8) dyn/esu 

   Atom       X         Y         Z                        Electric field (a.u.)
                                              X              Y              Z           Field
  ------------------------------------------------------------------------------------------------
    1 C    0.00000   0.00000   1.19651       0.000000       0.000000       0.015061       0.015061
    2 F    0.00000   0.00000  -1.41698       0.000000       0.000000      -0.041173       0.041173
    3 H    1.37344   1.37344   1.85792       0.015612       0.015612       0.006621       0.023051
    4 H    0.50271  -1.87616   1.85792       0.005715      -0.021327       0.006621       0.023051
    5 H   -1.87616   0.50271   1.85792      -0.021327       0.005715       0.006621       0.023051

          -----------------------
          Electric field gradient
          -----------------------

 1 a.u. = 0.324123 10**(16) esu/cm**3  ( or statvolts/cm**2 ) = 0.97174 10**(22) v/m**2 


 ------------------------------------------------------------
   Atom      X         Y         Z
 ------------------------------------------------------------
    1 C    0.00000   0.00000   1.19651
 ------------------------------------------------------------

 Electric field gradient in molecular frame (a.u.)
         XX             YY             ZZ             XY             XZ             YZ
 ------------------------------------------------------------------------------------------
        0.293937       0.293937      -0.587873       0.000000       0.000000       0.000000

 Principal components (a.u.) and orientation 
 of principal axis w.r.t. absolute frame                      Asymmetry parameter eta
 --------------------------------------------------------------------------------------
       -0.587873       0.293937       0.293937                       0.000000

        0.000000       0.707656       0.706557
        0.000000      -0.706557       0.707656
        1.000000       0.000000       0.000000
  

 ------------------------------------------------------------
   Atom      X         Y         Z
 ------------------------------------------------------------
    2 F    0.00000   0.00000  -1.41698
 ------------------------------------------------------------

 Electric field gradient in molecular frame (a.u.)
         XX             YY             ZZ             XY             XZ             YZ
 ------------------------------------------------------------------------------------------
        1.546540       1.546540      -3.093081       0.000000       0.000000       0.000000

 Principal components (a.u.) and orientation 
 of principal axis w.r.t. absolute frame                      Asymmetry parameter eta
 --------------------------------------------------------------------------------------
       -3.093081       1.546541       1.546540                       0.000000

        0.000000       0.706974       0.707240
        0.000000       0.707240      -0.706974
        1.000000       0.000000       0.000000
  

 ------------------------------------------------------------
   Atom      X         Y         Z
 ------------------------------------------------------------
    3 H    1.37344   1.37344   1.85792
 ------------------------------------------------------------

 Electric field gradient in molecular frame (a.u.)
         XX             YY             ZZ             XY             XZ             YZ
 ------------------------------------------------------------------------------------------
       -0.046423      -0.046423       0.092845      -0.213636      -0.097863      -0.097863

 Principal components (a.u.) and orientation 
 of principal axis w.r.t. absolute frame                      Asymmetry parameter eta
 --------------------------------------------------------------------------------------
       -0.307860       0.167213       0.140647                       0.086294

        0.668364      -0.707107      -0.230845
        0.668364       0.707107      -0.230845
        0.326465       0.000000       0.945209
  

 ------------------------------------------------------------
   Atom      X         Y         Z
 ------------------------------------------------------------
    4 H    0.50271  -1.87616   1.85792
 ------------------------------------------------------------

 Electric field gradient in molecular frame (a.u.)
         XX             YY             ZZ             XY             XZ             YZ
 ------------------------------------------------------------------------------------------
        0.138591      -0.231437       0.092845       0.106818      -0.035820       0.133683

 Principal components (a.u.) and orientation 
 of principal axis w.r.t. absolute frame                      Asymmetry parameter eta
 --------------------------------------------------------------------------------------
       -0.307860       0.167213       0.140647                       0.086294

       -0.244638       0.965926      -0.084495
        0.913002       0.258819       0.315341
       -0.326465       0.000000       0.945209
  

 ------------------------------------------------------------
   Atom      X         Y         Z
 ------------------------------------------------------------
    5 H   -1.87616   0.50271   1.85792
 ------------------------------------------------------------

 Electric field gradient in molecular frame (a.u.)
         XX             YY             ZZ             XY             XZ             YZ
 ------------------------------------------------------------------------------------------
       -0.231437       0.138591       0.092845       0.106818       0.133683      -0.035820

 Principal components (a.u.) and orientation 
 of principal axis w.r.t. absolute frame                      Asymmetry parameter eta
 --------------------------------------------------------------------------------------
       -0.307860       0.167213       0.140647                       0.086294

        0.913002       0.258819       0.315341
       -0.244638       0.965926      -0.084495
       -0.326465       0.000000       0.945209
  

          ---------------------
          Electron/spin density
          ---------------------

 1 a.u. = 4.80286 10**(-10) esu 

 Total electron density 
 ---------------------- 
   Point      X         Y         Z      Density (a.u.)
    1 C    0.00000   0.00000   1.19651     119.526654
    2 F    0.00000   0.00000  -1.41698     426.433666
    3 H    1.37344   1.37344   1.85792       0.447471
    4 H    0.50271  -1.87616   1.85792       0.447471
    5 H   -1.87616   0.50271   1.85792       0.447471

          -----------------------------------------
          Chemical Shielding Tensors (GIAO, in ppm)
          -----------------------------------------

                                NWChem CPHF Module
                                ------------------
 
 
  scftype          =     RHF 
  nclosed          =        9
  nopen            =        0
  variables        =      522
  # of vectors     =        3
  tolerance        = 0.10D-03
  level shift      = 0.00D+00
  max iterations   =       50
  max subspace     =       30


 Integral file          = ./prop_ch3f.aoints.0
 Record size in doubles =  65536        No. of integs per rec  =  43688
 Max. records in memory =     42        Max. records in file   =  11652
 No. of bits per label  =      8        No. of bits per value  =     64


 #quartets = 1.965D+05 #integrals = 2.214D+06 #direct =  0.0% #cached =100.0%


File balance: exchanges=     1  moved=     4  time=   0.0



Iterative solution of linear equations
  No. of variables      522
  No. of equations        3
  Maximum subspace       30
        Iterations       50
       Convergence  1.0D-04
        Start time     40.2


   iter   nsub   residual    time
   ----  ------  --------  ---------
     1      3    1.54D-01      44.7
     2      6    2.87D-03      49.2
     3      9    1.85D-04      53.7
     4     12    1.75D-05      58.2

 Parallel integral file used      51 records with       0 large values

      Atom:    1  C 
        Diamagnetic
    239.1067      0.0000      0.0000
      0.0000    239.1067      0.0000
      0.0000      0.0000    252.4681

        Paramagnetic
   -162.9980     -0.0038     -0.0166
     -0.0038   -162.9980     -0.0166
     -0.0065     -0.0065    -68.8308

        Total Shielding Tensor
     76.1087     -0.0039     -0.0166
     -0.0039     76.1087     -0.0166
     -0.0065     -0.0065    183.6373

           isotropic =     111.9516
          anisotropy =     107.5286

          Principal Components and Axis System
                 1           2           3
              183.6373     76.1126     76.1048

      1        -0.0002     -0.7071      0.7071
      2        -0.0002      0.7071      0.7071
      3         1.0000      0.0000      0.0002



      Atom:    2  F 
        Diamagnetic
    449.8070      0.0000      0.0000
      0.0000    449.8070      0.0000
      0.0000      0.0000    494.4615

        Paramagnetic
     41.8539      0.0028      0.0139
      0.0028     41.8539      0.0139
     -0.0199     -0.0199    -72.9016

        Total Shielding Tensor
    491.6609      0.0028      0.0139
      0.0028    491.6609      0.0139
     -0.0199     -0.0199    421.5599

           isotropic =     468.2939
          anisotropy =      35.0548

          Principal Components and Axis System
                 1           2           3
              491.6638    491.6581    421.5599

      1         0.7071      0.7071     -0.0002
      2         0.7071     -0.7071     -0.0002
      3         0.0003      0.0000      1.0000



      Atom:    3  H 
        Diamagnetic
     29.3474      5.8831      3.5302
      5.8831     29.3474      3.5302
      3.9630      3.9630     28.5377

        Paramagnetic
     -3.2517     -4.8855     -0.8465
     -4.8855     -3.2517     -0.8465
     -2.9286     -2.9286      2.5651

        Total Shielding Tensor
     26.0957      0.9976      2.6836
      0.9976     26.0957      2.6836
      1.0344      1.0344     31.1028

           isotropic =      27.7647
          anisotropy =       8.4382

          Principal Components and Axis System
                 1           2           3
               33.3902     25.0981     24.8058

      1         0.3650     -0.7071      0.6056
      2         0.3650      0.7071      0.6056
      3         0.8565      0.0000     -0.5162



      Atom:    4  H 
        Diamagnetic
     24.2525     -2.9416      1.2921
     -2.9416     34.4423     -4.8223
      1.4505     -5.4135     28.5377

        Paramagnetic
      0.9785      2.4419     -0.3111
      2.4414     -7.4809      1.1537
     -1.0728      4.0018      2.5595

        Total Shielding Tensor
     25.2310     -0.4997      0.9810
     -0.5002     26.9614     -3.6686
      0.3777     -1.4117     31.0972

           isotropic =      27.7632
          anisotropy =       8.4381

          Principal Components and Axis System
                 1           2           3
               33.3886     25.0970     24.8039

      1         0.1335      0.9668     -0.2179
      2        -0.4991      0.2556      0.8280
      3         0.8562     -0.0018      0.5166



      Atom:    5  H 
        Diamagnetic
     34.4423     -2.9416     -4.8223
     -2.9416     24.2525      1.2921
     -5.4135      1.4505     28.5377

        Paramagnetic
     -7.4809      2.4414      1.1537
      2.4419      0.9785     -0.3111
      4.0018     -1.0728      2.5595

        Total Shielding Tensor
     26.9614     -0.5002     -3.6686
     -0.4997     25.2310      0.9810
     -1.4117      0.3777     31.0972

           isotropic =      27.7632
          anisotropy =       8.4382

          Principal Components and Axis System
                 1           2           3
               33.3887     25.0968     24.8041

      1        -0.4991      0.2545      0.8283
      2         0.1336      0.9671     -0.2167
      3         0.8562     -0.0025      0.5166




 Task  times  cpu:       37.0s     wall:       38.6s
 
 
                                NWChem Input Module
                                -------------------
 
 
 Summary of allocated global arrays
-----------------------------------
  No active global arrays



                         GA Statistics for process    0
                         ------------------------------

       create   destroy   get      put      acc     scatter   gather  read&inc
calls: 1109     1109     3.17e+06 1.11e+04 1.94e+06  363        0        0     
number of processes/call 1.03e+00 1.50e+00 1.04e+00 1.12e+00 0.00e+00
bytes total:             4.74e+08 1.76e+07 3.43e+08 5.41e+06 0.00e+00 0.00e+00
bytes remote:            2.34e+08 1.78e+06 1.99e+08 -5.65e+05 0.00e+00 0.00e+00
Max memory consumed for GA by this process: 1301944 bytes
 
MA_summarize_allocated_blocks: starting scan ...
MA_summarize_allocated_blocks: scan completed: 0 heap blocks, 0 stack blocks
MA usage statistics:

	allocation statistics:
					      heap	     stack
					      ----	     -----
	current number of blocks	         0	         0
	maximum number of blocks	        26	        48
	current total bytes		         0	         0
	maximum total bytes		  25485104	  22512704
	maximum total K-bytes		     25486	     22513
	maximum total M-bytes		        26	        23
 
 
                                     CITATION
                                     --------
                Please cite the following reference when publishing
                           results obtained with NWChem:
 
                 M. Valiev, E.J. Bylaska, N. Govind, K. Kowalski,
              T.P. Straatsma, H.J.J. van Dam, D. Wang, J. Nieplocha,
                        E. Apra, T.L. Windus, W.A. de Jong
                 "NWChem: a comprehensive and scalable open-source
                  solution for large scale molecular simulations"
                      Comput. Phys. Commun. 181, 1477 (2010)
                           doi:10.1016/j.cpc.2010.04.018
 
                              AUTHORS & CONTRIBUTORS
                              ----------------------
      E. J. Bylaska, W. A. de Jong, N. Govind, K. Kowalski, T. P. Straatsma,
     M. Valiev, H. J. J. van Dam, D. Wang, E. Apra, T. L. Windus, J. Hammond,
     J. Autschbach, P. Nichols, S. Hirata, M. T. Hackler, Y. Zhao, P.-D. Fan,
      R. J. Harrison, M. Dupuis, D. M. A. Smith, K. Glaesemann, J. Nieplocha,
      V. Tipparaju, M. Krishnan, A. Vazquez-Mayagoitia, L. Jensen, M. Swart,
      Q. Wu, T. Van Voorhis, A. A. Auer, M. Nooijen, L. D. Crosby, E. Brown,
             G. Cisneros, G. I. Fann, H. Fruchtl, J. Garza, K. Hirao,
        R. Kendall, J. A. Nichols, K. Tsemekhman, K. Wolinski, J. Anchell,
       D. Bernholdt, P. Borowski, T. Clark, D. Clerc, H. Dachsel, M. Deegan,
        K. Dyall, D. Elwood, E. Glendening, M. Gutowski, A. Hess, J. Jaffe,
        B. Johnson, J. Ju, R. Kobayashi, R. Kutteh, Z. Lin, R. Littlefield,
    X. Long, B. Meng, T. Nakajima, S. Niu, L. Pollack, M. Rosing, G. Sandrone,
       M. Stave, H. Taylor, G. Thomas, J. H. van Lenthe, A. Wong, Z. Zhang.

 Total times  cpu:       54.4s     wall:       58.5s
