ARMCI configured for 2 cluster nodes. Network protocol is 'Quadrics ELAN-4'.
 argument  1 = prop_ch3f.nw
 


============================== echo of input deck ==============================
echo
title ch3f

geometry
c  0.0    0.0    0.0
f  0.0    0.0    1.383
h  1.028  0.0   -0.350
h -0.514  0.890 -0.350
h -0.514 -0.890 -0.350
end

basis
* library 6-311++G**
end

charge 0

property
  mulliken
  dipole
  quadrupole
  octupole
  esp
  efield
  efieldgrad
  electrondensity
  shielding
end

task scf property

dft
 xc b3lyp
end

task dft property
================================================================================


                                         
                                         
 
 
              Northwest Computational Chemistry Package (NWChem) 4.7
              ------------------------------------------------------
 
 
                    Environmental Molecular Sciences Laboratory
                       Pacific Northwest National Laboratory
                                Richland, WA 99352
 
                                         
                                         
 
 
                     COPYRIGHT (C) 1994, 1995, 1996, 1997, 1998,
                         1999, 2000, 2001, 2002, 2003, 2004
                        Pacific Northwest National Laboratory,
                             Battelle Memorial Institute.
 
                            >>> All Rights Reserved <<<
 
 
                                    DISCLAIMER
                                    ----------

            This material was prepared as an account of work sponsored
            by an agency of the United States Government.  Neither the
            United States Government nor the United States Department
            of Energy, nor Battelle, nor any of their employees, MAKES
            ANY WARRANTY, EXPRESS OR IMPLIED, OR ASSUMES ANY LEGAL
            LIABILITY OR RESPONSIBILITY FOR THE ACCURACY, COMPLETENESS,
            OR USEFULNESS OF ANY INFORMATION, APPARATUS, PRODUCT,
            SOFTWARE, OR PROCESS DISCLOSED, OR REPRESENTS THAT ITS USE
            WOULD NOT INFRINGE PRIVATELY OWNED RIGHTS.


                                    LIMITED USE
                                    -----------

            This software (including any documentation) is being made
            available to you for your internal use only, solely for use
            in performance of work directly for the U.S. Federal
            Government or work under contracts with the U.S. Department
            of Energy or other U.S. Federal Government agencies.  This
            software is a version which has not yet been evaluated and
            cleared for commercialization.  Adherence to this notice
            may be necessary for the author, Battelle Memorial
            Institute, to successfully assert copyright in and
            commercialize this software. This software is not intended
            for duplication or distribution to third parties without
            the permission of the Manager of Software Products at
            Pacific Northwest National Laboratory, Richland,
            Washington, 99352.


                                  ACKNOWLEDGMENT
                                  --------------

            This software and its documentation were produced with
            Government support under Contract Number DE-AC06-76RLO-1830
            awarded by the United States Department of Energy.  The
            Government retains a paid-up non-exclusive, irrevocable
            worldwide license to reproduce, prepare derivative works,
            perform publicly and display publicly by or for the
            Government, including the right to distribute to other
            Government contractors.


           Job information
           ---------------

    hostname      = m570
    program       = /home/bert/nwchem-4.7/bin/LINUX64/nwchem
    date          = Tue Jan  4 09:47:57 2005

    compiled      = Tue Jan  4 09:35:09 PST 2005
    source        = /home/bert/nwchem-4.7
    nwchem branch = Development
    input         = prop_ch3f.nw
    prefix        = prop_ch3f.
    data base     = ./prop_ch3f.db
    status        = startup
    nproc         =    4
    time left     =     -1s
    batch job id  = 186642

           Memory information
           ------------------

    heap      =   13107201 doubles =    100.0 Mbytes
    stack     =   13107201 doubles =    100.0 Mbytes
    global    =   26214400 doubles =    200.0 Mbytes (distinct from heap & stack)
    total     =   52428802 doubles =    400.0 Mbytes
    verify    = yes
    hardfail  = no 


           Directory information
           ---------------------
 
  0 permanent = .
  0 scratch   = /scratch
 
 
 
 
                                NWChem Input Module
                                -------------------
 
 
                                       ch3f
                                       ----

 Scaling coordinates for geometry "geometry" by  1.889725989
 (inverse scale =  0.529177249)

 C3V symmetry detected

          ------
          auto-z
          ------
  Looking for out-of-plane bends
 
 
                             Geometry "geometry" -> ""
                             -------------------------
 
 Output coordinates in angstroms (scale by  1.889725989 to convert to a.u.)
 
  No.       Tag          Charge          X              Y              Z
 ---- ---------------- ---------- -------------- -------------- --------------
    1 c                    6.0000    -0.00000000    -0.00000000    -0.63316667
    2 f                    9.0000     0.00000000     0.00000000     0.74983333
    3 h                    1.0000     0.72679386     0.72679386    -0.98316667
    4 h                    1.0000    -0.99281888     0.26602502    -0.98316667
    5 h                    1.0000     0.26602502    -0.99281888    -0.98316667
 
      Atomic Mass 
      ----------- 
 
      c                 12.000000
      f                 18.998400
      h                  1.007825
 

 Effective nuclear repulsion energy (a.u.)      37.4174025709

            Nuclear Dipole moment (a.u.) 
            ----------------------------
        X                 Y               Z
 ---------------- ---------------- ----------------
    -0.0000000000    -0.0000000000    -0.0000000000
 
      Symmetry information
      --------------------
 
 Group name             C3v       
 Group number             17
 Group order               6
 No. of unique centers     3
 
      Symmetry unique atoms
 
     1    2    3
 


                                Z-matrix (autoz)
                                -------- 

 Units are Angstrom for bonds and degrees for angles
 
      Type          Name      I     J     K     L     M      Value
      ----------- --------  ----- ----- ----- ----- ----- ----------
    1 Stretch                  1     2                       1.38300
    2 Stretch                  1     3                       1.08580
    3 Stretch                  1     4                       1.08580
    4 Stretch                  1     5                       1.08580
    5 Bend                     2     1     3               108.80470
    6 Bend                     2     1     4               108.80470
    7 Bend                     2     1     5               108.80470
    8 Bend                     3     1     4               110.12944
    9 Bend                     3     1     5               110.12944
   10 Bend                     4     1     5               110.12944
 
 ==============================================================================
                                internuclear distances
 ------------------------------------------------------------------------------
       center one      |      center two      | atomic units |  angstroms
 ------------------------------------------------------------------------------
    2 f                |   1 c                |     2.61349  |     1.38300
    3 h                |   1 c                |     2.05186  |     1.08580
    4 h                |   1 c                |     2.05186  |     1.08580
    5 h                |   1 c                |     2.05186  |     1.08580
 ------------------------------------------------------------------------------
                         number of included internuclear distances:          4
 ==============================================================================



 ==============================================================================
                                 internuclear angles
 ------------------------------------------------------------------------------
        center 1       |       center 2       |       center 3       |  degrees
 ------------------------------------------------------------------------------
    2 f                |   1 c                |   3 h                |   108.80
    2 f                |   1 c                |   4 h                |   108.80
    2 f                |   1 c                |   5 h                |   108.80
    3 h                |   1 c                |   4 h                |   110.13
    3 h                |   1 c                |   5 h                |   110.13
    4 h                |   1 c                |   5 h                |   110.13
 ------------------------------------------------------------------------------
                            number of included internuclear angles:          6
 ==============================================================================



  library name resolved from: .nwchemrc
  library file name is: </home/bert/nwchem.latest.p2/src/basis/libraries/>
  


 Summary of "ao basis" -> "" (cartesian)
 ------------------------------------------------------------------------------
       Tag                 Description            Shells   Functions and Types
 ---------------- ------------------------------  ------  ---------------------
 *                         6-311++G**                 on all atoms 


                              NWChem Property Module
                              ----------------------
 
 
                                       ch3f
 
                      Basis "ao basis" -> "ao basis" (cartesian)
                      -----
  c (Carbon)
  ----------
            Exponent  Coefficients 
       -------------- ---------------------------------------------------------
  1 S  4.56324000E+03  0.001967
  1 S  6.82024000E+02  0.015231
  1 S  1.54973000E+02  0.076127
  1 S  4.44553000E+01  0.260801
  1 S  1.30290000E+01  0.616462
  1 S  1.82773000E+00  0.221006
 
  2 S  2.09642000E+01  0.114660
  2 S  4.80331000E+00  0.919999
  2 S  1.45933000E+00 -0.003031
 
  3 P  2.09642000E+01  0.040249
  3 P  4.80331000E+00  0.237594
  3 P  1.45933000E+00  0.815854
 
  4 S  4.83456000E-01  1.000000
 
  5 P  4.83456000E-01  1.000000
 
  6 S  1.45585000E-01  1.000000
 
  7 P  1.45585000E-01  1.000000
 
  8 D  6.26000000E-01  1.000000
 
  9 S  4.38000000E-02  1.000000
 
 10 P  4.38000000E-02  1.000000
 
  f (Fluorine)
  ------------
            Exponent  Coefficients 
       -------------- ---------------------------------------------------------
  1 S  1.14271000E+04  0.001801
  1 S  1.72235000E+03  0.013742
  1 S  3.95746000E+02  0.068133
  1 S  1.15139000E+02  0.233325
  1 S  3.36026000E+01  0.589086
  1 S  4.91901000E+00  0.299505
 
  2 S  5.54441000E+01  0.114536
  2 S  1.26323000E+01  0.920512
  2 S  3.71756000E+00 -0.003378
 
  3 P  5.54441000E+01  0.035461
  3 P  1.26323000E+01  0.237451
  3 P  3.71756000E+00  0.820458
 
  4 S  1.16545000E+00  1.000000
 
  5 P  1.16545000E+00  1.000000
 
  6 S  3.21892000E-01  1.000000
 
  7 P  3.21892000E-01  1.000000
 
  8 D  1.75000000E+00  1.000000
 
  9 S  1.07600000E-01  1.000000
 
 10 P  1.07600000E-01  1.000000
 
  h (Hydrogen)
  ------------
            Exponent  Coefficients 
       -------------- ---------------------------------------------------------
  1 S  3.38650000E+01  0.025494
  1 S  5.09479000E+00  0.190373
  1 S  1.15879000E+00  0.852161
 
  2 S  3.25840000E-01  1.000000
 
  3 S  1.02741000E-01  1.000000
 
  4 P  7.50000000E-01  1.000000
 
  5 S  3.60000000E-02  1.000000
 


 Summary of "ao basis" -> "ao basis" (cartesian)
 ------------------------------------------------------------------------------
       Tag                 Description            Shells   Functions and Types
 ---------------- ------------------------------  ------  ---------------------
 c                         6-311++G**               10       23   5s4p1d
 f                         6-311++G**               10       23   5s4p1d
 h                         6-311++G**                5        7   4s1p


                                 NWChem SCF Module
                                 -----------------
 
 
                                       ch3f
 
 

  ao basis        = "ao basis"
  functions       =    67
  atoms           =     5
  closed shells   =     9
  open shells     =     0
  charge          =   0.00
  wavefunction    = RHF 
  input vectors   = atomic
  output vectors  = ./prop_ch3f.movecs
  use symmetry    = F
  symmetry adapt  = F


 Summary of "ao basis" -> "ao basis" (cartesian)
 ------------------------------------------------------------------------------
       Tag                 Description            Shells   Functions and Types
 ---------------- ------------------------------  ------  ---------------------
 c                         6-311++G**               10       23   5s4p1d
 f                         6-311++G**               10       23   5s4p1d
 h                         6-311++G**                5        7   4s1p



 Forming initial guess at       1.9s

 
      Superposition of Atomic Density Guess
      -------------------------------------
 
 Sum of atomic energies:        -138.57644570
 
      Non-variational initial energy
      ------------------------------

 Total energy =    -139.239820
 1-e energy   =    -264.810328
 2-e energy   =      88.153106
 HOMO         =      -0.448860
 LUMO         =       0.032921
 

 Starting SCF solution at       2.2s



 ----------------------------------------------
         Quadratically convergent ROHF

 Convergence threshold     :          1.000E-06
 Maximum no. of iterations :           20
 Final Fock-matrix accuracy:          1.000E-08
 ----------------------------------------------


 Integral file          = /scratch/prop_ch3f.aoints.0
 Record size in doubles =  65536        No. of integs per rec  =  43688
 Max. records in memory =     22        Max. records in file   =  10901
 No. of bits per label  =      8        No. of bits per value  =     64


 #quartets = 1.965D+05 #integrals = 2.214D+06 #direct =  0.0% #cached =100.0%


File balance: exchanges=     0  moved=     0  time=   0.0


              iter       energy          gnorm     gmax       time
             ----- ------------------- --------- --------- --------
                 1     -139.0516226166  7.55D-01  2.06D-01      1.1
                 2     -139.0794347262  2.56D-01  6.76D-02      1.2
                 3     -139.0831397142  1.25D-02  2.78D-03      1.3
                 4     -139.0831526326  9.49D-05  2.47D-05      1.5
                 5     -139.0831526336  9.25D-08  2.96D-08      1.7


       Final RHF  results 
       ------------------ 

         Total SCF energy =   -139.083152633595
      One-electron energy =   -266.467568027246
      Two-electron energy =     89.967012822751
 Nuclear repulsion energy =     37.417402570901

        Time for solution =      1.0s


             Final eigenvalues
             -----------------

              1      
    1  -26.2767
    2  -11.3082
    3   -1.5879
    4   -0.9586
    5   -0.6967
    6   -0.6967
    7   -0.6752
    8   -0.5334
    9   -0.5334
   10    0.0399
   11    0.0719
   12    0.0719
   13    0.0976
   14    0.1506
   15    0.1506
   16    0.1818
   17    0.2888
   18    0.2912
   19    0.2912
 
                       ROHF Final Molecular Orbital Analysis
                       -------------------------------------
 
 Vector    2  Occ=2.000000D+00  E=-1.130821D+01
              MO Center=  7.9D-13,  7.9D-13, -6.3D-01, r^2= 2.7D-02
   Bfn.  Coefficient  Atom+Function         Bfn.  Coefficient  Atom+Function  
  ----- ------------  ---------------      ----- ------------  ---------------
     1      0.563566  1 C  s                  2      0.466114  1 C  s          
 
 Vector    3  Occ=2.000000D+00  E=-1.587860D+00
              MO Center=  4.1D-10,  4.1D-10,  6.1D-01, r^2= 4.1D-01
   Bfn.  Coefficient  Atom+Function         Bfn.  Coefficient  Atom+Function  
  ----- ------------  ---------------      ----- ------------  ---------------
    29      0.592410  2 F  s                 33      0.472545  2 F  s          
    25     -0.201575  2 F  s          
 
 Vector    4  Occ=2.000000D+00  E=-9.586035D-01
              MO Center= -6.1D-10, -6.1D-10, -5.0D-01, r^2= 1.3D+00
   Bfn.  Coefficient  Atom+Function         Bfn.  Coefficient  Atom+Function  
  ----- ------------  ---------------      ----- ------------  ---------------
     6      0.424967  1 C  s                 10      0.269362  1 C  s          
    33     -0.186710  2 F  s                 29     -0.173528  2 F  s          
     2     -0.162695  1 C  s                 32     -0.153334  2 F  pz         
 
 Vector    5  Occ=2.000000D+00  E=-6.966803D-01
              MO Center=  5.0D-02,  5.0D-02,  2.0D-01, r^2= 1.2D+00
   Bfn.  Coefficient  Atom+Function         Bfn.  Coefficient  Atom+Function  
  ----- ------------  ---------------      ----- ------------  ---------------
    31      0.255658  2 F  py                30      0.255658  2 F  px         
    35      0.217486  2 F  py                34      0.217486  2 F  px         
    27      0.167746  2 F  py                26      0.167746  2 F  px         
 
 Vector    6  Occ=2.000000D+00  E=-6.966803D-01
              MO Center= -5.0D-02, -5.0D-02,  2.0D-01, r^2= 1.2D+00
   Bfn.  Coefficient  Atom+Function         Bfn.  Coefficient  Atom+Function  
  ----- ------------  ---------------      ----- ------------  ---------------
    30      0.255658  2 F  px                31     -0.255658  2 F  py         
    34      0.217486  2 F  px                35     -0.217486  2 F  py         
    26      0.167746  2 F  px                27     -0.167746  2 F  py         
 
 Vector    7  Occ=2.000000D+00  E=-6.752109D-01
              MO Center= -1.0D-08, -1.0D-08,  2.0D-01, r^2= 1.3D+00
   Bfn.  Coefficient  Atom+Function         Bfn.  Coefficient  Atom+Function  
  ----- ------------  ---------------      ----- ------------  ---------------
    32      0.365684  2 F  pz                36      0.277312  2 F  pz         
     9     -0.255365  1 C  pz                28      0.237635  2 F  pz         
 
 Vector    8  Occ=2.000000D+00  E=-5.333926D-01
              MO Center=  1.3D-01,  1.3D-01, -2.9D-01, r^2= 1.6D+00
   Bfn.  Coefficient  Atom+Function         Bfn.  Coefficient  Atom+Function  
  ----- ------------  ---------------      ----- ------------  ---------------
    48      0.240048  3 H  s                 30     -0.211074  2 F  px         
    31     -0.211071  2 F  py                34     -0.199237  2 F  px         
    35     -0.199235  2 F  py                 7      0.170988  1 C  px         
     8      0.170986  1 C  py         
 
 Vector    9  Occ=2.000000D+00  E=-5.333926D-01
              MO Center= -1.3D-01, -1.3D-01, -2.9D-01, r^2= 1.6D+00
   Bfn.  Coefficient  Atom+Function         Bfn.  Coefficient  Atom+Function  
  ----- ------------  ---------------      ----- ------------  ---------------
    31      0.211074  2 F  py                30     -0.211071  2 F  px         
    62      0.207888  5 H  s                 55     -0.207887  4 H  s          
    35      0.199238  2 F  py                34     -0.199235  2 F  px         
     8     -0.170988  1 C  py                 7      0.170986  1 C  px         
 
 Vector   10  Occ=0.000000D+00  E= 3.992796D-02
              MO Center= -2.2D-07, -2.2D-07, -1.7D+00, r^2= 1.4D+01
   Bfn.  Coefficient  Atom+Function         Bfn.  Coefficient  Atom+Function  
  ----- ------------  ---------------      ----- ------------  ---------------
    20      5.646285  1 C  s                 67     -1.940471  5 H  s          
    60     -1.940471  4 H  s                 53     -1.940469  3 H  s          
    43     -0.582858  2 F  s                 23     -0.352233  1 C  pz         
    56     -0.298300  4 H  s                 63     -0.298300  5 H  s          
    49     -0.298300  3 H  s                 10      0.241737  1 C  s          
 
 Vector   11  Occ=0.000000D+00  E= 7.185522D-02
              MO Center=  8.4D-01,  8.4D-01, -1.4D+00, r^2= 1.4D+01
   Bfn.  Coefficient  Atom+Function         Bfn.  Coefficient  Atom+Function  
  ----- ------------  ---------------      ----- ------------  ---------------
    53      4.518556  3 H  s                 67     -2.259304  5 H  s          
    60     -2.259252  4 H  s                 22     -0.967436  1 C  py         
    21     -0.967423  1 C  px                49     -0.434851  3 H  s          
    63      0.217428  5 H  s                 56      0.217423  4 H  s          
 
 Vector   12  Occ=0.000000D+00  E= 7.185522D-02
              MO Center= -8.4D-01, -8.4D-01, -1.4D+00, r^2= 1.4D+01
   Bfn.  Coefficient  Atom+Function         Bfn.  Coefficient  Atom+Function  
  ----- ------------  ---------------      ----- ------------  ---------------
    60      3.913199  4 H  s                 67     -3.913169  5 H  s          
    21      0.967435  1 C  px                22     -0.967422  1 C  py         
    56     -0.376594  4 H  s                 63      0.376591  5 H  s          
 
 Vector   13  Occ=0.000000D+00  E= 9.757426D-02
              MO Center= -2.6D-07, -2.6D-07, -4.4D-01, r^2= 1.0D+01
   Bfn.  Coefficient  Atom+Function         Bfn.  Coefficient  Atom+Function  
  ----- ------------  ---------------      ----- ------------  ---------------
    23      1.549483  1 C  pz                43     -1.103580  2 F  s          
    20     -0.948732  1 C  s                 53      0.415904  3 H  s          
    60      0.415903  4 H  s                 67      0.415903  5 H  s          
    49      0.279470  3 H  s                 63      0.279470  5 H  s          
    56      0.279470  4 H  s                 10      0.261408  1 C  s          
 
 Vector   14  Occ=0.000000D+00  E= 1.506274D-01
              MO Center= -5.2D-01, -5.2D-01, -5.9D-01, r^2= 1.0D+01
   Bfn.  Coefficient  Atom+Function         Bfn.  Coefficient  Atom+Function  
  ----- ------------  ---------------      ----- ------------  ---------------
    53      5.487241  3 H  s                 22     -3.030498  1 C  py         
    21     -3.030405  1 C  px                67     -2.743696  5 H  s          
    60     -2.743548  4 H  s                 49      1.188870  3 H  s          
    63     -0.594452  5 H  s                 56     -0.594420  4 H  s          
    45      0.315936  2 F  py                44      0.315926  2 F  px         
 
 Vector   15  Occ=0.000000D+00  E= 1.506274D-01
              MO Center=  5.2D-01,  5.2D-01, -5.9D-01, r^2= 1.0D+01
   Bfn.  Coefficient  Atom+Function         Bfn.  Coefficient  Atom+Function  
  ----- ------------  ---------------      ----- ------------  ---------------
    60      4.752134  4 H  s                 67     -4.752049  5 H  s          
    21      3.030499  1 C  px                22     -3.030405  1 C  py         
    56      1.029602  4 H  s                 63     -1.029583  5 H  s          
    44     -0.315936  2 F  px                45      0.315926  2 F  py         
 
 Vector   16  Occ=0.000000D+00  E= 1.817990D-01
              MO Center=  5.0D-07,  5.0D-07, -1.4D+00, r^2= 1.2D+01
   Bfn.  Coefficient  Atom+Function         Bfn.  Coefficient  Atom+Function  
  ----- ------------  ---------------      ----- ------------  ---------------
    20     14.280589  1 C  s                 53     -3.379345  3 H  s          
    60     -3.379342  4 H  s                 67     -3.379342  5 H  s          
    43     -2.219939  2 F  s                 49     -1.353740  3 H  s          
    56     -1.353740  4 H  s                 63     -1.353740  5 H  s          
    23     -1.154727  1 C  pz                46      0.588580  2 F  pz         
 
 Vector   17  Occ=0.000000D+00  E= 2.887575D-01
              MO Center=  8.6D-07,  8.6D-07, -1.2D-01, r^2= 6.9D+00
   Bfn.  Coefficient  Atom+Function         Bfn.  Coefficient  Atom+Function  
  ----- ------------  ---------------      ----- ------------  ---------------
    20      6.559380  1 C  s                 10      3.394225  1 C  s          
    49     -2.291419  3 H  s                 56     -2.291414  4 H  s          
    63     -2.291414  5 H  s                 67     -1.022277  5 H  s          
    60     -1.022277  4 H  s                 53     -1.022273  3 H  s          
    43     -1.009702  2 F  s                 46      0.960512  2 F  pz         
 
 Vector   18  Occ=0.000000D+00  E= 2.912160D-01
              MO Center= -5.4D-01, -5.4D-01, -1.1D+00, r^2= 6.4D+00
   Bfn.  Coefficient  Atom+Function         Bfn.  Coefficient  Atom+Function  
  ----- ------------  ---------------      ----- ------------  ---------------
    67      2.500820  5 H  s                 60     -2.500820  4 H  s          
    63     -2.495447  5 H  s                 56      2.495446  4 H  s          
    12     -1.091077  1 C  py                11      1.091076  1 C  px         
    22      0.528677  1 C  py                21     -0.528676  1 C  px         
 
 Vector   19  Occ=0.000000D+00  E= 2.912160D-01
              MO Center=  5.4D-01,  5.4D-01, -1.1D+00, r^2= 6.4D+00
   Bfn.  Coefficient  Atom+Function         Bfn.  Coefficient  Atom+Function  
  ----- ------------  ---------------      ----- ------------  ---------------
    53      2.887699  3 H  s                 49     -2.881491  3 H  s          
    60     -1.443848  4 H  s                 67     -1.443848  5 H  s          
    56      1.440749  4 H  s                 63      1.440748  5 H  s          
    11      1.091077  1 C  px                12      1.091076  1 C  py         
    21     -0.528676  1 C  px                22     -0.528676  1 C  py         
 
 Vector   20  Occ=0.000000D+00  E= 3.408211D-01
              MO Center=  1.1D-08,  1.1D-08, -4.3D-01, r^2= 4.5D+00
   Bfn.  Coefficient  Atom+Function         Bfn.  Coefficient  Atom+Function  
  ----- ------------  ---------------      ----- ------------  ---------------
    13      1.519660  1 C  pz                10      1.092697  1 C  s          
    33     -1.089436  2 F  s                 23     -1.074501  1 C  pz         
    46      0.711096  2 F  pz                36      0.345415  2 F  pz         
    43      0.330694  2 F  s                 20      0.285193  1 C  s          
     9      0.212690  1 C  pz                32      0.182615  2 F  pz         
 
 Vector   21  Occ=0.000000D+00  E= 3.772361D-01
              MO Center=  4.0D-02,  4.0D-02,  7.4D-01, r^2= 5.1D+00
   Bfn.  Coefficient  Atom+Function         Bfn.  Coefficient  Atom+Function  
  ----- ------------  ---------------      ----- ------------  ---------------
    67      1.342693  5 H  s                 60     -1.342687  4 H  s          
    45     -1.330154  2 F  py                44      1.330144  2 F  px         
    22      1.012114  1 C  py                21     -1.012106  1 C  px         
    12      0.502040  1 C  py                11     -0.502036  1 C  px         
    35      0.386585  2 F  py                34     -0.386582  2 F  px         
 
 Vector   22  Occ=0.000000D+00  E= 3.772361D-01
              MO Center= -4.0D-02, -4.0D-02,  7.4D-01, r^2= 5.1D+00
   Bfn.  Coefficient  Atom+Function         Bfn.  Coefficient  Atom+Function  
  ----- ------------  ---------------      ----- ------------  ---------------
    53      1.550406  3 H  s                 44      1.330154  2 F  px         
    45      1.330144  2 F  py                21     -1.012114  1 C  px         
    22     -1.012106  1 C  py                60     -0.775208  4 H  s          
    67     -0.775197  5 H  s                 11     -0.502040  1 C  px         
    12     -0.502036  1 C  py                34     -0.386585  2 F  px         
 
 Vector   23  Occ=0.000000D+00  E= 3.851892D-01
              MO Center=  3.1D-08,  3.1D-08,  6.3D-01, r^2= 6.8D+00
   Bfn.  Coefficient  Atom+Function         Bfn.  Coefficient  Atom+Function  
  ----- ------------  ---------------      ----- ------------  ---------------
    20      7.485159  1 C  s                 63     -2.564229  5 H  s          
    56     -2.564229  4 H  s                 49     -2.564229  3 H  s          
    46     -2.415661  2 F  pz                53     -1.223852  3 H  s          
    60     -1.223852  4 H  s                 67     -1.223852  5 H  s          
    43      1.196378  2 F  s                 13     -1.056049  1 C  pz         
 
 Vector   24  Occ=0.000000D+00  E= 5.295881D-01
              MO Center=  1.4D-08,  1.4D-08,  3.6D-01, r^2= 5.9D+00
   Bfn.  Coefficient  Atom+Function         Bfn.  Coefficient  Atom+Function  
  ----- ------------  ---------------      ----- ------------  ---------------
    20      9.386279  1 C  s                 43     -7.367080  2 F  s          
    10      4.207607  1 C  s                 13      2.182301  1 C  pz         
    46      2.048559  2 F  pz                60     -1.757882  4 H  s          
    67     -1.757882  5 H  s                 53     -1.757882  3 H  s          
    33      1.135803  2 F  s                 63     -1.067592  5 H  s          
 

 center of mass
 --------------
 x =  -0.00000000 y =   0.00000000 z =   0.20412880

 moments of inertia (a.u.)
 ------------------
          70.047499012709          -0.000000000000          -0.000000000000
          -0.000000000000          70.047499012709          -0.000000000000
          -0.000000000000          -0.000000000000          11.406608960443
 
  Mulliken analysis of the total density
  --------------------------------------

    Atom       Charge   Shell Charges
 -----------   ------   -------------------------------------------------------
    1 C    6     6.14   1.10  0.89  0.56  0.72  1.49  0.47  0.69  0.11  0.10  0.01
    2 F    9     9.24   1.08  0.92  1.14  1.08  2.42  0.91  1.74 -0.01 -0.08  0.03
    3 H    1     0.87   0.27  0.53  0.06  0.02 -0.01
    4 H    1     0.87   0.27  0.53  0.06  0.02 -0.01
    5 H    1     0.87   0.27  0.53  0.06  0.02 -0.01
 
       Multipole analysis of the density wrt the origin
       ------------------------------------------------
 
     L   x y z        total         open         nuclear
     -   - - -        -----         ----         -------
     0   0 0 0     -0.000000      0.000000     18.000000
 
     1   1 0 0      0.000000      0.000000     -0.000000
     1   0 1 0      0.000000      0.000000     -0.000000
     1   0 0 1     -0.882910      0.000000     -0.000000
 
     2   2 0 0     -8.725694      0.000000      5.659023
     2   1 1 0      0.000000      0.000000      0.000000
     2   1 0 1     -0.000000      0.000000      0.000000
     2   0 2 0     -8.725694      0.000000      5.659023
     2   0 1 1     -0.000000      0.000000      0.000000
     2   0 0 2     -9.432077      0.000000     37.015869
 

 Parallel integral file used      53 records with       0 large values


          -------------
          Dipole Moment
          -------------

 Center of charge (in au) is the expansion point
         X =      -0.0000000 Y =      -0.0000000 Z =      -0.0000000

   Dipole moment        0.8829104035 A.U.
             DMX        0.0000000168 DMXEFC        0.0000000000
             DMY        0.0000000168 DMYEFC        0.0000000000
             DMZ       -0.8829104035 DMZEFC        0.0000000000
   -EFC- dipole         0.0000000000 A.U.
   Total dipole         0.8829104035 A.U.

   Dipole moment        2.2441513622 Debye(s)
             DMX        0.0000000426 DMXEFC        0.0000000000
             DMY        0.0000000426 DMYEFC        0.0000000000
             DMZ       -2.2441513622 DMZEFC        0.0000000000
   -EFC- dipole         0.0000000000 DEBYE(S)
   Total dipole         2.2441513622 DEBYE(S)

 1 a.u. = 2.541766 Debyes 

          -----------------
          Quadrupole Moment
          -----------------

 Center of charge (in au) is the expansion point
         X =      -0.0000000 Y =      -0.0000000 Z =      -0.0000000

 < R**2 > =  75.217379 a.u.  ( 1 a.u. = 0.280023 10**(-16) cm**2 ) 
 ( also called diamagnetic susceptibility ) 

   Second moments in atomic units

   Component  Electronic+nuclear     Point charges             Total
  --------------------------------------------------------------------------
      XX           -8.7256939633          0.0000000000         -8.7256939633
      YY           -8.7256939633          0.0000000000         -8.7256939633
      ZZ           -9.4320768323          0.0000000000         -9.4320768323
      XY            0.0000000013          0.0000000000          0.0000000013
      XZ           -0.0000000208          0.0000000000         -0.0000000208
      YZ           -0.0000000208          0.0000000000         -0.0000000208

   Second moments in buckingham(s)

   Component  Electronic+nuclear     Point charges             Total
  --------------------------------------------------------------------------
      XX          -11.7352817939          0.0000000000        -11.7352817939
      YY          -11.7352817939          0.0000000000        -11.7352817939
      ZZ          -12.6853038846          0.0000000000        -12.6853038846
      XY            0.0000000018          0.0000000000          0.0000000018
      XZ           -0.0000000280          0.0000000000         -0.0000000280
      YZ           -0.0000000280          0.0000000000         -0.0000000280

   Quadrupole moments in atomic units

   Component  Electronic+nuclear     Point charges             Total
  --------------------------------------------------------------------------
      XX            0.3531914345          0.0000000000          0.3531914345
      YY            0.3531914345          0.0000000000          0.3531914345
      ZZ           -0.7063828690          0.0000000000         -0.7063828690
      XY            0.0000000020          0.0000000000          0.0000000020
      XZ           -0.0000000312          0.0000000000         -0.0000000312
      YZ           -0.0000000312          0.0000000000         -0.0000000312

   Quadrupole moments in buckingham(s)

   Component  Electronic+nuclear     Point charges             Total
  --------------------------------------------------------------------------
      XX            0.4750110454          0.0000000000          0.4750110454
      YY            0.4750110454          0.0000000000          0.4750110454
      ZZ           -0.9500220907          0.0000000000         -0.9500220907
      XY            0.0000000027          0.0000000000          0.0000000027
      XZ           -0.0000000420          0.0000000000         -0.0000000420
      YZ           -0.0000000420          0.0000000000         -0.0000000420

 1 a.u. = 1.344911 Buckinghams = 1.344911 10**(-26) esu*cm**2 

          ---------------
          Octupole Moment
          ---------------

 Center of charge (in au) is the expansion point
         X =      -0.0000000 Y =      -0.0000000 Z =      -0.0000000

   Third moments in atomic units

   Component  Electronic+nuclear     Point charges             Total
  --------------------------------------------------------------------------
      XXX          -0.6471102812          0.0000000000         -0.6471102812
      YYY          -0.6471102812          0.0000000000         -0.6471102812
      ZZZ           4.8801568166          0.0000000000          4.8801568166
      XXY           0.6471106407          0.0000000000          0.6471106407
      XXZ           1.4493469946          0.0000000000          1.4493469946
      YYX           0.6471106407          0.0000000000          0.6471106407
      YYZ           1.4493469946          0.0000000000          1.4493469946
      ZZX           0.0000000924          0.0000000000          0.0000000924
      ZZY           0.0000000924          0.0000000000          0.0000000924
      XYZ          -0.0000000202          0.0000000000         -0.0000000202

   Third moments in 10**(-34) esu*cm**3

   Component  Electronic+nuclear     Point charges             Total
  --------------------------------------------------------------------------
      XXX          -0.4605406218          0.0000000000         -0.4605406218
      YYY          -0.4605406218          0.0000000000         -0.4605406218
      ZZZ           3.4731490445          0.0000000000          3.4731490445
      XXY           0.4605408777          0.0000000000          0.4605408777
      XXZ           1.0314828639          0.0000000000          1.0314828639
      YYX           0.4605408777          0.0000000000          0.4605408777
      YYZ           1.0314828639          0.0000000000          1.0314828639
      ZZX           0.0000000657          0.0000000000          0.0000000657
      ZZY           0.0000000657          0.0000000000          0.0000000657
      XYZ          -0.0000000144          0.0000000000         -0.0000000144

   Octupole moments in atomic units

   Component  Electronic+nuclear     Point charges             Total
  --------------------------------------------------------------------------
      XXX          -1.6177763808          0.0000000000         -1.6177763808
      YYY          -1.6177763808          0.0000000000         -1.6177763808
      ZZZ           0.5321158327          0.0000000000          0.5321158327
      XXY           1.6177763759          0.0000000000          1.6177763759
      XXZ          -0.2660579163          0.0000000000         -0.2660579163
      YYX           1.6177763759          0.0000000000          1.6177763759
      YYZ          -0.2660579164          0.0000000000         -0.2660579164
      ZZX           0.0000000049          0.0000000098          0.0000000148
      ZZY           0.0000000049          0.0000000000          0.0000000049
      XYZ          -0.0000000505          0.0000000000         -0.0000000505

   Octupole moments in 10**(-34) esu*cm**3

   Component  Electronic+nuclear     Point charges             Total
  --------------------------------------------------------------------------
      XXX          -1.1513520369          0.0000000000         -1.1513520369
      YYY          -1.1513520369          0.0000000000         -1.1513520369
      ZZZ           0.3787004528          0.0000000000          0.3787004528
      XXY           1.1513520334          0.0000000000          1.1513520334
      XXZ          -0.1893502264          0.0000000000         -0.1893502264
      YYX           1.1513520334          0.0000000000          1.1513520334
      YYZ          -0.1893502264          0.0000000000         -0.1893502264
      ZZX           0.0000000035          0.0000000070          0.0000000105
      ZZY           0.0000000035          0.0000000000          0.0000000035
      XYZ          -0.0000000360          0.0000000000         -0.0000000360

 1 a.u. = 0.711688 10**(-34) esu*cm**3 


          ----------------------------
          Mulliken population analysis
          ----------------------------

          ----- Total      overlap population -----

                               1              2              3              4              5              6              7

    1  1 C  s             0.6563520427   0.4922631318  -0.0000000000   0.0000000000   0.0000000000  -0.0282069829  -0.0000000000
    2  1 C  s             0.4922631318   0.4925058271   0.0000000000   0.0000000000   0.0000000000  -0.0611429674  -0.0000000000
    3  1 C  px           -0.0000000000   0.0000000000   0.0801507841  -0.0000000000  -0.0000000000   0.0000000000   0.0796436560
    4  1 C  py           -0.0000000000   0.0000000000  -0.0000000000   0.0801507841  -0.0000000000  -0.0000000000  -0.0000000000
    5  1 C  pz            0.0000000000   0.0000000000  -0.0000000000  -0.0000000000   0.0418607200  -0.0000000000   0.0000000000
    6  1 C  s            -0.0282069829  -0.0611429674  -0.0000000000  -0.0000000000  -0.0000000000   0.3887072827  -0.0000000000
    7  1 C  px           -0.0000000000  -0.0000000000   0.0796436560  -0.0000000000   0.0000000000  -0.0000000000   0.2002612765
    8  1 C  py           -0.0000000000  -0.0000000000  -0.0000000000   0.0796436560   0.0000000000  -0.0000000000  -0.0000000000
    9  1 C  pz           -0.0000000000   0.0000000000  -0.0000000000  -0.0000000000   0.0478757873  -0.0000000000   0.0000000000
   10  1 C  s            -0.0084201317  -0.0171684203  -0.0000000000  -0.0000000000  -0.0000000000   0.1862444338   0.0000000000
   11  1 C  px            0.0000000000   0.0000000000   0.0169602733  -0.0000000000   0.0000000000  -0.0000000000   0.0793772083
   12  1 C  py           -0.0000000000   0.0000000000  -0.0000000000   0.0169602733   0.0000000000  -0.0000000000  -0.0000000000
   13  1 C  pz            0.0000000000   0.0000000000  -0.0000000000  -0.0000000000   0.0062806472  -0.0000000000  -0.0000000000
   14  1 C  dxx          -0.0000450681  -0.0000235637  -0.0000000000  -0.0000000000   0.0000000000  -0.0007688366  -0.0000000000
   15  1 C  dxy           0.0000000000   0.0000000000  -0.0000000000   0.0000000000   0.0000000000  -0.0000000000   0.0000000000
   16  1 C  dxz           0.0000000000  -0.0000000000   0.0000000000   0.0000000000  -0.0000000000   0.0000000000  -0.0000000000
   17  1 C  dyy          -0.0000450681  -0.0000235637   0.0000000000  -0.0000000000   0.0000000000  -0.0007688366   0.0000000000
   18  1 C  dyz           0.0000000000   0.0000000000   0.0000000000   0.0000000000   0.0000000000   0.0000000000   0.0000000000
   19  1 C  dzz          -0.0001653340  -0.0001939115  -0.0000000000   0.0000000000  -0.0000000000   0.0033117941  -0.0000000000
   20  1 C  s            -0.0006152297  -0.0012840044   0.0000000000   0.0000000000  -0.0000000000   0.0175163984   0.0000000000
   21  1 C  px            0.0000000000   0.0000000000  -0.0000615394   0.0000000000   0.0000000000  -0.0000000000  -0.0003078356
   22  1 C  py            0.0000000000   0.0000000000   0.0000000000  -0.0000615394   0.0000000000  -0.0000000000   0.0000000000
   23  1 C  pz           -0.0000000000  -0.0000000000  -0.0000000000  -0.0000000000  -0.0000575654  -0.0000000000  -0.0000000000
   24  2 F  s             0.0000000038  -0.0000000003   0.0000000000   0.0000000000  -0.0000027301   0.0000084111  -0.0000000000
   25  2 F  s             0.0000000015  -0.0000000002   0.0000000000   0.0000000000  -0.0000024439   0.0000227891  -0.0000000000
   26  2 F  px            0.0000000000  -0.0000000000  -0.0000016520  -0.0000000000   0.0000000000  -0.0000000000   0.0000193668
   27  2 F  py            0.0000000000  -0.0000000000  -0.0000000000  -0.0000016520   0.0000000000  -0.0000000000   0.0000000000
   28  2 F  pz           -0.0000019016   0.0000000540  -0.0000000000  -0.0000000000   0.0003423057   0.0018449432  -0.0000000000
   29  2 F  s            -0.0000025514  -0.0000014371  -0.0000000000  -0.0000000000   0.0007309326  -0.0010172550   0.0000000000
   30  2 F  px           -0.0000000000   0.0000000000  -0.0000523913   0.0000000000   0.0000000000  -0.0000000000   0.0002471888
   31  2 F  py           -0.0000000000   0.0000000000   0.0000000000  -0.0000523913   0.0000000000  -0.0000000000   0.0000000000
   32  2 F  pz           -0.0001545545  -0.0001876489   0.0000000000   0.0000000000   0.0075716653   0.0147794646   0.0000000000
   33  2 F  s             0.0002720565   0.0005313761  -0.0000000000  -0.0000000000   0.0009670752  -0.0118345224   0.0000000000
   34  2 F  px           -0.0000000000   0.0000000000  -0.0010002450  -0.0000000000  -0.0000000000  -0.0000000000  -0.0027196481
   35  2 F  py           -0.0000000000   0.0000000000  -0.0000000000  -0.0010002450  -0.0000000000  -0.0000000000  -0.0000000000
   36  2 F  pz           -0.0011956127  -0.0024163573  -0.0000000000  -0.0000000000   0.0146653806   0.0273712460  -0.0000000000
   37  2 F  dxx           0.0000001310   0.0000000239  -0.0000000000   0.0000000000  -0.0000112392  -0.0001155166  -0.0000000000
   38  2 F  dxy           0.0000000000   0.0000000000  -0.0000000000  -0.0000000000  -0.0000000000   0.0000000000  -0.0000000000
   39  2 F  dxz          -0.0000000000  -0.0000000000   0.0000270061  -0.0000000000  -0.0000000000  -0.0000000000   0.0002833111
   40  2 F  dyy           0.0000001310   0.0000000239   0.0000000000  -0.0000000000  -0.0000112392  -0.0001155166   0.0000000000
   41  2 F  dyz          -0.0000000000  -0.0000000000  -0.0000000000   0.0000270061  -0.0000000000  -0.0000000000   0.0000000000
   42  2 F  dzz          -0.0000069267  -0.0000055384  -0.0000000000  -0.0000000000   0.0003125042   0.0011435883  -0.0000000000
   43  2 F  s             0.0005463932   0.0011503621  -0.0000000000  -0.0000000000  -0.0007245734  -0.0158212917  -0.0000000000
   44  2 F  px            0.0000000000   0.0000000000  -0.0012105463   0.0000000000   0.0000000000  -0.0000000000  -0.0064741348
   45  2 F  py            0.0000000000   0.0000000000   0.0000000000  -0.0012105463   0.0000000000  -0.0000000000   0.0000000000
   46  2 F  pz            0.0001689600   0.0003974164   0.0000000000   0.0000000000   0.0001704125  -0.0047673272   0.0000000000
   47  3 H  s            -0.0002168375  -0.0003306133   0.0033988280   0.0033988280   0.0006251223   0.0149213950   0.0191668810
   48  3 H  s            -0.0019613377  -0.0039429832   0.0088480836   0.0088480836   0.0013133200   0.0490431287   0.0386449231
   49  3 H  s             0.0001104977   0.0002344992   0.0011751802   0.0011751802   0.0001021706  -0.0031039230   0.0063467178
   50  3 H  px           -0.0001770263  -0.0003670719   0.0000925813   0.0010263355   0.0001064996   0.0035710190   0.0000502831
   51  3 H  py           -0.0001770263  -0.0003670719   0.0010263355   0.0000925813   0.0001064996   0.0035710190   0.0027094270
   52  3 H  pz           -0.0000255003  -0.0000549837   0.0001682262   0.0001682262   0.0000568921   0.0005581941   0.0004389890
   53  3 H  s             0.0000533390   0.0001142613   0.0000543831   0.0000543831   0.0000075425  -0.0016210376   0.0003382069
   54  4 H  s            -0.0002168375  -0.0003306133   0.0063422993   0.0004553566   0.0006251223   0.0149213952   0.0357658873
   55  4 H  s            -0.0019613377  -0.0039429832   0.0165107484   0.0011854184   0.0013133199   0.0490431294   0.0721124075
   56  4 H  s             0.0001104980   0.0002344997   0.0021929177   0.0001574442   0.0001021706  -0.0031039290   0.0118431456
   57  4 H  px           -0.0003303356  -0.0006849654   0.0014536448   0.0002565837   0.0001987308   0.0066636116   0.0027559735
   58  4 H  py           -0.0000237170  -0.0000491783   0.0002565838   0.0002710215   0.0000142682   0.0004784258   0.0006773566
   59  4 H  pz           -0.0000255003  -0.0000549837   0.0003139142   0.0000225380   0.0000568922   0.0005581940   0.0008191646
   60  4 H  s             0.0000533400   0.0001142631   0.0001014809   0.0000072861   0.0000075425  -0.0016210615   0.0006311067
   61  5 H  s            -0.0002168375  -0.0003306133   0.0004553566   0.0063422993   0.0006251223   0.0149213952   0.0025678750
   62  5 H  s            -0.0019613377  -0.0039429832   0.0011854184   0.0165107484   0.0013133199   0.0490431294   0.0051774376
   63  5 H  s             0.0001104980   0.0002344997   0.0001574442   0.0021929177   0.0001021706  -0.0031039290   0.0008502983
   64  5 H  px           -0.0000237170  -0.0000491783   0.0002710215   0.0002565838   0.0000142682   0.0004784258   0.0014087339
   65  5 H  py           -0.0003303356  -0.0006849654   0.0002565837   0.0014536448   0.0001987308   0.0066636116   0.0006773563
   66  5 H  pz           -0.0000255003  -0.0000549837   0.0000225380   0.0003139142   0.0000568922   0.0005581940   0.0000588133
   67  5 H  s             0.0000533400   0.0001142631   0.0000072861   0.0001014809   0.0000075425  -0.0016210615   0.0000453119

                               8              9             10             11             12             13             14

    1  1 C  s            -0.0000000000   0.0000000000  -0.0084201317   0.0000000000  -0.0000000000   0.0000000000  -0.0000450681
    2  1 C  s            -0.0000000000   0.0000000000  -0.0171684203   0.0000000000   0.0000000000   0.0000000000  -0.0000235637
    3  1 C  px           -0.0000000000  -0.0000000000  -0.0000000000   0.0169602733  -0.0000000000  -0.0000000000  -0.0000000000
    4  1 C  py            0.0796436560  -0.0000000000  -0.0000000000  -0.0000000000   0.0169602733  -0.0000000000  -0.0000000000
    5  1 C  pz            0.0000000000   0.0478757873  -0.0000000000   0.0000000000   0.0000000000   0.0062806472   0.0000000000
    6  1 C  s            -0.0000000000  -0.0000000000   0.1862444338  -0.0000000000  -0.0000000000  -0.0000000000  -0.0007688366
    7  1 C  px           -0.0000000000   0.0000000000   0.0000000000   0.0793772083  -0.0000000000  -0.0000000000  -0.0000000000
    8  1 C  py            0.2002612765   0.0000000000   0.0000000000  -0.0000000000   0.0793772083  -0.0000000000   0.0000000000
    9  1 C  pz            0.0000000000   0.1407158605  -0.0000000000  -0.0000000000  -0.0000000000   0.0339408848  -0.0000000000
   10  1 C  s             0.0000000000  -0.0000000000   0.1640080148   0.0000000000   0.0000000000  -0.0000000000   0.0028140130
   11  1 C  px           -0.0000000000  -0.0000000000   0.0000000000   0.0740834754  -0.0000000000  -0.0000000000  -0.0000000000
   12  1 C  py            0.0793772083  -0.0000000000   0.0000000000  -0.0000000000   0.0740834754  -0.0000000000   0.0000000000
   13  1 C  pz           -0.0000000000   0.0339408848  -0.0000000000  -0.0000000000  -0.0000000000   0.0205113103   0.0000000000
   14  1 C  dxx           0.0000000000  -0.0000000000   0.0028140130  -0.0000000000   0.0000000000  -0.0000000000   0.0029813760
   15  1 C  dxy           0.0000000000   0.0000000000   0.0000000000   0.0000000000  -0.0000000000  -0.0000000000  -0.0000000000
   16  1 C  dxz           0.0000000000  -0.0000000000  -0.0000000000  -0.0000000000   0.0000000000  -0.0000000000   0.0000000000
   17  1 C  dyy          -0.0000000000  -0.0000000000   0.0028140130  -0.0000000000  -0.0000000000  -0.0000000000   0.0001464159
   18  1 C  dyz          -0.0000000000  -0.0000000000  -0.0000000000   0.0000000000  -0.0000000000   0.0000000000  -0.0000000000
   19  1 C  dzz          -0.0000000000   0.0000000000  -0.0056722663   0.0000000000  -0.0000000000   0.0000000000  -0.0013700217
   20  1 C  s             0.0000000000   0.0000000000   0.0130581712   0.0000000000  -0.0000000000   0.0000000000  -0.0010367954
   21  1 C  px            0.0000000000   0.0000000000  -0.0000000000  -0.0007902631   0.0000000000   0.0000000000   0.0000000000
   22  1 C  py           -0.0003078356   0.0000000000   0.0000000000   0.0000000000  -0.0007902631   0.0000000000  -0.0000000000
   23  1 C  pz           -0.0000000000  -0.0004729063   0.0000000000  -0.0000000000  -0.0000000000  -0.0006617710   0.0000000000
   24  2 F  s            -0.0000000000  -0.0003012635   0.0003973386  -0.0000000000  -0.0000000000   0.0001163746   0.0000014465
   25  2 F  s            -0.0000000000  -0.0004858209   0.0007082947  -0.0000000000  -0.0000000000   0.0002257567   0.0000011772
   26  2 F  px            0.0000000000   0.0000000000   0.0000000000  -0.0002404660   0.0000000000  -0.0000000000   0.0000000000
   27  2 F  py            0.0000193668   0.0000000000   0.0000000000   0.0000000000  -0.0002404660  -0.0000000000   0.0000000000
   28  2 F  pz           -0.0000000000   0.0091323236   0.0002283684  -0.0000000000  -0.0000000000   0.0012589007  -0.0000378791
   29  2 F  s             0.0000000000   0.0093311333  -0.0130734621   0.0000000000   0.0000000000  -0.0039028462  -0.0003474639
   30  2 F  px            0.0000000000   0.0000000000   0.0000000000  -0.0014671242   0.0000000000  -0.0000000000   0.0000000000
   31  2 F  py            0.0002471888   0.0000000000   0.0000000000   0.0000000000  -0.0014671242  -0.0000000000   0.0000000000
   32  2 F  pz            0.0000000000   0.0534895734   0.0016803324  -0.0000000000  -0.0000000000   0.0069684067  -0.0008873003
   33  2 F  s             0.0000000000   0.0031286772  -0.0298542241   0.0000000000   0.0000000000  -0.0111575212  -0.0015346321
   34  2 F  px           -0.0000000000   0.0000000000   0.0000000000  -0.0076273307   0.0000000000  -0.0000000000   0.0000000000
   35  2 F  py           -0.0027196481   0.0000000000   0.0000000000   0.0000000000  -0.0076273307  -0.0000000000   0.0000000000
   36  2 F  pz           -0.0000000000   0.0597467146  -0.0010573366  -0.0000000000  -0.0000000000   0.0082584354  -0.0046382208
   37  2 F  dxx           0.0000000000  -0.0004172715  -0.0000458777  -0.0000000000   0.0000000000  -0.0002562617   0.0000109062
   38  2 F  dxy          -0.0000000000  -0.0000000000   0.0000000000  -0.0000000000  -0.0000000000  -0.0000000000   0.0000000000
   39  2 F  dxz           0.0000000000   0.0000000000   0.0000000000   0.0000949749   0.0000000000   0.0000000000   0.0000000000
   40  2 F  dyy          -0.0000000000  -0.0004172715  -0.0000458777   0.0000000000  -0.0000000000  -0.0002562617   0.0000032665
   41  2 F  dyz           0.0002833111   0.0000000000   0.0000000000   0.0000000000   0.0000949749   0.0000000000  -0.0000000000
   42  2 F  dzz          -0.0000000000   0.0026230668   0.0005555972  -0.0000000000  -0.0000000000   0.0010155530  -0.0000308329
   43  2 F  s            -0.0000000000  -0.0055838895  -0.0106346065  -0.0000000000  -0.0000000000  -0.0029902817   0.0010351199
   44  2 F  px            0.0000000000   0.0000000000   0.0000000000  -0.0096312512   0.0000000000  -0.0000000000   0.0000000000
   45  2 F  py           -0.0064741348   0.0000000000   0.0000000000   0.0000000000  -0.0096312512  -0.0000000000   0.0000000000
   46  2 F  pz            0.0000000000   0.0005787171  -0.0049163627   0.0000000000   0.0000000000  -0.0004376438  -0.0003588407
   47  3 H  s             0.0191668810   0.0034065818   0.0149556931   0.0113267958   0.0113267958   0.0015029483   0.0005498036
   48  3 H  s             0.0386449231   0.0054172212   0.0458438018   0.0305152538   0.0305152538   0.0033748638   0.0010161848
   49  3 H  s             0.0063467178   0.0006980214  -0.0003888269   0.0084689866   0.0084689866   0.0004367858   0.0005063589
   50  3 H  px            0.0027094270   0.0001791371   0.0012491909  -0.0001581184   0.0007071305   0.0000599999   0.0000078689
   51  3 H  py            0.0000502831   0.0001791371   0.0012491909   0.0007071305  -0.0001581184   0.0000599999  -0.0001442887
   52  3 H  pz            0.0004389890   0.0004778228   0.0001340601   0.0001170669   0.0001170669   0.0001680304  -0.0000496594
   53  3 H  s             0.0003382069   0.0000627503  -0.0006328885   0.0006902994   0.0006902994   0.0000160860   0.0001904593
   54  4 H  s             0.0025678750   0.0034065818   0.0149556869   0.0211360899   0.0015175031   0.0015029476   0.0038417520
   55  4 H  s             0.0051774376   0.0054172205   0.0458437780   0.0569422404   0.0040882694   0.0033748617   0.0071847926
   56  4 H  s             0.0008502983   0.0006980219  -0.0003888444   0.0158033574   0.0011346282   0.0004367855   0.0023361310
   57  4 H  px            0.0006773563   0.0003342740   0.0023310213  -0.0002301491   0.0001767825   0.0001119613   0.0002112416
   58  4 H  py            0.0014087339   0.0000239998   0.0001673598   0.0001767826   0.0009746077   0.0000080385  -0.0000177795
   59  4 H  pz            0.0000588133   0.0004778229   0.0001340599   0.0002184497   0.0000156840   0.0001680305   0.0000002011
   60  4 H  s             0.0000453119   0.0000627502  -0.0006329217   0.0012881242   0.0000924841   0.0000160856   0.0004390937
   61  5 H  s             0.0357658873   0.0034065818   0.0149556869   0.0015175031   0.0211360899   0.0015029476  -0.0004197947
   62  5 H  s             0.0721124075   0.0054172205   0.0458437780   0.0040882694   0.0569422404   0.0033748617  -0.0027403429
   63  5 H  s             0.0118431456   0.0006980219  -0.0003888444   0.0011346282   0.0158033574   0.0004367855  -0.0011682010
   64  5 H  px            0.0006773566   0.0000239998   0.0001673598   0.0009746077   0.0001767826   0.0000080385  -0.0000049933
   65  5 H  py            0.0027559735   0.0003342740   0.0023310213   0.0001767825  -0.0002301491   0.0001119613  -0.0001785306
   66  5 H  pz            0.0008191646   0.0004778229   0.0001340599   0.0000156840   0.0002184497   0.0001680305  -0.0000472021
   67  5 H  s             0.0006311067   0.0000627502  -0.0006329218   0.0000924841   0.0012881242   0.0000160856  -0.0000550531

                              15             16             17             18             19             20             21

    1  1 C  s             0.0000000000   0.0000000000  -0.0000450681   0.0000000000  -0.0001653340  -0.0006152297   0.0000000000
    2  1 C  s            -0.0000000000  -0.0000000000  -0.0000235637   0.0000000000  -0.0001939115  -0.0012840044   0.0000000000
    3  1 C  px           -0.0000000000   0.0000000000  -0.0000000000  -0.0000000000   0.0000000000  -0.0000000000  -0.0000615394
    4  1 C  py           -0.0000000000  -0.0000000000  -0.0000000000   0.0000000000   0.0000000000   0.0000000000   0.0000000000
    5  1 C  pz           -0.0000000000   0.0000000000   0.0000000000   0.0000000000  -0.0000000000  -0.0000000000   0.0000000000
    6  1 C  s            -0.0000000000   0.0000000000  -0.0007688366   0.0000000000   0.0033117941   0.0175163984  -0.0000000000
    7  1 C  px            0.0000000000  -0.0000000000   0.0000000000   0.0000000000  -0.0000000000   0.0000000000  -0.0003078356
    8  1 C  py            0.0000000000   0.0000000000  -0.0000000000  -0.0000000000  -0.0000000000   0.0000000000   0.0000000000
    9  1 C  pz            0.0000000000  -0.0000000000  -0.0000000000  -0.0000000000   0.0000000000   0.0000000000   0.0000000000
   10  1 C  s             0.0000000000  -0.0000000000   0.0028140130  -0.0000000000  -0.0056722663   0.0130581712  -0.0000000000
   11  1 C  px            0.0000000000   0.0000000000  -0.0000000000   0.0000000000   0.0000000000   0.0000000000  -0.0007902631
   12  1 C  py           -0.0000000000   0.0000000000  -0.0000000000   0.0000000000  -0.0000000000   0.0000000000   0.0000000000
   13  1 C  pz           -0.0000000000  -0.0000000000   0.0000000000   0.0000000000  -0.0000000000   0.0000000000   0.0000000000
   14  1 C  dxx          -0.0000000000   0.0000000000   0.0001464159  -0.0000000000  -0.0013700217  -0.0010367954   0.0000000000
   15  1 C  dxy           0.0016947513  -0.0000000000  -0.0000000000  -0.0000000000   0.0000000000   0.0000000000  -0.0000000000
   16  1 C  dxz          -0.0000000000   0.0028349479  -0.0000000000  -0.0000000000  -0.0000000000  -0.0000000000   0.0000000000
   17  1 C  dyy          -0.0000000000  -0.0000000000   0.0029813760   0.0000000000  -0.0013700217  -0.0010367954  -0.0000000000
   18  1 C  dyz          -0.0000000000  -0.0000000000   0.0000000000   0.0028349479  -0.0000000000  -0.0000000000  -0.0000000000
   19  1 C  dzz           0.0000000000  -0.0000000000  -0.0013700217  -0.0000000000   0.0102448075   0.0017631649  -0.0000000000
   20  1 C  s             0.0000000000  -0.0000000000  -0.0010367954  -0.0000000000   0.0017631649   0.0232488607  -0.0000000000
   21  1 C  px           -0.0000000000   0.0000000000  -0.0000000000  -0.0000000000  -0.0000000000  -0.0000000000   0.0003779500
   22  1 C  py           -0.0000000000  -0.0000000000   0.0000000000   0.0000000000  -0.0000000000  -0.0000000000   0.0000000000
   23  1 C  pz           -0.0000000000   0.0000000000   0.0000000000   0.0000000000  -0.0000000000   0.0000000000   0.0000000000
   24  2 F  s            -0.0000000000   0.0000000000   0.0000014465   0.0000000000  -0.0001786694  -0.0006944237  -0.0000000000
   25  2 F  s            -0.0000000000   0.0000000000   0.0000011772   0.0000000000  -0.0002939859  -0.0011652600  -0.0000000000
   26  2 F  px           -0.0000000000   0.0006631326   0.0000000000   0.0000000000   0.0000000000   0.0000000000   0.0001161554
   27  2 F  py           -0.0000000000   0.0000000000   0.0000000000   0.0006631326   0.0000000000   0.0000000000  -0.0000000000
   28  2 F  pz            0.0000000000  -0.0000000000  -0.0000378791  -0.0000000000   0.0035153044   0.0000268349  -0.0000000000
   29  2 F  s             0.0000000000  -0.0000000000  -0.0003474639  -0.0000000000   0.0056071456   0.0202866301   0.0000000000
   30  2 F  px           -0.0000000000   0.0045281184   0.0000000000   0.0000000000   0.0000000000   0.0000000000   0.0008131092
   31  2 F  py           -0.0000000000   0.0000000000   0.0000000000   0.0045281184   0.0000000000   0.0000000000  -0.0000000000
   32  2 F  pz            0.0000000000  -0.0000000000  -0.0008873003  -0.0000000000   0.0182712568   0.0002579030  -0.0000000000
   33  2 F  s             0.0000000000  -0.0000000000  -0.0015346321  -0.0000000000   0.0038732274   0.0376960089   0.0000000000
   34  2 F  px           -0.0000000000   0.0080354957   0.0000000000   0.0000000000   0.0000000000   0.0000000000   0.0029747417
   35  2 F  py           -0.0000000000   0.0000000000   0.0000000000   0.0080354957   0.0000000000   0.0000000000  -0.0000000000
   36  2 F  pz            0.0000000000  -0.0000000000  -0.0046382208  -0.0000000000   0.0183153201   0.0004019920  -0.0000000000
   37  2 F  dxx          -0.0000000000   0.0000000000   0.0000032665  -0.0000000000  -0.0001503791  -0.0001525102   0.0000000000
   38  2 F  dxy           0.0000007377   0.0000000000   0.0000000000   0.0000000000  -0.0000000000   0.0000000000   0.0000000000
   39  2 F  dxz           0.0000000000   0.0000717183  -0.0000000000  -0.0000000000   0.0000000000   0.0000000000   0.0000018286
   40  2 F  dyy          -0.0000000000  -0.0000000000   0.0000109062   0.0000000000  -0.0001503791  -0.0001525102  -0.0000000000
   41  2 F  dyz           0.0000000000  -0.0000000000   0.0000000000   0.0000717183   0.0000000000   0.0000000000  -0.0000000000
   42  2 F  dzz           0.0000000000  -0.0000000000  -0.0000308329  -0.0000000000   0.0009466296   0.0001537807  -0.0000000000
   43  2 F  s            -0.0000000000   0.0000000000   0.0010351199   0.0000000000  -0.0029352696  -0.0088902407   0.0000000000
   44  2 F  px           -0.0000000000   0.0006309380   0.0000000000  -0.0000000000  -0.0000000000   0.0000000000   0.0009638390
   45  2 F  py           -0.0000000000  -0.0000000000   0.0000000000   0.0006309380  -0.0000000000   0.0000000000   0.0000000000
   46  2 F  pz            0.0000000000  -0.0000000000  -0.0003588407  -0.0000000000   0.0008996658  -0.0008813384   0.0000000000
   47  3 H  s             0.0030964661   0.0008338910   0.0005498036   0.0008338910  -0.0005386684   0.0012370040  -0.0000941531
   48  3 H  s             0.0032161074   0.0009678301   0.0010161848   0.0009678301  -0.0018901179   0.0056265539  -0.0004421210
   49  3 H  s             0.0002069489   0.0000835157   0.0005063589   0.0000835157  -0.0011390633  -0.0025424646  -0.0003728211
   50  3 H  px            0.0000559833   0.0000057560  -0.0001442887   0.0001170774   0.0000092378   0.0000619117   0.0000032525
   51  3 H  py            0.0000559833   0.0001170774   0.0000078689   0.0000057560   0.0000092378   0.0000619117  -0.0000023227
   52  3 H  pz            0.0000697572  -0.0000627908  -0.0000496594  -0.0000627908  -0.0000511258   0.0000141918  -0.0000007192
   53  3 H  s             0.0000041629   0.0000022383   0.0001904593   0.0000022383  -0.0003586314  -0.0036119175  -0.0000899089
   54  4 H  s             0.0007741167   0.0015560618  -0.0004197947   0.0001117202  -0.0005386683   0.0012369922  -0.0001756928
   55  4 H  s             0.0008040269   0.0018059954  -0.0027403429   0.0001296647  -0.0018901172   0.0056264982  -0.0008250115
   56  4 H  s             0.0000517373   0.0001558426  -0.0011682010   0.0000111890  -0.0011390639  -0.0025425196  -0.0006956990
   57  4 H  px            0.0000467503   0.0001385280  -0.0001785306   0.0000292693   0.0000172381   0.0001155285   0.0000118615
   58  4 H  py           -0.0002175615   0.0000292693  -0.0000049933   0.0000486000   0.0000012376   0.0000082945  -0.0000005807
   59  4 H  pz            0.0000174393  -0.0001171692  -0.0000472021  -0.0000084124  -0.0000511258   0.0000141917  -0.0000013420
   60  4 H  s             0.0000010407   0.0000041767  -0.0000550531   0.0000002999  -0.0003586314  -0.0036119433  -0.0001677739
   61  5 H  s             0.0007741167   0.0001117202   0.0038417520   0.0015560618  -0.0005386683   0.0012369922  -0.0000126149
   62  5 H  s             0.0008040269   0.0001296647   0.0071847926   0.0018059954  -0.0018901172   0.0056264982  -0.0000592356
   63  5 H  s             0.0000517373   0.0000111890   0.0023361310   0.0001558426  -0.0011390639  -0.0025425196  -0.0000499494
   64  5 H  px           -0.0002175615   0.0000486000  -0.0000177795   0.0000292693   0.0000012376   0.0000082945  -0.0000088405
   65  5 H  py            0.0000467503   0.0000292693   0.0002112416   0.0001385280   0.0000172381   0.0001155285  -0.0000005807
   66  5 H  pz            0.0000174393  -0.0000084124   0.0000002011  -0.0001171692  -0.0000511258   0.0000141917  -0.0000000964
   67  5 H  s             0.0000010407   0.0000002999   0.0004390937   0.0000041767  -0.0003586314  -0.0036119433  -0.0000120455

                              22             23             24             25             26             27             28

    1  1 C  s             0.0000000000   0.0000000000   0.0000000038   0.0000000015   0.0000000000   0.0000000000  -0.0000019016
    2  1 C  s             0.0000000000  -0.0000000000  -0.0000000003  -0.0000000002  -0.0000000000  -0.0000000000   0.0000000540
    3  1 C  px            0.0000000000  -0.0000000000   0.0000000000   0.0000000000  -0.0000016520  -0.0000000000  -0.0000000000
    4  1 C  py           -0.0000615394  -0.0000000000   0.0000000000   0.0000000000  -0.0000000000  -0.0000016520  -0.0000000000
    5  1 C  pz            0.0000000000  -0.0000575654  -0.0000027301  -0.0000024439   0.0000000000   0.0000000000   0.0003423057
    6  1 C  s            -0.0000000000  -0.0000000000   0.0000084111   0.0000227891  -0.0000000000  -0.0000000000   0.0018449432
    7  1 C  px            0.0000000000  -0.0000000000  -0.0000000000  -0.0000000000   0.0000193668   0.0000000000  -0.0000000000
    8  1 C  py           -0.0003078356  -0.0000000000  -0.0000000000  -0.0000000000   0.0000000000   0.0000193668  -0.0000000000
    9  1 C  pz            0.0000000000  -0.0004729063  -0.0003012635  -0.0004858209   0.0000000000   0.0000000000   0.0091323236
   10  1 C  s            -0.0000000000   0.0000000000   0.0003973386   0.0007082947   0.0000000000   0.0000000000   0.0002283684
   11  1 C  px            0.0000000000  -0.0000000000  -0.0000000000  -0.0000000000  -0.0002404660   0.0000000000  -0.0000000000
   12  1 C  py           -0.0007902631  -0.0000000000  -0.0000000000  -0.0000000000   0.0000000000  -0.0002404660  -0.0000000000
   13  1 C  pz            0.0000000000  -0.0006617710   0.0001163746   0.0002257567  -0.0000000000  -0.0000000000   0.0012589007
   14  1 C  dxx          -0.0000000000   0.0000000000   0.0000014465   0.0000011772   0.0000000000   0.0000000000  -0.0000378791
   15  1 C  dxy          -0.0000000000  -0.0000000000  -0.0000000000  -0.0000000000  -0.0000000000  -0.0000000000   0.0000000000
   16  1 C  dxz          -0.0000000000   0.0000000000   0.0000000000   0.0000000000   0.0006631326   0.0000000000  -0.0000000000
   17  1 C  dyy           0.0000000000   0.0000000000   0.0000014465   0.0000011772   0.0000000000   0.0000000000  -0.0000378791
   18  1 C  dyz           0.0000000000   0.0000000000   0.0000000000   0.0000000000   0.0000000000   0.0006631326  -0.0000000000
   19  1 C  dzz          -0.0000000000  -0.0000000000  -0.0001786694  -0.0002939859   0.0000000000   0.0000000000   0.0035153044
   20  1 C  s            -0.0000000000   0.0000000000  -0.0006944237  -0.0011652600   0.0000000000   0.0000000000   0.0000268349
   21  1 C  px            0.0000000000   0.0000000000  -0.0000000000  -0.0000000000   0.0001161554  -0.0000000000  -0.0000000000
   22  1 C  py            0.0003779500   0.0000000000  -0.0000000000  -0.0000000000  -0.0000000000   0.0001161554  -0.0000000000
   23  1 C  pz            0.0000000000   0.0001483325  -0.0000517900  -0.0000880698  -0.0000000000  -0.0000000000   0.0000184516
   24  2 F  s            -0.0000000000  -0.0000517900   0.6312417770   0.5191569431  -0.0000000000  -0.0000000000   0.0000000000
   25  2 F  s            -0.0000000000  -0.0000880698   0.5191569431   0.5374362703  -0.0000000000  -0.0000000000   0.0000000000
   26  2 F  px           -0.0000000000  -0.0000000000  -0.0000000000  -0.0000000000   0.1906515185   0.0000000000   0.0000000000
   27  2 F  py            0.0001161554  -0.0000000000   0.0000000000   0.0000000000   0.0000000000   0.1906515185   0.0000000000
   28  2 F  pz           -0.0000000000   0.0000184516   0.0000000000   0.0000000000   0.0000000000   0.0000000000   0.1335307690
   29  2 F  s             0.0000000000   0.0015028273  -0.0535134367  -0.1020033564   0.0000000000   0.0000000000   0.0000000000
   30  2 F  px           -0.0000000000  -0.0000000000  -0.0000000000  -0.0000000000   0.1757119847   0.0000000000   0.0000000000
   31  2 F  py            0.0008131092  -0.0000000000  -0.0000000000   0.0000000000   0.0000000000   0.1757119847   0.0000000000
   32  2 F  pz           -0.0000000000   0.0001339218  -0.0000000000  -0.0000000000   0.0000000000   0.0000000000   0.1252252338
   33  2 F  s             0.0000000000   0.0029611030  -0.0206446053  -0.0362358975   0.0000000000  -0.0000000000   0.0000000000
   34  2 F  px           -0.0000000000  -0.0000000000  -0.0000000000  -0.0000000000   0.0489577155   0.0000000000   0.0000000000
   35  2 F  py            0.0029747417  -0.0000000000  -0.0000000000  -0.0000000000   0.0000000000   0.0489577155   0.0000000000
   36  2 F  pz           -0.0000000000   0.0004502325  -0.0000000000  -0.0000000000  -0.0000000000  -0.0000000000   0.0288431474
   37  2 F  dxx          -0.0000000000   0.0000018834   0.0000664360   0.0000996823   0.0000000000  -0.0000000000   0.0000000000
   38  2 F  dxy           0.0000000000  -0.0000000000   0.0000000000   0.0000000000  -0.0000000000  -0.0000000000  -0.0000000000
   39  2 F  dxz          -0.0000000000   0.0000000000   0.0000000000   0.0000000000  -0.0000000000  -0.0000000000  -0.0000000000
   40  2 F  dyy           0.0000000000   0.0000018834   0.0000664360   0.0000996823  -0.0000000000   0.0000000000   0.0000000000
   41  2 F  dyz           0.0000018286   0.0000000000   0.0000000000   0.0000000000  -0.0000000000  -0.0000000000  -0.0000000000
   42  2 F  dzz          -0.0000000000  -0.0000378726  -0.0000185372   0.0000047929   0.0000000000   0.0000000000  -0.0000000000
   43  2 F  s             0.0000000000   0.0000630939   0.0007848813   0.0012807692   0.0000000000   0.0000000000   0.0000000000
   44  2 F  px            0.0000000000  -0.0000000000   0.0000000000   0.0000000000   0.0017065760  -0.0000000000  -0.0000000000
   45  2 F  py            0.0009638390  -0.0000000000   0.0000000000   0.0000000000  -0.0000000000   0.0017065760  -0.0000000000
   46  2 F  pz            0.0000000000   0.0000985613  -0.0000000000  -0.0000000000   0.0000000000   0.0000000000   0.0004725744
   47  3 H  s            -0.0000941531   0.0000015950   0.0000000004   0.0000000002  -0.0000000191  -0.0000000191  -0.0000000350
   48  3 H  s            -0.0004421210  -0.0000037280  -0.0000010799  -0.0000015092  -0.0000503138  -0.0000503138  -0.0000365260
   49  3 H  s            -0.0003728211  -0.0000058579   0.0000527140   0.0000871572  -0.0001116337  -0.0001116337  -0.0001088317
   50  3 H  px           -0.0000023227   0.0000002921  -0.0000000130  -0.0000000143  -0.0000000306  -0.0000001605   0.0000004185
   51  3 H  py            0.0000032525   0.0000002921  -0.0000000130  -0.0000000143  -0.0000001605  -0.0000000306   0.0000004185
   52  3 H  pz           -0.0000007192  -0.0000053816  -0.0000000345  -0.0000000377  -0.0000003648  -0.0000003648   0.0000017383
   53  3 H  s            -0.0000899089   0.0000185037   0.0000869573   0.0001458620  -0.0000166810  -0.0000166810  -0.0000092393
   54  4 H  s            -0.0000126149   0.0000015947   0.0000000004   0.0000000002  -0.0000000356  -0.0000000026  -0.0000000350
   55  4 H  s            -0.0000592356  -0.0000037295  -0.0000010799  -0.0000015092  -0.0000938868  -0.0000067408  -0.0000365260
   56  4 H  s            -0.0000499494  -0.0000058590   0.0000527140   0.0000871572  -0.0002083118  -0.0000149560  -0.0001088318
   57  4 H  px           -0.0000005807   0.0000005451  -0.0000000242  -0.0000000266  -0.0000002770  -0.0000000401   0.0000007808
   58  4 H  py           -0.0000088405   0.0000000391  -0.0000000017  -0.0000000019  -0.0000000401  -0.0000000249   0.0000000561
   59  4 H  pz           -0.0000000964  -0.0000053815  -0.0000000345  -0.0000000377  -0.0000006807  -0.0000000489   0.0000017383
   60  4 H  s            -0.0000120455   0.0000185034   0.0000869573   0.0001458619  -0.0000311273  -0.0000022348  -0.0000092394
   61  5 H  s            -0.0001756928   0.0000015947   0.0000000004   0.0000000002  -0.0000000026  -0.0000000356  -0.0000000350
   62  5 H  s            -0.0008250115  -0.0000037295  -0.0000010799  -0.0000015092  -0.0000067408  -0.0000938868  -0.0000365260
   63  5 H  s            -0.0006956990  -0.0000058590   0.0000527140   0.0000871572  -0.0000149560  -0.0002083118  -0.0001088318
   64  5 H  px           -0.0000005807   0.0000000391  -0.0000000017  -0.0000000019  -0.0000000249  -0.0000000401   0.0000000561
   65  5 H  py            0.0000118615   0.0000005451  -0.0000000242  -0.0000000266  -0.0000000401  -0.0000002770   0.0000007808
   66  5 H  pz           -0.0000013420  -0.0000053815  -0.0000000345  -0.0000000377  -0.0000000489  -0.0000006807   0.0000017383
   67  5 H  s            -0.0001677739   0.0000185034   0.0000869573   0.0001458619  -0.0000022348  -0.0000311273  -0.0000092394

                              29             30             31             32             33             34             35

    1  1 C  s            -0.0000025514  -0.0000000000  -0.0000000000  -0.0001545545   0.0002720565  -0.0000000000  -0.0000000000
    2  1 C  s            -0.0000014371   0.0000000000   0.0000000000  -0.0001876489   0.0005313761   0.0000000000   0.0000000000
    3  1 C  px           -0.0000000000  -0.0000523913   0.0000000000   0.0000000000  -0.0000000000  -0.0010002450  -0.0000000000
    4  1 C  py           -0.0000000000   0.0000000000  -0.0000523913   0.0000000000  -0.0000000000  -0.0000000000  -0.0010002450
    5  1 C  pz            0.0007309326   0.0000000000   0.0000000000   0.0075716653   0.0009670752  -0.0000000000  -0.0000000000
    6  1 C  s            -0.0010172550  -0.0000000000  -0.0000000000   0.0147794646  -0.0118345224  -0.0000000000  -0.0000000000
    7  1 C  px            0.0000000000   0.0002471888   0.0000000000   0.0000000000   0.0000000000  -0.0027196481  -0.0000000000
    8  1 C  py            0.0000000000   0.0000000000   0.0002471888   0.0000000000   0.0000000000  -0.0000000000  -0.0027196481
    9  1 C  pz            0.0093311333   0.0000000000   0.0000000000   0.0534895734   0.0031286772   0.0000000000   0.0000000000
   10  1 C  s            -0.0130734621   0.0000000000   0.0000000000   0.0016803324  -0.0298542241   0.0000000000   0.0000000000
   11  1 C  px            0.0000000000  -0.0014671242   0.0000000000  -0.0000000000   0.0000000000  -0.0076273307   0.0000000000
   12  1 C  py            0.0000000000   0.0000000000  -0.0014671242  -0.0000000000   0.0000000000   0.0000000000  -0.0076273307
   13  1 C  pz           -0.0039028462  -0.0000000000  -0.0000000000   0.0069684067  -0.0111575212  -0.0000000000  -0.0000000000
   14  1 C  dxx          -0.0003474639   0.0000000000   0.0000000000  -0.0008873003  -0.0015346321   0.0000000000   0.0000000000
   15  1 C  dxy           0.0000000000  -0.0000000000  -0.0000000000   0.0000000000   0.0000000000  -0.0000000000  -0.0000000000
   16  1 C  dxz          -0.0000000000   0.0045281184   0.0000000000  -0.0000000000  -0.0000000000   0.0080354957   0.0000000000
   17  1 C  dyy          -0.0003474639   0.0000000000   0.0000000000  -0.0008873003  -0.0015346321   0.0000000000   0.0000000000
   18  1 C  dyz          -0.0000000000   0.0000000000   0.0045281184  -0.0000000000  -0.0000000000   0.0000000000   0.0080354957
   19  1 C  dzz           0.0056071456   0.0000000000   0.0000000000   0.0182712568   0.0038732274   0.0000000000   0.0000000000
   20  1 C  s             0.0202866301   0.0000000000   0.0000000000   0.0002579030   0.0376960089   0.0000000000   0.0000000000
   21  1 C  px            0.0000000000   0.0008131092  -0.0000000000  -0.0000000000   0.0000000000   0.0029747417  -0.0000000000
   22  1 C  py            0.0000000000  -0.0000000000   0.0008131092  -0.0000000000   0.0000000000  -0.0000000000   0.0029747417
   23  1 C  pz            0.0015028273  -0.0000000000  -0.0000000000   0.0001339218   0.0029611030  -0.0000000000  -0.0000000000
   24  2 F  s            -0.0535134367  -0.0000000000  -0.0000000000  -0.0000000000  -0.0206446053  -0.0000000000  -0.0000000000
   25  2 F  s            -0.1020033564  -0.0000000000  -0.0000000000  -0.0000000000  -0.0362358975  -0.0000000000   0.0000000000
   26  2 F  px            0.0000000000   0.1757119847   0.0000000000   0.0000000000   0.0000000000   0.0489577155   0.0000000000
   27  2 F  py            0.0000000000   0.0000000000   0.1757119847   0.0000000000  -0.0000000000   0.0000000000   0.0489577155
   28  2 F  pz            0.0000000000   0.0000000000   0.0000000000   0.1252252338   0.0000000000   0.0000000000   0.0000000000
   29  2 F  s             0.7774580064   0.0000000000   0.0000000000   0.0000000000   0.4829336071   0.0000000000  -0.0000000000
   30  2 F  px            0.0000000000   0.4396496372  -0.0000000000   0.0000000000   0.0000000000   0.2404682534   0.0000000000
   31  2 F  py            0.0000000000  -0.0000000000   0.4396496372   0.0000000000  -0.0000000000   0.0000000000   0.2404682534
   32  2 F  pz            0.0000000000   0.0000000000   0.0000000000   0.3189805879   0.0000000000   0.0000000000   0.0000000000
   33  2 F  s             0.4829336071   0.0000000000  -0.0000000000   0.0000000000   0.5464573209  -0.0000000000  -0.0000000000
   34  2 F  px            0.0000000000   0.2404682534   0.0000000000   0.0000000000  -0.0000000000   0.3479802068   0.0000000000
   35  2 F  py           -0.0000000000   0.0000000000   0.2404682534   0.0000000000  -0.0000000000   0.0000000000   0.3479802068
   36  2 F  pz            0.0000000000  -0.0000000000  -0.0000000000   0.1441306735   0.0000000000  -0.0000000000  -0.0000000000
   37  2 F  dxx          -0.0032001026   0.0000000000   0.0000000000  -0.0000000000  -0.0019032808   0.0000000000  -0.0000000000
   38  2 F  dxy          -0.0000000000   0.0000000000   0.0000000000   0.0000000000  -0.0000000000  -0.0000000000  -0.0000000000
   39  2 F  dxz          -0.0000000000   0.0000000000   0.0000000000   0.0000000000  -0.0000000000  -0.0000000000  -0.0000000000
   40  2 F  dyy          -0.0032001026   0.0000000000   0.0000000000  -0.0000000000  -0.0019032808  -0.0000000000   0.0000000000
[...]
   24  2 F  s              1.07799
   25  2 F  s              0.91096
   26  2 F  px             0.43186
   27  2 F  py             0.43186
   28  2 F  pz             0.31855
   29  2 F  s              1.10601
   30  2 F  px             0.83811
   31  2 F  py             0.83811
   32  2 F  pz             0.66633
   33  2 F  s              0.90128
   34  2 F  px             0.62550
   35  2 F  py             0.62550
   36  2 F  pz             0.42347
   37  2 F  dxx           -0.01217
   38  2 F  dxy            0.00000
   39  2 F  dxz            0.00094
   40  2 F  dyy           -0.01217
   41  2 F  dyz            0.00094
   42  2 F  dzz           -0.00069
   43  2 F  s             -0.05471
   44  2 F  px             0.04155
   45  2 F  py             0.04155
   46  2 F  pz             0.00130
   47  3 H  s              0.28142
   48  3 H  s              0.48044
   49  3 H  s              0.07264
   50  3 H  px             0.00978
   51  3 H  py             0.00978
   52  3 H  pz             0.00335
   53  3 H  s             -0.00492
   54  4 H  s              0.28142
   55  4 H  s              0.48044
   56  4 H  s              0.07264
   57  4 H  px             0.01352
   58  4 H  py             0.00603
   59  4 H  pz             0.00335
   60  4 H  s             -0.00492
   61  5 H  s              0.28142
   62  5 H  s              0.48044
   63  5 H  s              0.07264
   64  5 H  px             0.00603
   65  5 H  py             0.01352
   66  5 H  pz             0.00335
   67  5 H  s             -0.00492

          ----- Total      overlap population condensed to atoms -----


                               1              2              3              4              5
    1  C                  4.8384895873   0.1806742903   0.4070945958   0.4070951227   0.4070951227
    2  F                  0.1806742903   9.1836349321  -0.0540770891  -0.0540771976  -0.0540771976
    3  H                  0.4070945958  -0.0540770891   0.5855093733  -0.0430177758  -0.0430177758
    4  H                  0.4070951227  -0.0540771976  -0.0430177758   0.5855091855  -0.0430182275
    5  H                  0.4070951227  -0.0540771976  -0.0430177758  -0.0430182275   0.5855091854

 Total      S,P,D,... shell population
 --------------------------------
    Atom          S        P        D
 --------------------------------------------------------------------------------------
     1 C      3.31640   2.84808   0.07597
     2 F      3.94152   5.28370  -0.02314
     3 H      0.82959   0.02290   0.00000
     4 H      0.82959   0.02290   0.00000
     5 H      0.82959   0.02290   0.00000

          ----- Total      gross population on atoms ----

              1  C    6.0     6.24045
              2  F    9.0     9.20208
              3  H    1.0     0.85249
              4  H    1.0     0.85249
              5  H    1.0     0.85249

          ----- Bond indices -----
  1- 1   0.00000  1- 2   0.92624  1- 3   0.97566  1- 4   0.97566  1- 5   0.97566
  2- 1   0.92624  2- 2   0.00000  2- 3  -0.03135  2- 4  -0.03135  2- 5  -0.03135
  3- 1   0.97566  3- 2  -0.03135  3- 3   0.00000  3- 4  -0.01611  3- 5  -0.01611
  4- 1   0.97566  4- 2  -0.03135  4- 3  -0.01611  4- 4   0.00000  4- 5  -0.01611
  5- 1   0.97566  5- 2  -0.03135  5- 3  -0.01611  5- 4  -0.01611  5- 5   0.00000

 Large bond indices
 ------------------
  1   C -  2   F    0.92624
  1   C -  3   H    0.97566
  1   C -  4   H    0.97566
  1   C -  5   H    0.97566

                                                                Free electrons             Valency
                              Number of         Sum of          + Bond indices         - Bond indices    
                Valency     Free electrons    Bond indices     =Mulliken charge     = Net spin population
     1  C       3.85322        2.38723          3.85322           6.24045                 0.00000
     2  F       0.83219        8.36989          0.83219           9.20208                 0.00000
     3  H       0.91209       -0.05960          0.91209           0.85249                -0.00000
     4  H       0.91209       -0.05960          0.91209           0.85249                -0.00000
     5  H       0.91209       -0.05960          0.91209           0.85249                -0.00000

          ---------------------------------------------
          Electrostatic potential/diamagnetic shielding
          ---------------------------------------------

 1 a.u. = 9.07618 esu/cm ( or statvolts ) 
   Point      X         Y         Z     Potential(a.u.)   Diamagnetic shielding(a.u.)
    1 C   -0.00000  -0.00000  -1.19651     -14.693957            19.599713
    2 F    0.00000   0.00000   1.41698     -26.608895            29.692578
    3 H    1.37344   1.37344  -1.85792      -1.099691             6.982064
    4 H   -1.87616   0.50271  -1.85792      -1.099691             6.982064
    5 H    0.50271  -1.87616  -1.85792      -1.099691             6.982064

          --------------
          Electric field
          --------------

 1 a.u. = 0.171524 10**(-8) dyn/esu 

   Atom       X         Y         Z                        Electric field (a.u.)
                                              X              Y              Z           Field
  ------------------------------------------------------------------------------------------------
    1 C   -0.00000  -0.00000  -1.19651      -0.000000      -0.000000      -0.015063       0.015063
    2 F    0.00000   0.00000   1.41698       0.000000       0.000000       0.041173       0.041173
    3 H    1.37344   1.37344  -1.85792       0.015612       0.015612      -0.006621       0.023050
    4 H   -1.87616   0.50271  -1.85792      -0.021326       0.005714      -0.006621       0.023050
    5 H    0.50271  -1.87616  -1.85792       0.005714      -0.021326      -0.006621       0.023050

          -----------------------
          Electric field gradient
          -----------------------

 1 a.u. = 0.324123 10**(16) esu/cm**3  ( or statvolts/cm**2 ) = 0.97174 10**(22) v/m**2 


 ------------------------------------------------------------
   Atom      X         Y         Z
 ------------------------------------------------------------
    1 C   -0.00000  -0.00000  -1.19651
 ------------------------------------------------------------

 Electric field gradient in molecular frame (a.u.)
         XX             YY             ZZ             XY             XZ             YZ
 ------------------------------------------------------------------------------------------
        0.293936       0.293936      -0.587872      -0.000000       0.000000       0.000000

 Principal components (a.u.) and orientation 
 of principal axis w.r.t. absolute frame                      Asymmetry parameter eta
 --------------------------------------------------------------------------------------
       -0.587872       0.293936       0.293936                       0.000000

       -0.000000      -0.707105       0.707109
       -0.000000       0.707109       0.707105
        1.000000       0.000000       0.000000
  

 ------------------------------------------------------------
   Atom      X         Y         Z
 ------------------------------------------------------------
    2 F    0.00000   0.00000   1.41698
 ------------------------------------------------------------

 Electric field gradient in molecular frame (a.u.)
         XX             YY             ZZ             XY             XZ             YZ
 ------------------------------------------------------------------------------------------
        1.546543       1.546543      -3.093086       0.000000       0.000000       0.000000

 Principal components (a.u.) and orientation 
 of principal axis w.r.t. absolute frame                      Asymmetry parameter eta
 --------------------------------------------------------------------------------------
       -3.093086       1.546543       1.546542                       0.000000

       -0.000000       0.707106       0.707108
       -0.000000       0.707108      -0.707106
        1.000000       0.000000       0.000000
  

 ------------------------------------------------------------
   Atom      X         Y         Z
 ------------------------------------------------------------
    3 H    1.37344   1.37344  -1.85792
 ------------------------------------------------------------

 Electric field gradient in molecular frame (a.u.)
         XX             YY             ZZ             XY             XZ             YZ
 ------------------------------------------------------------------------------------------
       -0.046422      -0.046422       0.092845      -0.213635       0.097863       0.097863

 Principal components (a.u.) and orientation 
 of principal axis w.r.t. absolute frame                      Asymmetry parameter eta
 --------------------------------------------------------------------------------------
       -0.307860       0.167213       0.140647                       0.086294

        0.668364       0.707107       0.230846
        0.668364      -0.707107       0.230846
       -0.326466       0.000000       0.945209
  

 ------------------------------------------------------------
   Atom      X         Y         Z
 ------------------------------------------------------------
    4 H   -1.87616   0.50271  -1.85792
 ------------------------------------------------------------

 Electric field gradient in molecular frame (a.u.)
         XX             YY             ZZ             XY             XZ             YZ
 ------------------------------------------------------------------------------------------
       -0.231436       0.138591       0.092845       0.106818      -0.133683       0.035820

 Principal components (a.u.) and orientation 
 of principal axis w.r.t. absolute frame                      Asymmetry parameter eta
 --------------------------------------------------------------------------------------
       -0.307860       0.167213       0.140647                       0.086294

        0.913002       0.258819      -0.315342
       -0.244638       0.965926       0.084495
        0.326466       0.000000       0.945209
  

 ------------------------------------------------------------
   Atom      X         Y         Z
 ------------------------------------------------------------
    5 H    0.50271  -1.87616  -1.85792
 ------------------------------------------------------------

 Electric field gradient in molecular frame (a.u.)
         XX             YY             ZZ             XY             XZ             YZ
 ------------------------------------------------------------------------------------------
        0.138591      -0.231436       0.092845       0.106818       0.035820      -0.133683

 Principal components (a.u.) and orientation 
 of principal axis w.r.t. absolute frame                      Asymmetry parameter eta
 --------------------------------------------------------------------------------------
       -0.307860       0.167213       0.140647                       0.086294

       -0.244638       0.965926       0.084495
        0.913002       0.258819      -0.315342
        0.326466       0.000000       0.945209
  

          ---------------------
          Electron/spin density
          ---------------------

 1 a.u. = 4.80286 10**(-10) esu 

 Total electron density 
 ---------------------- 
   Point      X         Y         Z      Density (a.u.)
    1 C   -0.00000  -0.00000  -1.19651     119.526653
    2 F    0.00000   0.00000   1.41698     426.433668
    3 H    1.37344   1.37344  -1.85792       0.447471
    4 H   -1.87616   0.50271  -1.85792       0.447471
    5 H    0.50271  -1.87616  -1.85792       0.447471

          -----------------------------------------
          Chemical Shielding Tensors (GIAO, in ppm)
          -----------------------------------------

                                NWChem CPHF Module
                                ------------------
 
 
    scftype = RHF 
    nclosed =    9
      nopen =    0
  variables =      522
  num. vecs =        3
  tolerance =   1.0D-04
  max. iter =  100


 Integral file          = /scratch/prop_ch3f.aoints.0
 Record size in doubles =  65536        No. of integs per rec  =  43688
 Max. records in memory =     22        Max. records in file   =  10899
 No. of bits per label  =      8        No. of bits per value  =     64


 #quartets = 1.965D+05 #integrals = 2.214D+06 #direct =  0.0% #cached =100.0%


File balance: exchanges=     0  moved=     0  time=   0.0



Iterative solution of linear equations
  No. of variables      522
  No. of equations        3
  Maximum subspace       30
       Convergence  1.0D-04
        Start time    102.5


   iter   nsub   residual    time
   ----  ------  --------  ---------
     1      3    1.54D-01     108.9
     2      6    2.87D-03     115.3
     3      9    1.85D-04     121.7
     4     12    1.75D-05     128.1

 Parallel integral file used      53 records with       0 large values

      Atom:    1  C 
        Diamagnetic
    250.1166     -0.0000      0.0000
     -0.0000    250.1166      0.0000
      0.0000      0.0000    259.5811

        Paramagnetic
   -174.0081     -0.0039      0.0116
     -0.0039   -174.0081      0.0116
      0.0116      0.0116    -75.9442

        Total Shielding Tensor
     76.1086     -0.0039      0.0116
     -0.0039     76.1086      0.0116
      0.0116      0.0116    183.6369

           isotropic =     111.9514
          anisotropy =     107.5283

          Principal Components and Axis System
                 1           2           3
              183.6369     76.1124     76.1047

      1         0.0001     -0.7071      0.7071
      2         0.0001      0.7071      0.7071
      3         1.0000      0.0000     -0.0002



      Atom:    2  F 
        Diamagnetic
    460.1461      0.0000     -0.0000
      0.0000    460.1461     -0.0000
     -0.0000     -0.0000    491.7077

        Paramagnetic
     31.5150      0.0028      0.0030
      0.0028     31.5150      0.0030
      0.0030      0.0030    -70.1482

        Total Shielding Tensor
    491.6612      0.0028      0.0030
      0.0028    491.6612      0.0030
      0.0030      0.0030    421.5596

           isotropic =     468.2940
          anisotropy =      35.0550

          Principal Components and Axis System
                 1           2           3
              491.6640    491.6584    421.5596

      1         0.7071     -0.7071     -0.0000
      2         0.7071      0.7071     -0.0000
      3         0.0001      0.0000      1.0000



      Atom:    3  H 
        Diamagnetic
     27.6326      9.3657     -5.2584
      9.3657     27.6326     -5.2584
     -5.2584     -5.2584     23.1081

        Paramagnetic
     -1.5369     -8.3681      3.3994
     -8.3681     -1.5369      3.3994
      3.3994      3.3994      7.9946

        Total Shielding Tensor
     26.0957      0.9976     -1.8590
      0.9976     26.0957     -1.8590
     -1.8590     -1.8590     31.1028

           isotropic =      27.7647
          anisotropy =       6.9592

          Principal Components and Axis System
                 1           2           3
               32.4041     25.7919     25.0981

      1        -0.3137      0.6337     -0.7071
      2        -0.3137      0.6337      0.7071
      3         0.8962      0.4436      0.0000



      Atom:    4  H 
        Diamagnetic
     35.7435     -4.6829      7.1831
     -4.6829     19.5216     -1.9247
      7.1831     -1.9247     23.1081

        Paramagnetic
     -8.7821      4.1829     -4.6430
      4.1829      5.7094      1.2454
     -4.6430      1.2454      7.9890

        Total Shielding Tensor
     26.9614     -0.4999      2.5401
     -0.4999     25.2310     -0.6793
      2.5401     -0.6793     31.0972

           isotropic =      27.7632
          anisotropy =       6.9558

          Principal Components and Axis System
                 1           2           3
               32.4004     25.7922     25.0969

      1         0.4290      0.8651      0.2598
      2        -0.1148     -0.2331      0.9656
      3         0.8960     -0.4441     -0.0007



      Atom:    5  H 
        Diamagnetic
     19.5216     -4.6829     -1.9247
     -4.6829     35.7435      7.1831
     -1.9247      7.1831     23.1081

        Paramagnetic
      5.7094      4.1829      1.2454
      4.1829     -8.7821     -4.6430
      1.2454     -4.6430      7.9890

        Total Shielding Tensor
     25.2310     -0.4999     -0.6793
     -0.4999     26.9614      2.5401
     -0.6793      2.5401     31.0972

           isotropic =      27.7632
          anisotropy =       6.9558

          Principal Components and Axis System
                 1           2           3
               32.4004     25.7922     25.0969

      1        -0.1148     -0.2331      0.9656
      2         0.4290      0.8651      0.2598
      3         0.8960     -0.4441     -0.0007




 Task  times  cpu:       49.1s     wall:       67.0s
 
 
                                NWChem Input Module
                                -------------------
 
 
 Summary of allocated global arrays
-----------------------------------
  No active global arrays



                         GA Statistics for process    0
                         ------------------------------

       create   destroy   get      put      acc     scatter   gather  read&inc
calls: 1070     1070     2.14e+06 1.21e+04 2.33e+06  217        0        0     
number of processes/call 1.01e+00 1.43e+00 1.05e+00 2.09e+00 0.00e+00
bytes total:             2.76e+08 1.08e+07 3.38e+08 2.13e+06 0.00e+00 0.00e+00
bytes remote:            1.79e+08 2.79e+06 2.44e+08 -8.72e+05 0.00e+00 0.00e+00
Max memory consumed for GA by this process: 625056 bytes
 
MA_summarize_allocated_blocks: starting scan ...
MA_summarize_allocated_blocks: scan completed: 0 heap blocks, 0 stack blocks
MA usage statistics:

	allocation statistics:
					      heap	     stack
					      ----	     -----
	current number of blocks	         0	         0
	maximum number of blocks	        26	        46
	current total bytes		         0	         0
	maximum total bytes		  13327800	  18653144
	maximum total K-bytes		     13328	     18654
	maximum total M-bytes		        14	        19



                                  ACKNOWLEDGEMENT
                                  ---------------

            Please use the following acknowledgement where appropriate 
            for results obtained with NWChem:

            High Performance Computational Chemistry Group, "NWChem, A
            Computational Chemistry Package for Parallel Computers, 
            Version 4.7" (2005), Pacific Northwest National Laboratory,
            Richland, Washington 99352-0999, USA.


                                     CITATION
                                     --------

            Please use the following citation when publishing results
            obtained with NWChem:

            T. P. Straatsma, E. Apra, T. L. Windus, E. J. Bylaska, W. de Jong,
            S. Hirata, M. Valiev, M. T. Hackler, L. Pollack, R. J. Harrison,
            M. Dupuis, D. M. A. Smith, J. Nieplocha, V. Tipparaju,
            M. Krishnan, A. A. Auer, E. Brown, G. Cisneros, G. I. Fann,
            H. Fruchtl, J. Garza, K. Hirao, R. Kendall, J. A. Nichols,
            K. Tsemekhman, K. Wolinski, J. Anchell, D. Bernholdt, P. Borowski,
            T. Clark, D. Clerc, H. Dachsel, M. Deegan, K. Dyall, D. Elwood,
            E. Glendening, M. Gutowski, A. Hess, J. Jaffe, B. Johnson, J. Ju,
            R. Kobayashi, R. Kutteh, Z. Lin, R. Littlefield, X. Long, B. Meng,
            T. Nakajima, S. Niu, M. Rosing, G. Sandrone, M. Stave, H. Taylor,
            G. Thomas, J. van Lenthe, A. Wong, and Z. Zhang,
            "NWChem, A Computational Chemistry Package for Parallel Computers, 
            Version 4.7" (2005),
                      Pacific Northwest National Laboratory,
                      Richland, Washington 99352-0999, USA.



 Total times  cpu:       93.4s     wall:      130.1s
