 argument  1 = ../paw-benzene.nw
                                         
                                         


              Northwest Computational Chemistry Package (NWChem) 6.5
              ------------------------------------------------------


                    Environmental Molecular Sciences Laboratory
                       Pacific Northwest National Laboratory
                                Richland, WA 99352

                              Copyright (c) 1994-2013
                       Pacific Northwest National Laboratory
                            Battelle Memorial Institute

             NWChem is an open-source computational chemistry package
                        distributed under the terms of the
                      Educational Community License (ECL) 2.0
             A copy of the license is included with this distribution
                              in the LICENSE.TXT file

                                  ACKNOWLEDGMENT
                                  --------------

            This software and its documentation were developed at the
            EMSL at Pacific Northwest National Laboratory, a multiprogram
            national laboratory, operated for the U.S. Department of Energy
            by Battelle under Contract Number DE-AC05-76RL01830. Support
            for this work was provided by the Department of Energy Office
            of Biological and Environmental Research, Office of Basic
            Energy Sciences, and the Office of Advanced Scientific Computing.


           Job information
           ---------------

    hostname        = WE27972
    program         = nwchem
    date            = Wed Sep 30 14:30:17 2015

    compiled        = Wed_Sep_30_12:07:06_2015
    source          = /Users/bylaska/nwchem-releases/nwchem
    nwchem branch   = Development
    nwchem revision = 27276
    ga revision     = 10576
    input           = ../paw-benzene.nw
    prefix          = c6h6.paw.
    data base       = ./c6h6.paw.db
    status          = startup
    nproc           =        2
    time left       =     -1s



           Memory information
           ------------------

    heap     =   96665596 doubles =    737.5 Mbytes
    stack    =   96665601 doubles =    737.5 Mbytes
    global   =  193331200 doubles =   1475.0 Mbytes (distinct from heap & stack)
    total    =  386662397 doubles =   2950.0 Mbytes
    verify   = yes
    hardfail = no 


           Directory information
           ---------------------

  0 permanent = .
  0 scratch   = .




                                NWChem Input Module
                                -------------------


                                 C6H6 optimization
                                 -----------------

 Scaling coordinates for geometry "geometry" by  1.889725989
 (inverse scale =  0.529177249)

 D6H symmetry detected

          ------
          auto-z
          ------


                             Geometry "geometry" -> ""
                             -------------------------

 Output coordinates in angstroms (scale by  1.889725989 to convert to a.u.)

  No.       Tag          Charge          X              Y              Z
 ---- ---------------- ---------- -------------- -------------- --------------
    1 C                    6.0000    -0.98927261     0.98927261     0.00000000
    2 C                    6.0000    -1.35137152    -0.36209891     0.00000000
    3 C                    6.0000     0.36209891     1.35137152     0.00000000
    4 C                    6.0000     1.35137152     0.36209891     0.00000000
    5 C                    6.0000     0.98927261    -0.98927261     0.00000000
    6 C                    6.0000    -0.36209891    -1.35137152     0.00000000
    7 H                    1.0000    -1.75460313     1.75460313     0.00000000
    8 H                    1.0000    -2.39683244    -0.64222932     0.00000000
    9 H                    1.0000     0.64222932     2.39683244     0.00000000
   10 H                    1.0000     2.39683244     0.64222932     0.00000000
   11 H                    1.0000     1.75460313    -1.75460313     0.00000000
   12 H                    1.0000    -0.64222932    -2.39683244     0.00000000

      Atomic Mass 
      ----------- 

      C                 12.000000
      H                  1.007825


 Effective nuclear repulsion energy (a.u.)     203.0193298941

            Nuclear Dipole moment (a.u.) 
            ----------------------------
        X                 Y               Z
 ---------------- ---------------- ----------------
     0.0000000000     0.0000000000     0.0000000000

      Symmetry information
      --------------------

 Group name             D6h       
 Group number             30
 Group order              24
 No. of unique centers     2

      Symmetry unique atoms

     1    7



                                Z-matrix (autoz)
                                -------- 

 Units are Angstrom for bonds and degrees for angles

      Type          Name      I     J     K     L     M      Value
      ----------- --------  ----- ----- ----- ----- ----- ----------
    1 Stretch                  1     2                       1.39904
    2 Stretch                  1     3                       1.39904
    3 Stretch                  1     7                       1.08234
    4 Stretch                  2     6                       1.39904
    5 Stretch                  2     8                       1.08234
    6 Stretch                  3     4                       1.39904
    7 Stretch                  3     9                       1.08234
    8 Stretch                  4     5                       1.39904
    9 Stretch                  4    10                       1.08234
   10 Stretch                  5     6                       1.39904
   11 Stretch                  5    11                       1.08234
   12 Stretch                  6    12                       1.08234
   13 Bend                     1     2     6               120.00000
   14 Bend                     1     2     8               120.00000
   15 Bend                     1     3     4               120.00000
   16 Bend                     1     3     9               120.00000
   17 Bend                     2     1     3               120.00000
   18 Bend                     2     1     7               120.00000
   19 Bend                     2     6     5               120.00000
   20 Bend                     2     6    12               120.00000
   21 Bend                     3     1     7               120.00000
   22 Bend                     3     4     5               120.00000
   23 Bend                     3     4    10               120.00000
   24 Bend                     4     3     9               120.00000
   25 Bend                     4     5     6               120.00000
   26 Bend                     4     5    11               120.00000
   27 Bend                     5     4    10               120.00000
   28 Bend                     5     6    12               120.00000
   29 Bend                     6     2     8               120.00000
   30 Bend                     6     5    11               120.00000
   31 Torsion                  1     2     6     5           0.00000
   32 Torsion                  1     2     6    12         180.00000
   33 Torsion                  1     3     4     5          -0.00000
   34 Torsion                  1     3     4    10         180.00000
   35 Torsion                  2     1     3     4           0.00000
   36 Torsion                  2     1     3     9         180.00000
   37 Torsion                  2     6     5     4           0.00000
   38 Torsion                  2     6     5    11         180.00000
   39 Torsion                  3     1     2     6           0.00000
   40 Torsion                  3     1     2     8         180.00000
   41 Torsion                  3     4     5     6           0.00000
   42 Torsion                  3     4     5    11         180.00000
   43 Torsion                  4     3     1     7         180.00000
   44 Torsion                  4     5     6    12         180.00000
   45 Torsion                  5     4     3     9         180.00000
   46 Torsion                  5     6     2     8         180.00000
   47 Torsion                  6     2     1     7         180.00000
   48 Torsion                  6     5     4    10         180.00000
   49 Torsion                  7     1     2     8           0.00000
   50 Torsion                  7     1     3     9           0.00000
   51 Torsion                  8     2     6    12          -0.00000
   52 Torsion                  9     3     4    10           0.00000
   53 Torsion                 10     4     5    11           0.00000
   54 Torsion                 11     5     6    12           0.00000


            XYZ format geometry
            -------------------
    12
 geometry
 C                    -0.98927261     0.98927261     0.00000000
 C                    -1.35137152    -0.36209891     0.00000000
 C                     0.36209891     1.35137152     0.00000000
 C                     1.35137152     0.36209891     0.00000000
 C                     0.98927261    -0.98927261     0.00000000
 C                    -0.36209891    -1.35137152     0.00000000
 H                    -1.75460313     1.75460313     0.00000000
 H                    -2.39683244    -0.64222932     0.00000000
 H                     0.64222932     2.39683244     0.00000000
 H                     2.39683244     0.64222932     0.00000000
 H                     1.75460313    -1.75460313     0.00000000
 H                    -0.64222932    -2.39683244     0.00000000

 ==============================================================================
                                internuclear distances
 ------------------------------------------------------------------------------
       center one      |      center two      | atomic units |  angstroms
 ------------------------------------------------------------------------------
    2 C                |   1 C                |     2.64381  |     1.39904
    3 C                |   1 C                |     2.64381  |     1.39904
    4 C                |   3 C                |     2.64381  |     1.39904
    5 C                |   4 C                |     2.64381  |     1.39904
    6 C                |   2 C                |     2.64381  |     1.39904
    6 C                |   5 C                |     2.64381  |     1.39904
    7 H                |   1 C                |     2.04533  |     1.08234
    8 H                |   2 C                |     2.04533  |     1.08234
    9 H                |   3 C                |     2.04533  |     1.08234
   10 H                |   4 C                |     2.04533  |     1.08234
   11 H                |   5 C                |     2.04533  |     1.08234
   12 H                |   6 C                |     2.04533  |     1.08234
 ------------------------------------------------------------------------------
                         number of included internuclear distances:         12
 ==============================================================================



 ==============================================================================
                                 internuclear angles
 ------------------------------------------------------------------------------
        center 1       |       center 2       |       center 3       |  degrees
 ------------------------------------------------------------------------------
    2 C                |   1 C                |   3 C                |   120.00
    2 C                |   1 C                |   7 H                |   120.00
    3 C                |   1 C                |   7 H                |   120.00
    1 C                |   2 C                |   6 C                |   120.00
    1 C                |   2 C                |   8 H                |   120.00
    6 C                |   2 C                |   8 H                |   120.00
    1 C                |   3 C                |   4 C                |   120.00
    1 C                |   3 C                |   9 H                |   120.00
    4 C                |   3 C                |   9 H                |   120.00
    3 C                |   4 C                |   5 C                |   120.00
    3 C                |   4 C                |  10 H                |   120.00
    5 C                |   4 C                |  10 H                |   120.00
    4 C                |   5 C                |   6 C                |   120.00
    4 C                |   5 C                |  11 H                |   120.00
    6 C                |   5 C                |  11 H                |   120.00
    2 C                |   6 C                |   5 C                |   120.00
    2 C                |   6 C                |  12 H                |   120.00
    5 C                |   6 C                |  12 H                |   120.00
 ------------------------------------------------------------------------------
                            number of included internuclear angles:         18
 ==============================================================================




  Deleted DRIVER restart files 



                           NWChem Geometry Optimization
                           ----------------------------




                                 C6H6 optimization


 maximum gradient threshold         (gmax) =   0.000450
 rms gradient threshold             (grms) =   0.000300
 maximum cartesian step threshold   (xmax) =   0.001800
 rms cartesian step threshold       (xrms) =   0.001200
 fixed trust radius                (trust) =   0.300000
 maximum step size to saddle      (sadstp) =   0.100000
 energy precision                  (eprec) =   1.0D-07
 maximum number of steps          (nptopt) =   20
 initial hessian option           (inhess) =    0
 line search option               (linopt) =    1
 hessian update option            (modupd) =    1
 saddle point option              (modsad) =    0
 initial eigen-mode to follow     (moddir) =    0
 initial variable to follow       (vardir) =    0
 follow first negative mode     (firstneg) =    T
 apply conjugacy                    (opcg) =    F
 source of zmatrix                         =   autoz   


          -------------------
          Energy Minimization
          -------------------


 Names of Z-matrix variables 
    1              2              3              4              5         
    6              7              8              9             10         
   11             12             13             14             15         
   16             17             18             19             20         
   21             22             23             24             25         
   26             27             28             29             30         
   31             32             33             34             35         
   36             37             38             39             40         
   41             42             43             44             45         
   46             47             48             49             50         
   51             52             53             54         

 Variables with the same non-blank name are constrained to be equal


 Using diagonal initial Hessian 
 Scaling for Hessian diagonals: bonds = 1.00  angles = 0.25  torsions = 0.10

          --------
          Step   0
          --------


                         Geometry "geometry" -> "geometry"
                         ---------------------------------

 Output coordinates in angstroms (scale by  1.889725989 to convert to a.u.)

  No.       Tag          Charge          X              Y              Z
 ---- ---------------- ---------- -------------- -------------- --------------
    1 C                    6.0000    -0.98927261     0.98927261     0.00000000
    2 C                    6.0000    -1.35137152    -0.36209891     0.00000000
    3 C                    6.0000     0.36209891     1.35137152     0.00000000
    4 C                    6.0000     1.35137152     0.36209891     0.00000000
    5 C                    6.0000     0.98927261    -0.98927261     0.00000000
    6 C                    6.0000    -0.36209891    -1.35137152     0.00000000
    7 H                    1.0000    -1.75460313     1.75460313     0.00000000
    8 H                    1.0000    -2.39683244    -0.64222932     0.00000000
    9 H                    1.0000     0.64222932     2.39683244     0.00000000
   10 H                    1.0000     2.39683244     0.64222932     0.00000000
   11 H                    1.0000     1.75460313    -1.75460313     0.00000000
   12 H                    1.0000    -0.64222932    -2.39683244     0.00000000

      Atomic Mass 
      ----------- 

      C                 12.000000
      H                  1.007825


 Effective nuclear repulsion energy (a.u.)     203.0193298941

            Nuclear Dipole moment (a.u.) 
            ----------------------------
        X                 Y               Z
 ---------------- ---------------- ----------------
     0.0000000000     0.0000000000     0.0000000000

      Symmetry information
      --------------------

 Group name             D6h       
 Group number             30
 Group order              24
 No. of unique centers     2

      Symmetry unique atoms

     1    7

          ****************************************************
          *                                                  *
          *               NWPW PSPW Calculation              *
          *                                                  *
          * [ (Grassmann/Stiefel manifold implementation)  ] *
          *                                                  *
          *      [ NorthWest Chemistry implementation ]      *
          *                                                  *
          *            version #5.10   06/12/02              *
          *                                                  *
          *    This code was developed by Eric J. Bylaska,   *
          *    and was based upon algorithms and code        *
          *    developed by the group of Prof. John H. Weare *
          *                                                  *
          ****************************************************
     >>>  JOB STARTED       AT Wed Sep 30 14:30:17 2015  <<<
          ================ input data ========================
  library name resolved from: compiled reference
  NWCHEM_NWPW_LIBRARY set to: </Users/bylaska/nwchem-releases/nwchem/src/nwpw/libraryps/>
 Generating 1d pseudopotential for C   

 Generated formatted_filename: ./C.vpp
  library name resolved from: compiled reference
  NWCHEM_NWPW_LIBRARY set to: </Users/bylaska/nwchem-releases/nwchem/src/nwpw/libraryps/>
 Generating 1d pseudopotential for H   

 Generated formatted_filename: ./H.vpp
 random planewave guess, initial psi:c6h6.paw.movecs                                   
 -   spin, nalpha, nbeta:                    1                   15                    0

 input psi filename:./c6h6.paw.movecs
 Warning - Gram-Schmidt being performed on psi:   15.000000000000000        9.8073156232178160        15.000000000000014        5.1926843767821840     

 number of processors used:         2
 processor grid           :   2 x   1
 parallel mapping         :2d hilbert
 parallel mapping         :  balanced
 number of threads        :         1
 parallel io              :       off

 options:
      boundary conditions  = periodic    (version3)
      electron spin        = restricted
      exchange-correlation = PBE96 (White and Bird) parameterization

 elements involved in the cluster:
      1: C   valence charge: 4.0  core charge: 2.0
             comment    : PAW Hamann pseudopotential
             pseudpotential type            :   4
             loggrid parameter r0        : 0.300E-04
             loggrid parameter rmax      : 0.350E+02
             loggrid parameter npoints   :      3000
             augmentation sphere radius  :     1.986 ( 2384 npoints 2384 per task)
             compensation sigma          :     0.226
             total number of projectors  :         9
             n_ps (n) l          eig      #projector
                1 (2) s    -0.501293               1
                2 (2) p    -0.199070               3
                3 (3) d     0.100000               5

      2: H   valence charge: 1.0  core charge: 0.0
             comment    : PAW Hamann pseudopotential
             pseudpotential type            :   4
             loggrid parameter r0        : 0.250E-03
             loggrid parameter rmax      : 0.250E+02
             loggrid parameter npoints   :      2309
             augmentation sphere radius  :     0.892 ( 1641 npoints 1641 per task)
             compensation sigma          :     0.071
             total number of projectors  :         9
             n_ps (n) l          eig      #projector
                1 (1) s    -0.233473               1
                2 (2) p     2.000000               3
                3 (3) d     2.000000               5


 total charge:   0.000

 atomic composition:
     C   :    6     H   :    6

 number of electrons: spin up=    15 (  15 per task)  down=    15 (  15 per task) (Fourier space)
 number of orbitals : spin up=    15 (  15 per task)  down=    15 (  15 per task) (Fourier space)

 supercell:
      cell_name:  cell_default                                      
      lattice:    a1=<  20.000   0.000   0.000 >
                  a2=<   0.000  20.000   0.000 >
                  a3=<   0.000   0.000  20.000 >
      reciprocal: b1=<   0.314   0.000   0.000 >
                  b2=<   0.000   0.314   0.000 >
                  b3=<   0.000   0.000   0.314 >
      lattice:    a=      20.000 b=     20.000 c=      20.000
                  alpha=  90.000 beta=  90.000 gamma=  90.000
                  omega=      8000.0

      density cutoff= 20.000  fft= 42x 42x 42(    17133 waves     8567 per task)
      wavefnc cutoff= 10.000  fft= 42x 42x 42(     6027 waves     3014 per task)
      paw integration: xc lmax=  0 compensation charge= two-electron Gaussian
      Ewald summation: cut radius=    6.37  and  1
                       Madelung Wigner-Seitz= 1.76011888 (alpha= 2.83729748 rs=12.40700982)

 technical parameters:
      time step=      5.80     ficticious mass=  400000.0
      tolerance=0.100E-06 (energy)   0.100E-06 (density)
      maximum iterations =      1000 (   10 inner    100 outer )





== Energy Calculation ==


          ============ Grassmann lmbfgs iteration ============
     >>>  ITERATION STARTED AT Wed Sep 30 14:30:25 2015  <<<
    iter.           Energy         DeltaE       DeltaRho 
    ------------------------------------------------------
     -  15 steepest descent iterations performed
      10   -0.5649918234E+02   -0.66455E+00    0.27665E+01
     -  10 steepest descent iterations performed
      20   -0.5855960855E+02   -0.73602E-02    0.41146E-01
      30   -0.5856959465E+02   -0.25461E-04    0.89316E-04
      40   -0.5856962925E+02   -0.11890E-06    0.28593E-06
      50   -0.5856962931E+02   -0.67297E-07    0.11683E-09
  *** tolerance ok. iteration terminated
     >>>  ITERATION ENDED   AT Wed Sep 30 14:31:17 2015  <<<


==  Summary Of Results  ==

 number of electrons: spin up=   15.00000  down=   15.00000 (real space)
     plane-wave part:            14.11782          14.11782 (real space)
      augmented part:             0.88218           0.88218 (real space)

 total     energy    :  -0.5856962931E+02 (   -0.48808E+01/ion)

 total paw energy    :  -0.2318982777E+03 (   -0.19325E+02/ion)
 total orbital energy:  -0.1262192187E+02 (   -0.84146E+00/electron)
 hartree   energy    :   0.6044368964E+02 (    0.40296E+01/electron)
 exc-corr  energy    :  -0.1135626634E+02 (   -0.75708E+00/electron)
 ion-ion   energy    :   0.4157263419E+02 (    0.34644E+01/ion)

 kinetic (planewave) :   0.2142596412E+02 (    0.14284E+01/electron)
 V_local (planewave) :  -0.1356943711E+03 (   -0.90463E+01/electron)
 V_nl    (planewave) :  -0.1413692666E+02 (   -0.94246E+00/electron)
 V_Coul  (planewave) :   0.1208873793E+03 (    0.80592E+01/electron)
 V_xc.   (planewave) :  -0.1474294921E+02 (   -0.98286E+00/electron)
 Virial Coefficient  :  -0.2038968583E+01

 kinetic (loc. basis):   0.2011311863E+02 (    0.13409E+01/electron)
 kinetic       (core):   0.1888967858E+03 (    0.15741E+02/ion)
 valence-core        :  -0.2103981601E+01 (   -0.14027E+00/electron)
 ncmp*V_local        :  -0.2976409085E+02 (   -0.19843E+01/electron)
 V_lpaw  (loc. basis):  -0.9959310301E+01 (   -0.66395E+00/electron)
 coulomb (loc. basis):  -0.8364085671E+00 (   -0.55761E-01/electron)
 coulomb  (ncmp-ncmp):   0.1028946597E+01 (    0.68596E-01/electron)
 coulomb    (ncmp-pw):   0.9638981718E+01 (    0.64260E+00/electron)
 exc-cor (loc. basis):  -0.2307853543E+02 (   -0.15386E+01/electron)
 pxc-cor (loc. basis):  -0.2446720318E+01 (   -0.20389E+00/electron)
 ion-core            :  -0.3622254342E+03 (   -0.30185E+02/ion)

 orbital energies:
    -0.2130485E+00 (  -5.797eV)
    -0.2130542E+00 (  -5.798eV)
    -0.2778349E+00 (  -7.560eV)
    -0.2778945E+00 (  -7.562eV)
    -0.3118777E+00 (  -8.487eV)
    -0.3507191E+00 (  -9.544eV)
    -0.3507786E+00 (  -9.545eV)
    -0.3720201E+00 ( -10.123eV)
    -0.3889998E+00 ( -10.585eV)
    -0.4488637E+00 ( -12.214eV)
    -0.5196121E+00 ( -14.139eV)
    -0.5196378E+00 ( -14.140eV)
    -0.6544745E+00 ( -17.809eV)
    -0.6544895E+00 ( -17.810eV)
    -0.7576560E+00 ( -20.617eV)

 Total PSPW energy     :  -0.5856962931E+02


=== Spin Contamination ===

 <Sexact^2> =    0.0000000000000000     
 <S^2>      =    0.0000000000000000     



== Center of Charge ==

spin up     (    0.0000,    0.0000,    0.0000 )
spin down   (    0.0000,    0.0000,    0.0000 )
     total  (    0.0000,    0.0000,    0.0000 )
ionic       (   -0.0000,    0.0000,    0.0000 )
crystal     (    0.0000,    0.0000,    0.0000 )


== Crystal Dipole ==

mu   =  (   -0.0001,   -0.0001,   -0.0001 ) au
|mu| =     0.0001 au,       0.0003 Debye


== Molecular Dipole wrt Center of Mass ==

mu   =  (   -0.0001,   -0.0001,   -0.0001 ) au
|mu| =     0.0001 au,       0.0003 Debye

 output psi filename:./c6h6.paw.movecs


== Timing ==

cputime in seconds
  prologue    :   0.780961E+01
  main loop   :   0.522503E+02
  epilogue    :   0.116119E+00
  total       :   0.601760E+02
  cputime/step:   0.365387E+00       (     143 evalulations,      41 linesearches)


Time spent doing                        total          step       percent
  total time                 :   0.601775E+02  0.420822E+00       100.0 %
  i/o time                   :   0.464319E+01  0.324699E-01         7.7 %
  FFTs                       :   0.293258E+01  0.205075E-01         4.9 %
  dot products               :   0.108189E+02  0.756564E-01        18.0 %
  geodesic                   :   0.609207E+01  0.426019E-01        10.1 %
  ffm_dgemm                  :   0.160264E+00  0.112073E-02         0.3 %
  fmf_dgemm                  :   0.673851E+00  0.471224E-02         1.1 %
  m_diagonalize              :   0.780985E-02  0.546143E-04         0.0 %
    - m_tredq                :   0.141977E-01  0.992844E-04         0.0 %
  exchange correlation       :   0.394441E+01  0.275833E-01         6.6 %
  local pseudopotentials     :   0.592613E-02  0.414415E-04         0.0 %
  non-local pseudopotentials :   0.247665E+02  0.173192E+00        41.2 %
  hartree potentials         :   0.393342E-01  0.275064E-03         0.1 %
  ion-ion interaction        :   0.294394E+01  0.205870E-01         4.9 %
  structure factors          :   0.206865E+01  0.144661E-01         3.4 %
  phase factors              :   0.340929E-04  0.238412E-06         0.0 %
  masking and packing        :   0.105061E+01  0.734693E-02         1.7 %
  queue fft                  :   0.704139E+01  0.492405E-01        11.7 %
  queue fft (serial)         :   0.364783E+01  0.255093E-01         6.1 %
  queue fft (message passing):   0.322058E+01  0.225215E-01         5.4 %
  paw gaussian integrals     :   0.295529E+01  0.206663E-01         4.9 %
  paw atomic coulomb         :   0.637355E-01  0.445703E-03         0.1 %
  paw atomic xc              :   0.113369E+02  0.792792E-01        18.8 %
  paw gen dEmult/dQlm        :   0.160946E-01  0.112549E-03         0.0 %
  paw gen dElocal/dQlm       :   0.652020E-01  0.455958E-03         0.1 %
  paw cmp operations         :   0.652020E-01  0.455958E-03         0.1 %

     >>>  JOB COMPLETED     AT Wed Sep 30 14:31:17 2015  <<<
          ****************************************************
          *                                                  *
          *               NWPW PSPW Calculation              *
          *                                                  *
          * [ (Grassmann/Stiefel manifold implementation)  ] *
          *                                                  *
          *      [ NorthWest Chemistry implementation ]      *
          *                                                  *
          *            version #5.10   06/12/02              *
          *                                                  *
          *    This code was developed by Eric J. Bylaska,   *
          *    and was based upon algorithms and code        *
          *    developed by the group of Prof. John H. Weare *
          *                                                  *
          ****************************************************
     >>>  JOB STARTED       AT Wed Sep 30 14:31:17 2015  <<<
          ================ input data ========================
 pseudopotential is not correctly formatted:C.vpp                                             

 Generated formatted_filename: ./C.vpp
 pseudopotential is not correctly formatted:H.vpp                                             

 Generated formatted_filename: ./H.vpp
 Error reading psi - bad grid
 nfft :                   42                   42                   42
 ngrid:                   60                   60                   60
 Error reading psi - bad grid
 nfft :                   42                   42                   42
 ngrid:                   60                   60                   60
 Error reading psi - bad grid

 Grid is being converted:
 ------------------------

 To turn off automatic grid conversion:

 set nwpw:psi_nogrid .false.

 old_filename: c6h6.paw.movecs                                   
 new_filename: c6h6.paw.movecs                                   
 converting  :  42x 42x 42 -->  60x 60x 60
converting .... psi:    1 spin: 1
converting .... psi:    2 spin: 1
converting .... psi:    3 spin: 1
converting .... psi:    4 spin: 1
converting .... psi:    5 spin: 1
converting .... psi:    6 spin: 1
converting .... psi:    7 spin: 1
converting .... psi:    8 spin: 1
converting .... psi:    9 spin: 1
converting .... psi:   10 spin: 1
converting .... psi:   11 spin: 1
converting .... psi:   12 spin: 1
converting .... psi:   13 spin: 1
converting .... psi:   14 spin: 1
converting .... psi:   15 spin: 1

 input psi filename:./c6h6.paw.movecs

 number of processors used:         2
 processor grid           :   2 x   1
 parallel mapping         :2d hilbert
 parallel mapping         :  balanced
 number of threads        :         1
 parallel io              :       off

 options:
      boundary conditions  = periodic    (version3)
      electron spin        = restricted
      exchange-correlation = PBE96 (White and Bird) parameterization

 elements involved in the cluster:
      1: C   valence charge: 4.0  core charge: 2.0
             comment    : PAW Hamann pseudopotential
             pseudpotential type            :   4
             loggrid parameter r0        : 0.300E-04
             loggrid parameter rmax      : 0.350E+02
             loggrid parameter npoints   :      3000
             augmentation sphere radius  :     1.986 ( 2384 npoints 2384 per task)
             compensation sigma          :     0.226
             total number of projectors  :         9
             n_ps (n) l          eig      #projector
                1 (2) s    -0.501293               1
                2 (2) p    -0.199070               3
                3 (3) d     0.100000               5

      2: H   valence charge: 1.0  core charge: 0.0
             comment    : PAW Hamann pseudopotential
             pseudpotential type            :   4
             loggrid parameter r0        : 0.250E-03
             loggrid parameter rmax      : 0.250E+02
             loggrid parameter npoints   :      2309
             augmentation sphere radius  :     0.892 ( 1641 npoints 1641 per task)
             compensation sigma          :     0.071
             total number of projectors  :         9
             n_ps (n) l          eig      #projector
                1 (1) s    -0.233473               1
                2 (2) p     2.000000               3
                3 (3) d     2.000000               5


 total charge:   0.000

 atomic composition:
     C   :    6     H   :    6

 number of electrons: spin up=    15 (  15 per task)  down=    15 (  15 per task) (Fourier space)
 number of orbitals : spin up=    15 (  15 per task)  down=    15 (  15 per task) (Fourier space)

 supercell:
      cell_name:  cell_default                                      
      lattice:    a1=<  20.000   0.000   0.000 >
                  a2=<   0.000  20.000   0.000 >
                  a3=<   0.000   0.000  20.000 >
      reciprocal: b1=<   0.314   0.000   0.000 >
                  b2=<   0.000   0.314   0.000 >
                  b3=<   0.000   0.000   0.314 >
      lattice:    a=      20.000 b=     20.000 c=      20.000
                  alpha=  90.000 beta=  90.000 gamma=  90.000
                  omega=      8000.0

      density cutoff= 40.000  fft= 60x 60x 60(    48485 waves    24243 per task)
      wavefnc cutoff= 20.000  fft= 60x 60x 60(    17133 waves     8567 per task)
      paw integration: xc lmax=  0 compensation charge= two-electron Gaussian
      Ewald summation: cut radius=    6.37  and  1
                       Madelung Wigner-Seitz= 1.76011888 (alpha= 2.83729748 rs=12.40700982)

 technical parameters:
      time step=      5.80     ficticious mass=  400000.0
      tolerance=0.100E-06 (energy)   0.100E-06 (density)
      maximum iterations =      1000 (   10 inner    100 outer )





== Energy Calculation ==


          ============ Grassmann lmbfgs iteration ============
     >>>  ITERATION STARTED AT Wed Sep 30 14:31:29 2015  <<<
    iter.           Energy         DeltaE       DeltaRho 
    ------------------------------------------------------
      10   -0.5863502136E+02   -0.10003E-05    0.20569E-02
      20   -0.5863502275E+02   -0.80981E-07    0.89680E-08
  *** tolerance ok. iteration terminated
     >>>  ITERATION ENDED   AT Wed Sep 30 14:32:11 2015  <<<


==  Summary Of Results  ==

 number of electrons: spin up=   15.00000  down=   15.00000 (real space)
     plane-wave part:            14.10853          14.10853 (real space)
      augmented part:             0.89147           0.89147 (real space)

 total     energy    :  -0.5863502275E+02 (   -0.48863E+01/ion)

 total paw energy    :  -0.2319636711E+03 (   -0.19330E+02/ion)
 total orbital energy:  -0.1263680968E+02 (   -0.84245E+00/electron)
 hartree   energy    :   0.6041176938E+02 (    0.40275E+01/electron)
 exc-corr  energy    :  -0.1136374195E+02 (   -0.75758E+00/electron)
 ion-ion   energy    :   0.4157263419E+02 (    0.34644E+01/ion)

 kinetic (planewave) :   0.2152571700E+02 (    0.14350E+01/electron)
 V_local (planewave) :  -0.1356346560E+03 (   -0.90423E+01/electron)
 V_nl    (planewave) :  -0.1432198078E+02 (   -0.95480E+00/electron)
 V_Coul  (planewave) :   0.1208235388E+03 (    0.80549E+01/electron)
 V_xc.   (planewave) :  -0.1475121129E+02 (   -0.98341E+00/electron)
 Virial Coefficient  :  -0.2038692107E+01

 kinetic (loc. basis):   0.2024245259E+02 (    0.13495E+01/electron)
 kinetic       (core):   0.1888967858E+03 (    0.15741E+02/ion)
 valence-core        :  -0.2114237855E+01 (   -0.14095E+00/electron)
 ncmp*V_local        :  -0.3006135874E+02 (   -0.20041E+01/electron)
 V_lpaw  (loc. basis):  -0.1003257283E+02 (   -0.66884E+00/electron)
 coulomb (loc. basis):  -0.8498112911E+00 (   -0.56654E-01/electron)
 coulomb  (ncmp-ncmp):   0.1046585977E+01 (    0.69772E-01/electron)
 coulomb    (ncmp-pw):   0.9721782663E+01 (    0.64812E+00/electron)
 exc-cor (loc. basis):  -0.2309958585E+02 (   -0.15400E+01/electron)
 pxc-cor (loc. basis):  -0.2471595978E+01 (   -0.20597E+00/electron)
 ion-core            :  -0.3622254342E+03 (   -0.30185E+02/ion)

 orbital energies:
    -0.2133350E+00 (  -5.805eV)
    -0.2133383E+00 (  -5.805eV)
    -0.2795248E+00 (  -7.606eV)
    -0.2795580E+00 (  -7.607eV)
    -0.3120405E+00 (  -8.491eV)
    -0.3521311E+00 (  -9.582eV)
    -0.3521375E+00 (  -9.582eV)
    -0.3725167E+00 ( -10.137eV)
    -0.3902425E+00 ( -10.619eV)
    -0.4497394E+00 ( -12.238eV)
    -0.5196164E+00 ( -14.140eV)
    -0.5196219E+00 ( -14.140eV)
    -0.6538719E+00 ( -17.793eV)
    -0.6538780E+00 ( -17.793eV)
    -0.7568527E+00 ( -20.595eV)

 Total PSPW energy     :  -0.5863502275E+02


=== Spin Contamination ===

 <Sexact^2> =    0.0000000000000000     
 <S^2>      =    0.0000000000000000     



== Center of Charge ==

spin up     (    0.0000,    0.0000,    0.0000 )
spin down   (    0.0000,    0.0000,    0.0000 )
     total  (    0.0000,    0.0000,    0.0000 )
ionic       (   -0.0000,    0.0000,    0.0000 )
crystal     (    0.0000,    0.0000,    0.0000 )


== Crystal Dipole ==

mu   =  (   -0.0000,   -0.0000,   -0.0000 ) au
|mu| =     0.0000 au,       0.0001 Debye


== Molecular Dipole wrt Center of Mass ==

mu   =  (   -0.0000,   -0.0000,   -0.0000 ) au
|mu| =     0.0000 au,       0.0001 Debye


Translation force removed: (    0.00000   -0.00000    0.00000)


          =============  Ion Gradients =================
 Ion Forces:
        1 C    (   -0.003247    0.003274   -0.000000 )
        2 C    (   -0.004438   -0.001231   -0.000002 )
        3 C    (    0.001194    0.004448    0.000001 )
        4 C    (    0.004449    0.001195    0.000002 )
        5 C    (    0.003274   -0.003247    0.000001 )
        6 C    (   -0.001232   -0.004439   -0.000001 )
        7 H    (   -0.007777    0.007777   -0.000000 )
        8 H    (   -0.010671   -0.002854   -0.000001 )
        9 H    (    0.002854    0.010671   -0.000000 )
       10 H    (    0.010671    0.002854   -0.000000 )
       11 H    (    0.007777   -0.007777   -0.000000 )
       12 H    (   -0.002854   -0.010670   -0.000001 )
        C.O.M. (   -0.000000   -0.000000   -0.000000 )
          ===============================================
          |F|       =   0.292804E-01
          |F|/nion  =   0.244003E-02
          max|Fatom|=   0.110457E-01 (   0.568eV/Angstrom)



 output psi filename:./c6h6.paw.movecs


== Timing ==

cputime in seconds
  prologue    :   0.112165E+02
  main loop   :   0.458075E+02
  epilogue    :   0.161517E+00
  total       :   0.571855E+02
  cputime/step:   0.127243E+01       (      36 evalulations,      15 linesearches)


Time spent doing                        total          step       percent
  total time                 :   0.571872E+02  0.158853E+01       100.0 %
  i/o time                   :   0.201724E+01  0.560344E-01         3.5 %
  FFTs                       :   0.186424E+01  0.517845E-01         3.3 %
  dot products               :   0.152815E+02  0.424485E+00        26.7 %
  geodesic                   :   0.664742E+01  0.184651E+00        11.6 %
  ffm_dgemm                  :   0.133121E+00  0.369781E-02         0.2 %
  fmf_dgemm                  :   0.644810E+00  0.179114E-01         1.1 %
  m_diagonalize              :   0.176572E-02  0.490477E-04         0.0 %
    - m_tredq                :   0.491191E-02  0.136442E-03         0.0 %
  exchange correlation       :   0.259664E+01  0.721290E-01         4.5 %
  local pseudopotentials     :   0.521913E-01  0.144976E-02         0.1 %
  non-local pseudopotentials :   0.249287E+02  0.692464E+00        43.6 %
  hartree potentials         :   0.388353E-01  0.107876E-02         0.1 %
  ion-ion interaction        :   0.857667E+00  0.238241E-01         1.5 %
  structure factors          :   0.210698E+01  0.585272E-01         3.7 %
  phase factors              :   0.360002E-04  0.100001E-05         0.0 %
  masking and packing        :   0.653690E+00  0.181581E-01         1.1 %
  queue fft                  :   0.432823E+01  0.120229E+00         7.6 %
  queue fft (serial)         :   0.173472E+01  0.481868E-01         3.0 %
  queue fft (message passing):   0.242819E+01  0.674496E-01         4.2 %
  paw gaussian integrals     :   0.873353E+01  0.242598E+00        15.3 %
  paw atomic coulomb         :   0.163206E-01  0.453351E-03         0.0 %
  paw atomic xc              :   0.318897E+01  0.885826E-01         5.6 %
  paw gen dEmult/dQlm        :   0.522187E-02  0.145052E-03         0.0 %
  paw gen dElocal/dQlm       :   0.129204E+01  0.358901E-01         2.3 %
  paw cmp operations         :   0.129204E+01  0.358901E-01         2.3 %

     >>>  JOB COMPLETED     AT Wed Sep 30 14:32:14 2015  <<<

@ Step       Energy      Delta E   Gmax     Grms     Xrms     Xmax   Walltime
@ ---- ---------------- -------- -------- -------- -------- -------- --------
@    0     -58.63502275  0.0D+00  0.01566  0.00638  0.00000  0.00000    117.4
                                                                    



                                Z-matrix (autoz)
                                -------- 

 Units are Angstrom for bonds and degrees for angles

      Type          Name      I     J     K     L     M      Value     Gradient
      ----------- --------  ----- ----- ----- ----- ----- ---------- ----------
    1 Stretch                  1     2                       1.39904   -0.01566
    2 Stretch                  1     3                       1.39904   -0.01564
    3 Stretch                  1     7                       1.08234   -0.01100
    4 Stretch                  2     6                       1.39904   -0.01560
    5 Stretch                  2     8                       1.08234   -0.01105
    6 Stretch                  3     4                       1.39904   -0.01563
    7 Stretch                  3     9                       1.08234   -0.01105
    8 Stretch                  4     5                       1.39904   -0.01564
    9 Stretch                  4    10                       1.08234   -0.01105
   10 Stretch                  5     6                       1.39904   -0.01566
   11 Stretch                  5    11                       1.08234   -0.01100
   12 Stretch                  6    12                       1.08234   -0.01105
   13 Bend                     1     2     6               120.00000    0.00001
   14 Bend                     1     2     8               120.00000   -0.00000
   15 Bend                     1     3     4               120.00000    0.00001
   16 Bend                     1     3     9               120.00000   -0.00000
   17 Bend                     2     1     3               120.00000   -0.00002
   18 Bend                     2     1     7               120.00000    0.00001
   19 Bend                     2     6     5               120.00000    0.00001
   20 Bend                     2     6    12               120.00000   -0.00001
   21 Bend                     3     1     7               120.00000    0.00001
   22 Bend                     3     4     5               120.00000    0.00001
   23 Bend                     3     4    10               120.00000   -0.00001
   24 Bend                     4     3     9               120.00000   -0.00001
   25 Bend                     4     5     6               120.00000   -0.00002
   26 Bend                     4     5    11               120.00000    0.00001
   27 Bend                     5     4    10               120.00000   -0.00000
   28 Bend                     5     6    12               120.00000   -0.00000
   29 Bend                     6     2     8               120.00000   -0.00001
   30 Bend                     6     5    11               120.00000    0.00001
   31 Torsion                  1     2     6     5           0.00000    0.00000
   32 Torsion                  1     2     6    12         180.00000    0.00000
   33 Torsion                  1     3     4     5          -0.00000    0.00000
   34 Torsion                  1     3     4    10         180.00000    0.00000
   35 Torsion                  2     1     3     4           0.00000    0.00000
   36 Torsion                  2     1     3     9         180.00000    0.00000
   37 Torsion                  2     6     5     4           0.00000    0.00000
   38 Torsion                  2     6     5    11         180.00000   -0.00000
   39 Torsion                  3     1     2     6           0.00000   -0.00000
   40 Torsion                  3     1     2     8         180.00000   -0.00000
   41 Torsion                  3     4     5     6           0.00000   -0.00000
   42 Torsion                  3     4     5    11         180.00000    0.00000
   43 Torsion                  4     3     1     7         180.00000    0.00000
   44 Torsion                  4     5     6    12         180.00000    0.00000
   45 Torsion                  5     4     3     9         180.00000   -0.00000
   46 Torsion                  5     6     2     8         180.00000   -0.00000
   47 Torsion                  6     2     1     7         180.00000   -0.00000
   48 Torsion                  6     5     4    10         180.00000   -0.00000
   49 Torsion                  7     1     2     8           0.00000    0.00000
   50 Torsion                  7     1     3     9           0.00000    0.00000
   51 Torsion                  8     2     6    12          -0.00000   -0.00000
   52 Torsion                  9     3     4    10           0.00000    0.00000
   53 Torsion                 10     4     5    11           0.00000   -0.00000
   54 Torsion                 11     5     6    12           0.00000   -0.00000

          ****************************************************
          *                                                  *
          *               NWPW PSPW Calculation              *
          *                                                  *
          * [ (Grassmann/Stiefel manifold implementation)  ] *
          *                                                  *
          *      [ NorthWest Chemistry implementation ]      *
          *                                                  *
          *            version #5.10   06/12/02              *
          *                                                  *
          *    This code was developed by Eric J. Bylaska,   *
          *    and was based upon algorithms and code        *
          *    developed by the group of Prof. John H. Weare *
          *                                                  *
          ****************************************************
     >>>  JOB STARTED       AT Wed Sep 30 14:32:14 2015  <<<
          ================ input data ========================

 input psi filename:./c6h6.paw.movecs
 Warning - Gram-Schmidt being performed on psi:   15.000000000000000        14.993846788645381        14.999999999999986        6.1532113546185485E-003

 number of processors used:         2
 processor grid           :   2 x   1
 parallel mapping         :2d hilbert
 parallel mapping         :  balanced
 number of threads        :         1
 parallel io              :       off

 options:
      boundary conditions  = periodic    (version3)
      electron spin        = restricted
      exchange-correlation = PBE96 (White and Bird) parameterization

 elements involved in the cluster:
      1: C   valence charge: 4.0  core charge: 2.0
             comment    : PAW Hamann pseudopotential
             pseudpotential type            :   4
             loggrid parameter r0        : 0.300E-04
             loggrid parameter rmax      : 0.350E+02
             loggrid parameter npoints   :      3000
             augmentation sphere radius  :     1.986 ( 2384 npoints 2384 per task)
             compensation sigma          :     0.226
             total number of projectors  :         9
             n_ps (n) l          eig      #projector
                1 (2) s    -0.501293               1
                2 (2) p    -0.199070               3
                3 (3) d     0.100000               5

      2: H   valence charge: 1.0  core charge: 0.0
             comment    : PAW Hamann pseudopotential
             pseudpotential type            :   4
             loggrid parameter r0        : 0.250E-03
             loggrid parameter rmax      : 0.250E+02
             loggrid parameter npoints   :      2309
             augmentation sphere radius  :     0.892 ( 1641 npoints 1641 per task)
             compensation sigma          :     0.071
             total number of projectors  :         9
             n_ps (n) l          eig      #projector
                1 (1) s    -0.233473               1
                2 (2) p     2.000000               3
                3 (3) d     2.000000               5


 total charge:   0.000

 atomic composition:
     C   :    6     H   :    6

 number of electrons: spin up=    15 (  15 per task)  down=    15 (  15 per task) (Fourier space)
 number of orbitals : spin up=    15 (  15 per task)  down=    15 (  15 per task) (Fourier space)

 supercell:
      cell_name:  cell_default                                      
      lattice:    a1=<  20.000   0.000   0.000 >
                  a2=<   0.000  20.000   0.000 >
                  a3=<   0.000   0.000  20.000 >
      reciprocal: b1=<   0.314   0.000   0.000 >
                  b2=<   0.000   0.314   0.000 >
                  b3=<   0.000   0.000   0.314 >
      lattice:    a=      20.000 b=     20.000 c=      20.000
                  alpha=  90.000 beta=  90.000 gamma=  90.000
                  omega=      8000.0

      density cutoff= 40.000  fft= 60x 60x 60(    48485 waves    24243 per task)
      wavefnc cutoff= 20.000  fft= 60x 60x 60(    17133 waves     8567 per task)
      paw integration: xc lmax=  0 compensation charge= two-electron Gaussian
      Ewald summation: cut radius=    6.37  and  1
                       Madelung Wigner-Seitz= 1.76011888 (alpha= 2.83729748 rs=12.40700982)

 technical parameters:
      time step=      5.80     ficticious mass=  400000.0
      tolerance=0.100E-06 (energy)   0.100E-06 (density)
      maximum iterations =      1000 (   10 inner    100 outer )





== Energy Calculation ==


          ============ Grassmann lmbfgs iteration ============
     >>>  ITERATION STARTED AT Wed Sep 30 14:32:19 2015  <<<
    iter.           Energy         DeltaE       DeltaRho 
    ------------------------------------------------------
      10   -0.5863742661E+02   -0.24764E-04    0.29964E-02
      20   -0.5863746252E+02   -0.17086E-06    0.45652E-06
      30   -0.5863746270E+02   -0.66096E-07    0.16079E-09
  *** tolerance ok. iteration terminated
     >>>  ITERATION ENDED   AT Wed Sep 30 14:33:31 2015  <<<


==  Summary Of Results  ==

 number of electrons: spin up=   15.00000  down=   15.00000 (real space)
     plane-wave part:            14.12786          14.12786 (real space)
      augmented part:             0.87214           0.87214 (real space)

 total     energy    :  -0.5863746270E+02 (   -0.48865E+01/ion)

 total paw energy    :  -0.2319661111E+03 (   -0.19331E+02/ion)
 total orbital energy:  -0.1255541295E+02 (   -0.83703E+00/electron)
 hartree   energy    :   0.5956865460E+02 (    0.39712E+01/electron)
 exc-corr  energy    :  -0.1130687976E+02 (   -0.75379E+00/electron)
 ion-ion   energy    :   0.4031278905E+02 (    0.33594E+01/ion)

 kinetic (planewave) :   0.2129656702E+02 (    0.14198E+01/electron)
 V_local (planewave) :  -0.1336150928E+03 (   -0.89077E+01/electron)
 V_nl    (planewave) :  -0.1407731792E+02 (   -0.93849E+00/electron)
 V_Coul  (planewave) :   0.1191373092E+03 (    0.79425E+01/electron)
 V_xc.   (planewave) :  -0.1467660360E+02 (   -0.97844E+00/electron)
 Virial Coefficient  :  -0.2029984696E+01

 kinetic (loc. basis):   0.2000533575E+02 (    0.13337E+01/electron)
 kinetic       (core):   0.1888967858E+03 (    0.15741E+02/ion)
 valence-core        :  -0.2097024312E+01 (   -0.13980E+00/electron)
 ncmp*V_local        :  -0.2926028573E+02 (   -0.19507E+01/electron)
 V_lpaw  (loc. basis):  -0.1004441209E+02 (   -0.66963E+00/electron)
 coulomb (loc. basis):  -0.8142168296E+00 (   -0.54281E-01/electron)
 coulomb  (ncmp-ncmp):   0.9953831394E+00 (    0.66359E-01/electron)
 coulomb    (ncmp-pw):   0.9379725147E+01 (    0.62532E+00/electron)
 exc-cor (loc. basis):  -0.2305800587E+02 (   -0.15372E+01/electron)
 pxc-cor (loc. basis):  -0.2422989299E+01 (   -0.20192E+00/electron)
 ion-core            :  -0.3622254342E+03 (   -0.30185E+02/ion)

 orbital energies:
    -0.2119296E+00 (  -5.767eV)
    -0.2119331E+00 (  -5.767eV)
    -0.2798787E+00 (  -7.616eV)
    -0.2799171E+00 (  -7.617eV)
    -0.3074883E+00 (  -8.367eV)
    -0.3500687E+00 (  -9.526eV)
    -0.3500741E+00 (  -9.526eV)
    -0.3694917E+00 ( -10.054eV)
    -0.3902668E+00 ( -10.620eV)
    -0.4438749E+00 ( -12.079eV)
    -0.5168705E+00 ( -14.065eV)
    -0.5168752E+00 ( -14.065eV)
    -0.6497794E+00 ( -17.682eV)
    -0.6497856E+00 ( -17.682eV)
    -0.7494728E+00 ( -20.394eV)

 Total PSPW energy     :  -0.5863746270E+02


=== Spin Contamination ===

 <Sexact^2> =    0.0000000000000000     
 <S^2>      =    0.0000000000000000     



== Center of Charge ==

spin up     (    0.0000,   -0.0000,   -0.0000 )
spin down   (    0.0000,   -0.0000,   -0.0000 )
     total  (    0.0000,   -0.0000,   -0.0000 )
ionic       (    0.0000,    0.0000,    0.0000 )
crystal     (   -0.0000,   -0.0000,    0.0000 )


== Crystal Dipole ==

mu   =  (   -0.0000,    0.0000,    0.0000 ) au
|mu| =     0.0000 au,       0.0000 Debye


== Molecular Dipole wrt Center of Mass ==

mu   =  (   -0.0000,    0.0000,    0.0000 ) au
|mu| =     0.0000 au,       0.0000 Debye

 output psi filename:./c6h6.paw.movecs


== Timing ==

cputime in seconds
  prologue    :   0.412702E+01
  main loop   :   0.726897E+02
  epilogue    :   0.131963E+00
  total       :   0.769486E+02
  cputime/step:   0.113578E+01       (      64 evalulations,      22 linesearches)


Time spent doing                        total          step       percent
  total time                 :   0.769519E+02  0.120237E+01       100.0 %
  i/o time                   :   0.527463E+00  0.824161E-02         0.7 %
  FFTs                       :   0.322056E+01  0.503213E-01         4.2 %
  dot products               :   0.235510E+02  0.367985E+00        30.6 %
  geodesic                   :   0.107395E+02  0.167805E+00        14.0 %
  ffm_dgemm                  :   0.195860E+00  0.306031E-02         0.3 %
  fmf_dgemm                  :   0.109073E+01  0.170426E-01         1.4 %
  m_diagonalize              :   0.261496E-02  0.408587E-04         0.0 %
    - m_tredq                :   0.809101E-02  0.126422E-03         0.0 %
  exchange correlation       :   0.470955E+01  0.735867E-01         6.1 %
  local pseudopotentials     :   0.121498E-01  0.189841E-03         0.0 %
  non-local pseudopotentials :   0.395562E+02  0.618066E+00        51.4 %
  hartree potentials         :   0.641505E-01  0.100235E-02         0.1 %
  ion-ion interaction        :   0.146844E+01  0.229443E-01         1.9 %
  structure factors          :   0.321529E+01  0.502389E-01         4.2 %
  phase factors              :   0.209798E-04  0.327810E-06         0.0 %
  masking and packing        :   0.109404E+01  0.170944E-01         1.4 %
  queue fft                  :   0.742656E+01  0.116040E+00         9.7 %
  queue fft (serial)         :   0.307550E+01  0.480546E-01         4.0 %
  queue fft (message passing):   0.408480E+01  0.638250E-01         5.3 %
  paw gaussian integrals     :   0.314730E+01  0.491765E-01         4.1 %
  paw atomic coulomb         :   0.276525E-01  0.432070E-03         0.0 %
  paw atomic xc              :   0.550664E+01  0.860412E-01         7.2 %
  paw gen dEmult/dQlm        :   0.864535E-02  0.135084E-03         0.0 %
  paw gen dElocal/dQlm       :   0.363274E+00  0.567615E-02         0.5 %
  paw cmp operations         :   0.363274E+00  0.567615E-02         0.5 %

     >>>  JOB COMPLETED     AT Wed Sep 30 14:33:31 2015  <<<
 Line search: 
     step= 1.00 grad=-5.2D-03 hess= 2.7D-03 energy=    -58.637463 mode=accept  
 new step= 1.00                   predicted energy=    -58.637463

          --------
          Step   1
          --------


                         Geometry "geometry" -> "geometry"
                         ---------------------------------

 Output coordinates in angstroms (scale by  1.889725989 to convert to a.u.)

  No.       Tag          Charge          X              Y              Z
 ---- ---------------- ---------- -------------- -------------- --------------
    1 C                    6.0000    -1.00162713     1.00162713     0.00000000
    2 C                    6.0000    -1.36824811    -0.36662098     0.00000000
    3 C                    6.0000     0.36662098     1.36824811     0.00000000
    4 C                    6.0000     1.36824811     0.36662098     0.00000000
    5 C                    6.0000     1.00162713    -1.00162713     0.00000000
    6 C                    6.0000    -0.36662098    -1.36824811     0.00000000
    7 H                    1.0000    -1.77869718     1.77869718     0.00000000
    8 H                    1.0000    -2.42974554    -0.65104835     0.00000000
    9 H                    1.0000     0.65104835     2.42974554     0.00000000
   10 H                    1.0000     2.42974554     0.65104835     0.00000000
   11 H                    1.0000     1.77869718    -1.77869718     0.00000000
   12 H                    1.0000    -0.65104835    -2.42974554     0.00000000

      Atomic Mass 
      ----------- 

      C                 12.000000
      H                  1.007825


 Effective nuclear repulsion energy (a.u.)     200.4301052936

            Nuclear Dipole moment (a.u.) 
            ----------------------------
        X                 Y               Z
 ---------------- ---------------- ----------------
     0.0000000000    -0.0000000000     0.0000000000

      Symmetry information
      --------------------

 Group name             D6h       
 Group number             30
 Group order              24
 No. of unique centers     2

      Symmetry unique atoms

     1    7

          ****************************************************
          *                                                  *
          *               NWPW PSPW Calculation              *
          *                                                  *
          * [ (Grassmann/Stiefel manifold implementation)  ] *
          *                                                  *
          *      [ NorthWest Chemistry implementation ]      *
          *                                                  *
          *            version #5.10   06/12/02              *
          *                                                  *
          *    This code was developed by Eric J. Bylaska,   *
          *    and was based upon algorithms and code        *
          *    developed by the group of Prof. John H. Weare *
          *                                                  *
          ****************************************************
     >>>  JOB STARTED       AT Wed Sep 30 14:33:31 2015  <<<
          ================ input data ========================

 input psi filename:./c6h6.paw.movecs

 number of processors used:         2
 processor grid           :   2 x   1
 parallel mapping         :2d hilbert
 parallel mapping         :  balanced
 number of threads        :         1
 parallel io              :       off

 options:
      boundary conditions  = periodic    (version3)
      electron spin        = restricted
      exchange-correlation = PBE96 (White and Bird) parameterization

 elements involved in the cluster:
      1: C   valence charge: 4.0  core charge: 2.0
             comment    : PAW Hamann pseudopotential
             pseudpotential type            :   4
             loggrid parameter r0        : 0.300E-04
             loggrid parameter rmax      : 0.350E+02
             loggrid parameter npoints   :      3000
             augmentation sphere radius  :     1.986 ( 2384 npoints 2384 per task)
             compensation sigma          :     0.226
             total number of projectors  :         9
             n_ps (n) l          eig      #projector
                1 (2) s    -0.501293               1
                2 (2) p    -0.199070               3
                3 (3) d     0.100000               5

      2: H   valence charge: 1.0  core charge: 0.0
             comment    : PAW Hamann pseudopotential
             pseudpotential type            :   4
             loggrid parameter r0        : 0.250E-03
             loggrid parameter rmax      : 0.250E+02
             loggrid parameter npoints   :      2309
             augmentation sphere radius  :     0.892 ( 1641 npoints 1641 per task)
             compensation sigma          :     0.071
             total number of projectors  :         9
             n_ps (n) l          eig      #projector
                1 (1) s    -0.233473               1
                2 (2) p     2.000000               3
                3 (3) d     2.000000               5


 total charge:   0.000

 atomic composition:
     C   :    6     H   :    6

 number of electrons: spin up=    15 (  15 per task)  down=    15 (  15 per task) (Fourier space)
 number of orbitals : spin up=    15 (  15 per task)  down=    15 (  15 per task) (Fourier space)

 supercell:
      cell_name:  cell_default                                      
      lattice:    a1=<  20.000   0.000   0.000 >
                  a2=<   0.000  20.000   0.000 >
                  a3=<   0.000   0.000  20.000 >
      reciprocal: b1=<   0.314   0.000   0.000 >
                  b2=<   0.000   0.314   0.000 >
                  b3=<   0.000   0.000   0.314 >
      lattice:    a=      20.000 b=     20.000 c=      20.000
                  alpha=  90.000 beta=  90.000 gamma=  90.000
                  omega=      8000.0

      density cutoff= 40.000  fft= 60x 60x 60(    48485 waves    24243 per task)
      wavefnc cutoff= 20.000  fft= 60x 60x 60(    17133 waves     8567 per task)
      paw integration: xc lmax=  0 compensation charge= two-electron Gaussian
      Ewald summation: cut radius=    6.37  and  1
                       Madelung Wigner-Seitz= 1.76011888 (alpha= 2.83729748 rs=12.40700982)

 technical parameters:
      time step=      5.80     ficticious mass=  400000.0
      tolerance=0.100E-06 (energy)   0.100E-06 (density)
      maximum iterations =      1000 (   10 inner    100 outer )





== Energy Calculation ==


          ============ Grassmann lmbfgs iteration ============
     >>>  ITERATION STARTED AT Wed Sep 30 14:33:42 2015  <<<
    iter.           Energy         DeltaE       DeltaRho 
    ------------------------------------------------------
      10   -0.5863746272E+02   -0.25654E-07    0.84630E-12
  *** tolerance ok. iteration terminated
     >>>  ITERATION ENDED   AT Wed Sep 30 14:33:47 2015  <<<


==  Summary Of Results  ==

 number of electrons: spin up=   15.00000  down=   15.00000 (real space)
     plane-wave part:            14.12786          14.12786 (real space)
      augmented part:             0.87214           0.87214 (real space)

 total     energy    :  -0.5863746272E+02 (   -0.48865E+01/ion)

 total paw energy    :  -0.2319661111E+03 (   -0.19331E+02/ion)
 total orbital energy:  -0.1255541100E+02 (   -0.83703E+00/electron)
 hartree   energy    :   0.5956865785E+02 (    0.39712E+01/electron)
 exc-corr  energy    :  -0.1130687983E+02 (   -0.75379E+00/electron)
 ion-ion   energy    :   0.4031278905E+02 (    0.33594E+01/ion)

 kinetic (planewave) :   0.2129656563E+02 (    0.14198E+01/electron)
 V_local (planewave) :  -0.1336150965E+03 (   -0.89077E+01/electron)
 V_nl    (planewave) :  -0.1407731608E+02 (   -0.93849E+00/electron)
 V_Coul  (planewave) :   0.1191373157E+03 (    0.79425E+01/electron)
 V_xc.   (planewave) :  -0.1467660373E+02 (   -0.97844E+00/electron)
 Virial Coefficient  :  -0.2029984614E+01

 kinetic (loc. basis):   0.2000533206E+02 (    0.13337E+01/electron)
 kinetic       (core):   0.1888967858E+03 (    0.15741E+02/ion)
 valence-core        :  -0.2097023871E+01 (   -0.13980E+00/electron)
 ncmp*V_local        :  -0.2926028225E+02 (   -0.19507E+01/electron)
 V_lpaw  (loc. basis):  -0.1004440962E+02 (   -0.66963E+00/electron)
 coulomb (loc. basis):  -0.8142164781E+00 (   -0.54281E-01/electron)
 coulomb  (ncmp-ncmp):   0.9953827704E+00 (    0.66359E-01/electron)
 coulomb    (ncmp-pw):   0.9379723928E+01 (    0.62531E+00/electron)
 exc-cor (loc. basis):  -0.2305800551E+02 (   -0.15372E+01/electron)
 pxc-cor (loc. basis):  -0.2422988904E+01 (   -0.20192E+00/electron)
 ion-core            :  -0.3622254342E+03 (   -0.30185E+02/ion)

 orbital energies:
    -0.2119295E+00 (  -5.767eV)
    -0.2119330E+00 (  -5.767eV)
    -0.2798787E+00 (  -7.616eV)
    -0.2799171E+00 (  -7.617eV)
    -0.3074882E+00 (  -8.367eV)
    -0.3500686E+00 (  -9.526eV)
    -0.3500740E+00 (  -9.526eV)
    -0.3694917E+00 ( -10.054eV)
    -0.3902667E+00 ( -10.620eV)
    -0.4438748E+00 ( -12.079eV)
    -0.5168705E+00 ( -14.065eV)
    -0.5168751E+00 ( -14.065eV)
    -0.6497793E+00 ( -17.682eV)
    -0.6497855E+00 ( -17.682eV)
    -0.7494727E+00 ( -20.394eV)

 Total PSPW energy     :  -0.5863746272E+02


=== Spin Contamination ===

 <Sexact^2> =    0.0000000000000000     
 <S^2>      =    0.0000000000000000     



== Center of Charge ==

spin up     (    0.0000,   -0.0000,   -0.0000 )
spin down   (    0.0000,   -0.0000,   -0.0000 )
     total  (    0.0000,   -0.0000,   -0.0000 )
ionic       (    0.0000,    0.0000,    0.0000 )
crystal     (   -0.0000,   -0.0000,    0.0000 )


== Crystal Dipole ==

mu   =  (   -0.0000,    0.0000,    0.0000 ) au
|mu| =     0.0000 au,       0.0000 Debye


== Molecular Dipole wrt Center of Mass ==

mu   =  (   -0.0000,    0.0000,    0.0000 ) au
|mu| =     0.0000 au,       0.0000 Debye


Translation force removed: (    0.00000   -0.00000    0.00000)


          =============  Ion Gradients =================
 Ion Forces:
        1 C    (    0.000409   -0.000404    0.000000 )
        2 C    (    0.000575    0.000137   -0.000000 )
        3 C    (   -0.000143   -0.000574    0.000000 )
        4 C    (   -0.000573   -0.000143    0.000000 )
        5 C    (   -0.000404    0.000409    0.000000 )
        6 C    (    0.000137    0.000575   -0.000000 )
        7 H    (    0.000225   -0.000225   -0.000000 )
        8 H    (    0.000273    0.000079   -0.000000 )
        9 H    (   -0.000079   -0.000273    0.000000 )
       10 H    (   -0.000273   -0.000079    0.000000 )
       11 H    (   -0.000225    0.000225    0.000000 )
       12 H    (    0.000079    0.000273   -0.000000 )
        C.O.M. (    0.000000   -0.000000    0.000000 )
          ===============================================
          |F|       =   0.160731E-02
          |F|/nion  =   0.133943E-03
          max|Fatom|=   0.591242E-03 (   0.030eV/Angstrom)



 output psi filename:./c6h6.paw.movecs


== Timing ==

cputime in seconds
  prologue    :   0.105421E+02
  main loop   :   0.855967E+01
  epilogue    :   0.121291E+00
  total       :   0.192230E+02
  cputime/step:   0.171193E+01       (       5 evalulations,       1 linesearches)


Time spent doing                        total          step       percent
  total time                 :   0.192244E+02  0.384488E+01       100.0 %
  i/o time                   :   0.535713E+00  0.107143E+00         2.8 %
  FFTs                       :   0.397892E+00  0.795785E-01         2.1 %
  dot products               :   0.316469E+01  0.632937E+00        16.5 %
  geodesic                   :   0.654519E+00  0.130904E+00         3.4 %
  ffm_dgemm                  :   0.163322E-01  0.326643E-02         0.1 %
  fmf_dgemm                  :   0.444815E-01  0.889630E-02         0.2 %
  m_diagonalize              :   0.272987E-03  0.545975E-04         0.0 %
    - m_tredq                :   0.529771E-03  0.105954E-03         0.0 %
  exchange correlation       :   0.516377E+00  0.103275E+00         2.7 %
  local pseudopotentials     :   0.501993E-01  0.100399E-01         0.3 %
  non-local pseudopotentials :   0.511748E+01  0.102350E+01        26.6 %
  hartree potentials         :   0.570154E-02  0.114031E-02         0.0 %
  ion-ion interaction        :   0.101748E+00  0.203496E-01         0.5 %
  structure factors          :   0.421511E+00  0.843021E-01         2.2 %
  phase factors              :   0.352859E-04  0.705719E-05         0.0 %
  masking and packing        :   0.136859E+00  0.273719E-01         0.7 %
  queue fft                  :   0.712681E+00  0.142536E+00         3.7 %
  queue fft (serial)         :   0.259276E+00  0.518552E-01         1.3 %
  queue fft (message passing):   0.419144E+00  0.838289E-01         2.2 %
  paw gaussian integrals     :   0.970895E+01  0.194179E+01        50.5 %
  paw atomic coulomb         :   0.270922E-02  0.541843E-03         0.0 %
  paw atomic xc              :   0.373133E+00  0.746266E-01         1.9 %
  paw gen dEmult/dQlm        :   0.713115E-03  0.142623E-03         0.0 %
  paw gen dElocal/dQlm       :   0.146531E+01  0.293062E+00         7.6 %
  paw cmp operations         :   0.146531E+01  0.293062E+00         7.6 %

     >>>  JOB COMPLETED     AT Wed Sep 30 14:33:50 2015  <<<

  Step       Energy      Delta E   Gmax     Grms     Xrms     Xmax   Walltime
  ---- ---------------- -------- -------- -------- -------- -------- --------
@    1     -58.63746272 -2.4D-03  0.00089  0.00031  0.02954  0.06220    213.6
                                                                    



                                Z-matrix (autoz)
                                -------- 

 Units are Angstrom for bonds and degrees for angles

      Type          Name      I     J     K     L     M      Value     Gradient
      ----------- --------  ----- ----- ----- ----- ----- ---------- ----------
    1 Stretch                  1     2                       1.41651    0.00087
    2 Stretch                  1     3                       1.41651    0.00088
    3 Stretch                  1     7                       1.09894    0.00032
    4 Stretch                  2     6                       1.41651    0.00089
    5 Stretch                  2     8                       1.09894    0.00028
    6 Stretch                  3     4                       1.41651    0.00089
    7 Stretch                  3     9                       1.09894    0.00028
    8 Stretch                  4     5                       1.41651    0.00088
    9 Stretch                  4    10                       1.09894    0.00028
   10 Stretch                  5     6                       1.41651    0.00087
   11 Stretch                  5    11                       1.09894    0.00032
   12 Stretch                  6    12                       1.09894    0.00028
   13 Bend                     1     2     6               120.00000    0.00000
   14 Bend                     1     2     8               120.00000    0.00000
   15 Bend                     1     3     4               120.00000    0.00000
   16 Bend                     1     3     9               120.00000    0.00000
   17 Bend                     2     1     3               120.00000   -0.00001
   18 Bend                     2     1     7               120.00000    0.00000
   19 Bend                     2     6     5               120.00000    0.00000
   20 Bend                     2     6    12               120.00000   -0.00000
   21 Bend                     3     1     7               120.00000    0.00000
   22 Bend                     3     4     5               120.00000    0.00000
   23 Bend                     3     4    10               120.00000   -0.00000
   24 Bend                     4     3     9               120.00000   -0.00000
   25 Bend                     4     5     6               120.00000   -0.00001
   26 Bend                     4     5    11               120.00000    0.00000
   27 Bend                     5     4    10               120.00000    0.00000
   28 Bend                     5     6    12               120.00000    0.00000
   29 Bend                     6     2     8               120.00000   -0.00000
   30 Bend                     6     5    11               120.00000    0.00000
   31 Torsion                  1     2     6     5           0.00000    0.00000
   32 Torsion                  1     2     6    12         180.00000    0.00000
   33 Torsion                  1     3     4     5          -0.00000    0.00000
   34 Torsion                  1     3     4    10         180.00000    0.00000
   35 Torsion                  2     1     3     4           0.00000    0.00000
   36 Torsion                  2     1     3     9         180.00000    0.00000
   37 Torsion                  2     6     5     4           0.00000    0.00000
   38 Torsion                  2     6     5    11         180.00000    0.00000
   39 Torsion                  3     1     2     6           0.00000   -0.00000
   40 Torsion                  3     1     2     8         180.00000    0.00000
   41 Torsion                  3     4     5     6           0.00000   -0.00000
   42 Torsion                  3     4     5    11         180.00000   -0.00000
   43 Torsion                  4     3     1     7         180.00000    0.00000
   44 Torsion                  4     5     6    12         180.00000   -0.00000
   45 Torsion                  5     4     3     9         180.00000   -0.00000
   46 Torsion                  5     6     2     8         180.00000   -0.00000
   47 Torsion                  6     2     1     7         180.00000   -0.00000
   48 Torsion                  6     5     4    10         180.00000   -0.00000
   49 Torsion                  7     1     2     8           0.00000    0.00000
   50 Torsion                  7     1     3     9           0.00000    0.00000
   51 Torsion                  8     2     6    12          -0.00000    0.00000
   52 Torsion                  9     3     4    10           0.00000    0.00000
   53 Torsion                 10     4     5    11           0.00000   -0.00000
   54 Torsion                 11     5     6    12           0.00000   -0.00000

          ****************************************************
          *                                                  *
          *               NWPW PSPW Calculation              *
          *                                                  *
          * [ (Grassmann/Stiefel manifold implementation)  ] *
          *                                                  *
          *      [ NorthWest Chemistry implementation ]      *
          *                                                  *
          *            version #5.10   06/12/02              *
          *                                                  *
          *    This code was developed by Eric J. Bylaska,   *
          *    and was based upon algorithms and code        *
          *    developed by the group of Prof. John H. Weare *
          *                                                  *
          ****************************************************
     >>>  JOB STARTED       AT Wed Sep 30 14:33:50 2015  <<<
          ================ input data ========================

 input psi filename:./c6h6.paw.movecs
 Warning - Gram-Schmidt being performed on psi:   15.000000000000000        15.000196405861008        14.999999999999996        1.9640586100777568E-004

 number of processors used:         2
 processor grid           :   2 x   1
 parallel mapping         :2d hilbert
 parallel mapping         :  balanced
 number of threads        :         1
 parallel io              :       off

 options:
      boundary conditions  = periodic    (version3)
      electron spin        = restricted
      exchange-correlation = PBE96 (White and Bird) parameterization

 elements involved in the cluster:
      1: C   valence charge: 4.0  core charge: 2.0
             comment    : PAW Hamann pseudopotential
             pseudpotential type            :   4
             loggrid parameter r0        : 0.300E-04
             loggrid parameter rmax      : 0.350E+02
             loggrid parameter npoints   :      3000
             augmentation sphere radius  :     1.986 ( 2384 npoints 2384 per task)
             compensation sigma          :     0.226
             total number of projectors  :         9
             n_ps (n) l          eig      #projector
                1 (2) s    -0.501293               1
                2 (2) p    -0.199070               3
                3 (3) d     0.100000               5

      2: H   valence charge: 1.0  core charge: 0.0
             comment    : PAW Hamann pseudopotential
             pseudpotential type            :   4
             loggrid parameter r0        : 0.250E-03
             loggrid parameter rmax      : 0.250E+02
             loggrid parameter npoints   :      2309
             augmentation sphere radius  :     0.892 ( 1641 npoints 1641 per task)
             compensation sigma          :     0.071
             total number of projectors  :         9
             n_ps (n) l          eig      #projector
                1 (1) s    -0.233473               1
                2 (2) p     2.000000               3
                3 (3) d     2.000000               5


 total charge:   0.000

 atomic composition:
     C   :    6     H   :    6

 number of electrons: spin up=    15 (  15 per task)  down=    15 (  15 per task) (Fourier space)
 number of orbitals : spin up=    15 (  15 per task)  down=    15 (  15 per task) (Fourier space)

 supercell:
      cell_name:  cell_default                                      
      lattice:    a1=<  20.000   0.000   0.000 >
                  a2=<   0.000  20.000   0.000 >
                  a3=<   0.000   0.000  20.000 >
      reciprocal: b1=<   0.314   0.000   0.000 >
                  b2=<   0.000   0.314   0.000 >
                  b3=<   0.000   0.000   0.314 >
      lattice:    a=      20.000 b=     20.000 c=      20.000
                  alpha=  90.000 beta=  90.000 gamma=  90.000
                  omega=      8000.0

      density cutoff= 40.000  fft= 60x 60x 60(    48485 waves    24243 per task)
      wavefnc cutoff= 20.000  fft= 60x 60x 60(    17133 waves     8567 per task)
      paw integration: xc lmax=  0 compensation charge= two-electron Gaussian
      Ewald summation: cut radius=    6.37  and  1
                       Madelung Wigner-Seitz= 1.76011888 (alpha= 2.83729748 rs=12.40700982)

 technical parameters:
      time step=      5.80     ficticious mass=  400000.0
      tolerance=0.100E-06 (energy)   0.100E-06 (density)
      maximum iterations =      1000 (   10 inner    100 outer )





== Energy Calculation ==


          ============ Grassmann lmbfgs iteration ============
     >>>  ITERATION STARTED AT Wed Sep 30 14:33:55 2015  <<<
    iter.           Energy         DeltaE       DeltaRho 
    ------------------------------------------------------
      10   -0.5863746846E+02   -0.45646E-07    0.67209E-05
      20   -0.5863746849E+02   -0.30425E-07    0.91063E-10
  *** tolerance ok. iteration terminated
     >>>  ITERATION ENDED   AT Wed Sep 30 14:34:32 2015  <<<


==  Summary Of Results  ==

[...]
   41 Torsion                  3     4     5     6           0.00000    0.00000
   42 Torsion                  3     4     5    11         180.00000    0.00000
   43 Torsion                  4     3     1     7         180.00000   -0.00000
   44 Torsion                  4     5     6    12         180.00000    0.00001
   45 Torsion                  5     4     3     9         180.00000    0.00001
   46 Torsion                  5     6     2     8         180.00000    0.00001
   47 Torsion                  6     2     1     7         180.00000    0.00000
   48 Torsion                  6     5     4    10         180.00000    0.00001
   49 Torsion                  7     1     2     8           0.00000   -0.00001
   50 Torsion                  7     1     3     9           0.00000   -0.00001
   51 Torsion                  8     2     6    12          -0.00000   -0.00000
   52 Torsion                  9     3     4    10           0.00000   -0.00000
   53 Torsion                 10     4     5    11           0.00000    0.00001
   54 Torsion                 11     5     6    12           0.00000    0.00001


 ---------------------------------------------------------------
 Failed to converge in maximum number of steps or available time
 ---------------------------------------------------------------


  Step       Energy      Delta E   Gmax     Grms     Xrms     Xmax   Walltime
  ---- ---------------- -------- -------- -------- -------- -------- --------
@   20     -58.57591573  9.4D-11  0.00062  0.00019  0.00000  0.00000   4345.6
                                              ok       ok       ok  



                                Z-matrix (autoz)
                                -------- 

 Units are Angstrom for bonds and degrees for angles

      Type          Name      I     J     K     L     M      Value     Gradient
      ----------- --------  ----- ----- ----- ----- ----- ---------- ----------
    1 Stretch                  1     2                       1.41717    0.00031
    2 Stretch                  1     3                       1.41717    0.00031
    3 Stretch                  1     7                       1.10342   -0.00032
    4 Stretch                  2     6                       1.41717   -0.00062
    5 Stretch                  2     8                       1.10342    0.00016
    6 Stretch                  3     4                       1.41717   -0.00062
    7 Stretch                  3     9                       1.10342    0.00016
    8 Stretch                  4     5                       1.41717    0.00031
    9 Stretch                  4    10                       1.10342    0.00016
   10 Stretch                  5     6                       1.41717    0.00031
   11 Stretch                  5    11                       1.10342   -0.00032
   12 Stretch                  6    12                       1.10342    0.00016
   13 Bend                     1     2     6               120.00000   -0.00009
   14 Bend                     1     2     8               120.00000    0.00022
   15 Bend                     1     3     4               120.00000   -0.00009
   16 Bend                     1     3     9               120.00000    0.00022
   17 Bend                     2     1     3               120.00000    0.00018
   18 Bend                     2     1     7               120.00000   -0.00009
   19 Bend                     2     6     5               120.00000   -0.00009
   20 Bend                     2     6    12               120.00000   -0.00013
   21 Bend                     3     1     7               120.00000   -0.00009
   22 Bend                     3     4     5               120.00000   -0.00009
   23 Bend                     3     4    10               120.00000   -0.00013
   24 Bend                     4     3     9               120.00000   -0.00013
   25 Bend                     4     5     6               120.00000    0.00018
   26 Bend                     4     5    11               120.00000   -0.00009
   27 Bend                     5     4    10               120.00000    0.00022
   28 Bend                     5     6    12               120.00000    0.00022
   29 Bend                     6     2     8               120.00000   -0.00013
   30 Bend                     6     5    11               120.00000   -0.00009
   31 Torsion                  1     2     6     5           0.00000    0.00000
   32 Torsion                  1     2     6    12         180.00000   -0.00001
   33 Torsion                  1     3     4     5          -0.00000    0.00000
   34 Torsion                  1     3     4    10         180.00000   -0.00001
   35 Torsion                  2     1     3     4           0.00000   -0.00000
   36 Torsion                  2     1     3     9         180.00000   -0.00001
   37 Torsion                  2     6     5     4           0.00000   -0.00000
   38 Torsion                  2     6     5    11         180.00000   -0.00000
   39 Torsion                  3     1     2     6           0.00000    0.00000
   40 Torsion                  3     1     2     8         180.00000   -0.00001
   41 Torsion                  3     4     5     6           0.00000    0.00000
   42 Torsion                  3     4     5    11         180.00000    0.00000
   43 Torsion                  4     3     1     7         180.00000   -0.00000
   44 Torsion                  4     5     6    12         180.00000    0.00001
   45 Torsion                  5     4     3     9         180.00000    0.00001
   46 Torsion                  5     6     2     8         180.00000    0.00001
   47 Torsion                  6     2     1     7         180.00000    0.00000
   48 Torsion                  6     5     4    10         180.00000    0.00001
   49 Torsion                  7     1     2     8           0.00000   -0.00001
   50 Torsion                  7     1     3     9           0.00000   -0.00001
   51 Torsion                  8     2     6    12          -0.00000   -0.00000
   52 Torsion                  9     3     4    10           0.00000   -0.00000
   53 Torsion                 10     4     5    11           0.00000    0.00001
   54 Torsion                 11     5     6    12           0.00000    0.00001



                         Geometry "geometry" -> "geometry"
                         ---------------------------------

 Output coordinates in angstroms (scale by  1.889725989 to convert to a.u.)

  No.       Tag          Charge          X              Y              Z
 ---- ---------------- ---------- -------------- -------------- --------------
    1 C                    6.0000    -1.00209323     1.00209323     0.00000000
    2 C                    6.0000    -1.36888481    -0.36679158     0.00000000
    3 C                    6.0000     0.36679158     1.36888481     0.00000000
    4 C                    6.0000     1.36888481     0.36679158     0.00000000
    5 C                    6.0000     1.00209323    -1.00209323     0.00000000
    6 C                    6.0000    -0.36679158    -1.36888481     0.00000000
    7 H                    1.0000    -1.78233137     1.78233137     0.00000000
    8 H                    1.0000    -2.43470994    -0.65237856     0.00000000
    9 H                    1.0000     0.65237856     2.43470994     0.00000000
   10 H                    1.0000     2.43470994     0.65237856     0.00000000
   11 H                    1.0000     1.78233137    -1.78233137     0.00000000
   12 H                    1.0000    -0.65237856    -2.43470994     0.00000000

      Atomic Mass 
      ----------- 

      C                 12.000000
      H                  1.007825


 Effective nuclear repulsion energy (a.u.)     200.2280168578

            Nuclear Dipole moment (a.u.) 
            ----------------------------
        X                 Y               Z
 ---------------- ---------------- ----------------
    -0.0000000000     0.0000000000     0.0000000000

      Symmetry information
      --------------------

 Group name             D6h       
 Group number             30
 Group order              24
 No. of unique centers     2

      Symmetry unique atoms

     1    7


                Final and change from initial internal coordinates
                --------------------------------------------------



                                Z-matrix (autoz)
                                -------- 

 Units are Angstrom for bonds and degrees for angles

      Type          Name      I     J     K     L     M      Value       Change
      ----------- --------  ----- ----- ----- ----- ----- ---------- ----------
    1 Stretch                  1     2                       1.41717    0.00157
    2 Stretch                  1     3                       1.41717    0.00157
    3 Stretch                  1     7                       1.10342    0.00495
    4 Stretch                  2     6                       1.41717    0.00157
    5 Stretch                  2     8                       1.10342    0.00495
    6 Stretch                  3     4                       1.41717    0.00157
    7 Stretch                  3     9                       1.10342    0.00495
    8 Stretch                  4     5                       1.41717    0.00157
    9 Stretch                  4    10                       1.10342    0.00495
   10 Stretch                  5     6                       1.41717    0.00157
   11 Stretch                  5    11                       1.10342    0.00495
   12 Stretch                  6    12                       1.10342    0.00495
   13 Bend                     1     2     6               120.00000    0.00000
   14 Bend                     1     2     8               120.00000   -0.00000
   15 Bend                     1     3     4               120.00000    0.00000
   16 Bend                     1     3     9               120.00000   -0.00000
   17 Bend                     2     1     3               120.00000   -0.00000
   18 Bend                     2     1     7               120.00000    0.00000
   19 Bend                     2     6     5               120.00000    0.00000
   20 Bend                     2     6    12               120.00000    0.00000
   21 Bend                     3     1     7               120.00000    0.00000
   22 Bend                     3     4     5               120.00000    0.00000
   23 Bend                     3     4    10               120.00000   -0.00000
   24 Bend                     4     3     9               120.00000    0.00000
   25 Bend                     4     5     6               120.00000   -0.00000
   26 Bend                     4     5    11               120.00000    0.00000
   27 Bend                     5     4    10               120.00000   -0.00000
   28 Bend                     5     6    12               120.00000   -0.00000
   29 Bend                     6     2     8               120.00000   -0.00000
   30 Bend                     6     5    11               120.00000    0.00000
   31 Torsion                  1     2     6     5           0.00000    0.00000
   32 Torsion                  1     2     6    12         180.00000    0.00000
   33 Torsion                  1     3     4     5          -0.00000    0.00000
   34 Torsion                  1     3     4    10         180.00000    0.00000
   35 Torsion                  2     1     3     4           0.00000    0.00000
   36 Torsion                  2     1     3     9         180.00000    0.00000
   37 Torsion                  2     6     5     4           0.00000    0.00000
   38 Torsion                  2     6     5    11         180.00000    0.00000
   39 Torsion                  3     1     2     6           0.00000    0.00000
   40 Torsion                  3     1     2     8         180.00000    0.00000
   41 Torsion                  3     4     5     6           0.00000    0.00000
   42 Torsion                  3     4     5    11         180.00000    0.00000
   43 Torsion                  4     3     1     7         180.00000    0.00000
   44 Torsion                  4     5     6    12         180.00000    0.00000
   45 Torsion                  5     4     3     9         180.00000    0.00000
   46 Torsion                  5     6     2     8         180.00000    0.00000
   47 Torsion                  6     2     1     7         180.00000    0.00000
   48 Torsion                  6     5     4    10         180.00000    0.00000
   49 Torsion                  7     1     2     8           0.00000    0.00000
   50 Torsion                  7     1     3     9           0.00000    0.00000
   51 Torsion                  8     2     6    12          -0.00000   -0.00000
   52 Torsion                  9     3     4    10           0.00000    0.00000
   53 Torsion                 10     4     5    11           0.00000    0.00000
   54 Torsion                 11     5     6    12           0.00000    0.00000

 ==============================================================================
                                internuclear distances
 ------------------------------------------------------------------------------
       center one      |      center two      | atomic units |  angstroms
 ------------------------------------------------------------------------------
    2 C                |   1 C                |     2.67807  |     1.41717
    3 C                |   1 C                |     2.67807  |     1.41717
    4 C                |   3 C                |     2.67807  |     1.41717
    5 C                |   4 C                |     2.67807  |     1.41717
    6 C                |   2 C                |     2.67807  |     1.41717
    6 C                |   5 C                |     2.67807  |     1.41717
    7 H                |   1 C                |     2.08517  |     1.10342
    8 H                |   2 C                |     2.08517  |     1.10342
    9 H                |   3 C                |     2.08517  |     1.10342
   10 H                |   4 C                |     2.08517  |     1.10342
   11 H                |   5 C                |     2.08517  |     1.10342
   12 H                |   6 C                |     2.08517  |     1.10342
 ------------------------------------------------------------------------------
                         number of included internuclear distances:         12
 ==============================================================================



 ==============================================================================
                                 internuclear angles
 ------------------------------------------------------------------------------
        center 1       |       center 2       |       center 3       |  degrees
 ------------------------------------------------------------------------------
    2 C                |   1 C                |   3 C                |   120.00
    2 C                |   1 C                |   7 H                |   120.00
    3 C                |   1 C                |   7 H                |   120.00
    1 C                |   2 C                |   6 C                |   120.00
    1 C                |   2 C                |   8 H                |   120.00
    6 C                |   2 C                |   8 H                |   120.00
    1 C                |   3 C                |   4 C                |   120.00
    1 C                |   3 C                |   9 H                |   120.00
    4 C                |   3 C                |   9 H                |   120.00
    3 C                |   4 C                |   5 C                |   120.00
    3 C                |   4 C                |  10 H                |   120.00
    5 C                |   4 C                |  10 H                |   120.00
    4 C                |   5 C                |   6 C                |   120.00
    4 C                |   5 C                |  11 H                |   120.00
    6 C                |   5 C                |  11 H                |   120.00
    2 C                |   6 C                |   5 C                |   120.00
    2 C                |   6 C                |  12 H                |   120.00
    5 C                |   6 C                |  12 H                |   120.00
 ------------------------------------------------------------------------------
                            number of included internuclear angles:         18
 ==============================================================================



  !! warning: pspw optimize failed

 Task  times  cpu:      587.3s     wall:      587.3s


                                NWChem Input Module
                                -------------------


 Summary of allocated global arrays
-----------------------------------
  No active global arrays



                         GA Statistics for process    0
                         ------------------------------

       create   destroy   get      put      acc     scatter   gather  read&inc
calls:    0        0        0        0        0        0        0        0     
number of processes/call 0.00e+00 0.00e+00 0.00e+00 0.00e+00 0.00e+00
bytes total:             0.00e+00 0.00e+00 0.00e+00 0.00e+00 0.00e+00 0.00e+00
bytes remote:            0.00e+00 0.00e+00 0.00e+00 0.00e+00 0.00e+00 0.00e+00
Max memory consumed for GA by this process: 0 bytes

MA_summarize_allocated_blocks: starting scan ...
MA_summarize_allocated_blocks: scan completed: 0 heap blocks, 0 stack blocks
MA usage statistics:

	allocation statistics:
					      heap	     stack
					      ----	     -----
	current number of blocks	         0	         0
	maximum number of blocks	       385	        15
	current total bytes		         0	         0
	maximum total bytes		 520923240	  68580072
	maximum total K-bytes		    520924	     68581
	maximum total M-bytes		       521	        69


                                     CITATION
                                     --------
                Please cite the following reference when publishing
                           results obtained with NWChem:

                 M. Valiev, E.J. Bylaska, N. Govind, K. Kowalski,
              T.P. Straatsma, H.J.J. van Dam, D. Wang, J. Nieplocha,
                        E. Apra, T.L. Windus, W.A. de Jong
                 "NWChem: a comprehensive and scalable open-source
                  solution for large scale molecular simulations"
                      Comput. Phys. Commun. 181, 1477 (2010)
                           doi:10.1016/j.cpc.2010.04.018

                                      AUTHORS
                                      -------
          E. Apra, E. J. Bylaska, W. A. de Jong, N. Govind, K. Kowalski,
       T. P. Straatsma, M. Valiev, H. J. J. van Dam, D. Wang, T. L. Windus,
        J. Hammond, J. Autschbach, K. Bhaskaran-Nair, J. Brabec, K. Lopata,
        S. Fischer, S. Krishnamoorthy, W. Ma, M. Klemm, O. Villa, Y. Chen,
    V. Anisimov, F. Aquino, S. Hirata, M. T. Hackler, T. Risthaus, M. Malagoli,
       A. Marenich, A. Otero-de-la-Roza, J. Mullin, P. Nichols, R. Peverati,
     J. Pittner, Y. Zhao, P.-D. Fan, A. Fonari, M. Williamson, R. J. Harrison,
      M. Dupuis, D. Silverstein, D. M. A. Smith, J. Nieplocha, V. Tipparaju,
    M. Krishnan, B. E. Van Kuiken, A. Vazquez-Mayagoitia, L. Jensen, M. Swart,
      Q. Wu, T. Van Voorhis, A. A. Auer, M. Nooijen, L. D. Crosby, E. Brown,
      G. Cisneros, G. I. Fann, H. Fruchtl, J. Garza, K. Hirao, R. A. Kendall,
      J. A. Nichols, K. Tsemekhman, K. Wolinski, J. Anchell, D. E. Bernholdt,
      P. Borowski, T. Clark, D. Clerc, H. Dachsel, M. J. O. Deegan, K. Dyall,
    D. Elwood, E. Glendening, M. Gutowski, A. C. Hess, J. Jaffe, B. G. Johnson,
     J. Ju, R. Kobayashi, R. Kutteh, Z. Lin, R. Littlefield, X. Long, B. Meng,
      T. Nakajima, S. Niu, L. Pollack, M. Rosing, K. Glaesemann, G. Sandrone,
      M. Stave, H. Taylor, G. Thomas, J. H. van Lenthe, A. T. Wong, Z. Zhang.

 Total times  cpu:     4345.7s     wall:     4345.7s
