 argument  1 = talc.nw



============================== echo of input deck ==============================
echo


#Perdikatsis B, Burzlaff H
#Zeitschrift fur Kristallographie 156 (1981) 177-186
#Strukturverfeinerung am talk Mg3[(OH)2Si4O10]
#http://rruff.geo.arizona.edu/AMS/result.php?mineral=Talc

geometry units angstroms nocenter noautosym noautoz print
  system crystal
    lat_a 5.290
    lat_b  9.173
    lat_c 9.460
    alpha 90.46
    beta  98.68
    gamma 90.09
  end
symmetry P-1
Si   0.24527   0.50259   0.29093
Si   0.24590   0.83587   0.29108
Mg   0.00000   0.00000   0.00000
Mg   0.50012   0.83332   0.99994
O   0.19910   0.83440   0.11760
O   0.69700   0.66740   0.11260
O   0.19800   0.50120   0.11760
O   0.01990   0.92870   0.34810
O   0.52020   0.91090   0.34940
O   0.24290   0.66990   0.34840
H   0.71900   0.66900   0.20300
end
#***** setup the nwpw gamma point code ****
nwpw
   simulation_cell
     ngrid: 16 16 16
   end
   ewald_ncut: 8
   mulliken
   lcao #old default
end
set nwpw:lcao_iterations 20
set nwpw:minimizer 2
#set nwpw:lmbfgs_size 1
#set nwpw:precondition .false.
#set nwpw:lcao_skip .true.

task pspw energy

nwpw
  tolerances 1.0d-9 1.0d-9
end

## stupid input ##
set nwpw:mulliken .false.
set cgsd:mulliken .false.
set band:mulliken .false.
set nwpw:mulliken_kawai .false.


driver
   clear
   maxiter 200
end
#set includestress .true.          # tell driver to optimize unit cell
task pspw optimize

#set nwpw:stress_numerical .true.
#set includestress .true.          # tell driver to optimize unit cell using numerical stress
#task pspw optimize
================================================================================


                                         
                                         


              Northwest Computational Chemistry Package (NWChem) 6.0
              ------------------------------------------------------


                    Environmental Molecular Sciences Laboratory
                       Pacific Northwest National Laboratory
                                Richland, WA 99352

                              Copyright (c) 1994-2010
                       Pacific Northwest National Laboratory
                            Battelle Memorial Institute

             NWChem is an open-source computational chemistry package
                        distributed under the terms of the
                      Educational Community License (ECL) 2.0
             A copy of the license is included with this distribution
                              in the LICENSE.TXT file

                                  ACKNOWLEDGMENT
                                  --------------

            This software and its documentation were developed at the
            EMSL at Pacific Northwest National Laboratory, a multiprogram
            national laboratory, operated for the U.S. Department of Energy
            by Battelle under Contract Number DE-AC05-76RL01830. Support
            for this work was provided by the Department of Energy Office
            of Biological and Environmental Research, Office of Basic
            Energy Sciences, and the Office of Advanced Scientific Computing.


           Job information
           ---------------

    hostname      = we11554.emsl.pnl.gov
    program       = /Users/d3p852/nwchem-6.0/bin/MACX/nwchem
    date          = Tue Feb 15 10:40:41 2011

    compiled      = Tue_Feb_15_10:34:37_2011
    source        = /Users/d3p852/nwchem-6.0/
    nwchem branch = Development
    input         = talc.nw
    prefix        = talc.
    data base     = ./talc.db
    status        = startup
    nproc         =        1
    time left     =     -1s



           Memory information
           ------------------

    heap     =   13107201 doubles =    100.0 Mbytes
    stack    =   13107201 doubles =    100.0 Mbytes
    global   =   26214400 doubles =    200.0 Mbytes (distinct from heap & stack)
    total    =   52428802 doubles =    400.0 Mbytes
    verify   = yes
    hardfail = no 


           Directory information
           ---------------------

  0 permanent = .
  0 scratch   = .




                                NWChem Input Module
                                -------------------



  !!!!!!!!!  geom_3d NEEDS TESTING !!!!!!!!!! 
 a-b axis conversion


                             Geometry "geometry" -> ""
                             -------------------------

 Output coordinates in angstroms (scale by  1.889725989 to convert to a.u.)

  No.       Tag          Charge          X              Y              Z
 ---- ---------------- ---------- -------------- -------------- --------------
    1 Si                  14.0000     2.24331257     2.22358961     2.72058075
    2 Si                  14.0000     1.61889673     6.86515195     6.63074344
    3 Si                  14.0000     4.00614743     2.22658782     2.72198345
    4 Si                  14.0000    -0.14393812     6.86215374     6.62934075
    5 Mg                  12.0000     0.00000000     0.00000000     0.00000000
    6 Mg                  12.0000     2.98055886     4.50473190     9.35076311
    7 Mg                  12.0000     0.88165045     4.58400965     0.00056108
    8 O                    8.0000     4.24606314     1.81047925     1.09971572
    9 O                    8.0000    -0.38385383     7.27826231     8.25160847
   10 O                    8.0000     3.36977315     6.37948338     1.05295910
   11 O                    8.0000     0.49243616     2.70925818     8.29836509
   12 O                    8.0000     2.48343731     1.80315768     1.09971572
   13 O                    8.0000     1.37877200     7.28558388     8.25160847
   14 O                    8.0000     4.41580527     0.14838784     3.25519595
   15 O                    8.0000    -0.55359596     8.94035372     6.09612824
   16 O                    8.0000     4.31978727     4.73768891     3.26735267
   17 O                    8.0000    -0.45757796     4.35105265     6.08397152
   18 O                    8.0000     3.04632662     2.19609455     3.25800135
   19 O                    8.0000     0.81588268     6.89264701     6.09332284
   20 H                    1.0000     3.24916545     6.57441031     1.89831881
   21 H                    1.0000     0.61304386     2.51433125     7.45300538

      Lattice Parameters 
      ------------------ 

      lattice vectors in angstroms (scale by  1.889725989 to convert to a.u.)

      a1=<   5.290  -0.008   0.000 >
      a2=<   0.000   9.173   0.000 >
      a3=<  -1.428  -0.076   9.351 >
      a=       5.290 b=      9.173 c=       9.460
      alpha=  90.460 beta=  98.680 gamma=  90.090
      omega=   453.8

      reciprocal lattice vectors in a.u.

      b1=<   0.629   0.001   0.000 >
      b2=<   0.000   0.362   0.000 >
      b3=<   0.096   0.003   0.356 >

      Atomic Mass 
      ----------- 

      Si                27.976930
      Mg                23.985040
      O                 15.994910
      H                  1.007825


      Symmetry information
      --------------------

 Group name                    P-1
 Group number              2
 Group order               2
 No. of unique centers    11
 Setting number            1

      Symmetry unique atoms

     1    3    5    6    8   10   12   14   16   18   20

 ==============================================================================
                                internuclear distances
 ------------------------------------------------------------------------------
       center one      |      center two      | atomic units |  angstroms
 ------------------------------------------------------------------------------
    3 Si               |   1 Si               |     3.33128  |     1.76284
    4 Si               |   2 Si               |     3.33128  |     1.76284
    8 O                |   3 Si               |     3.19719  |     1.69188
    9 O                |   4 Si               |     3.19719  |     1.69188
   12 O                |   1 Si               |     3.19673  |     1.69163
   13 O                |   2 Si               |     3.19673  |     1.69163
   18 O                |   1 Si               |     1.82670  |     0.96665
   18 O                |   3 Si               |     2.07827  |     1.09977
   19 O                |   2 Si               |     1.82670  |     0.96665
   19 O                |   4 Si               |     2.07827  |     1.09977
   20 H                |  10 O                |     1.65518  |     0.87589
   21 H                |  11 O                |     1.65518  |     0.87589
 ------------------------------------------------------------------------------
                         number of included internuclear distances:         12
 ==============================================================================



 ==============================================================================
                                 internuclear angles
 ------------------------------------------------------------------------------
        center 1       |       center 2       |       center 3       |  degrees
 ------------------------------------------------------------------------------
    3 Si               |   1 Si               |  12 O                |    81.91
    1 Si               |  18 O                |   3 Si               |   116.95
   12 O                |   1 Si               |  18 O                |   114.06
    4 Si               |   2 Si               |  13 O                |    81.91
    2 Si               |  19 O                |   4 Si               |   116.95
   13 O                |   2 Si               |  19 O                |   114.06
    1 Si               |   3 Si               |   8 O                |    98.08
    3 Si               |  18 O                |   1 Si               |   116.95
    8 O                |   3 Si               |  18 O                |   125.75
    2 Si               |   4 Si               |   9 O                |    98.08
    4 Si               |  19 O                |   2 Si               |   116.95
    9 O                |   4 Si               |  19 O                |   125.75
    1 Si               |  18 O                |   3 Si               |   116.95
    2 Si               |  19 O                |   4 Si               |   116.95
 ------------------------------------------------------------------------------
                            number of included internuclear angles:         14
 ==============================================================================



          ****************************************************
          *                                                  *
          *               NWPW PSPW Calculation              *
          *                                                  *
          *  [ (Grassman/Stiefel manifold implementation) ]  *
          *                                                  *
          *      [ NorthWest Chemistry implementation ]      *
          *                                                  *
          *            version #5.10   06/12/02              *
          *                                                  *
          *    This code was developed by Eric J. Bylaska,   *
          *    and was based upon algorithms and code        *
          *    developed by the group of Prof. John H. Weare *
          *                                                  *
          ****************************************************
     >>>  JOB STARTED       AT Tue Feb 15 10:40:42 2011  <<<
          ================ input data ========================
  library name resolved from: compiled reference
  NWCHEM_NWPW_LIBRARY set to: </Users/d3p852/nwchem-6.0//src/nwpw/libraryps/>
 Generating 1d pseudopotential for Si  

 Generated formatted_filename: ./Si.vpp
  library name resolved from: compiled reference
  NWCHEM_NWPW_LIBRARY set to: </Users/d3p852/nwchem-6.0//src/nwpw/libraryps/>
 Generating 1d pseudopotential for Mg  

 Generated formatted_filename: ./Mg.vpp
  library name resolved from: compiled reference
  NWCHEM_NWPW_LIBRARY set to: </Users/d3p852/nwchem-6.0//src/nwpw/libraryps/>
 Generating 1d pseudopotential for O   

 Generated formatted_filename: ./O.vpp
  library name resolved from: compiled reference
  NWCHEM_NWPW_LIBRARY set to: </Users/d3p852/nwchem-6.0//src/nwpw/libraryps/>
 Generating 1d pseudopotential for H   

 Generated formatted_filename: ./H.vpp
  library name resolved from: compiled reference
  NWCHEM_NWPW_LIBRARY set to: </Users/d3p852/nwchem-6.0//src/nwpw/libraryps/>

 Generated formatted atomic orbitals, filename: ./Si.aorb
  library name resolved from: compiled reference
  NWCHEM_NWPW_LIBRARY set to: </Users/d3p852/nwchem-6.0//src/nwpw/libraryps/>

 Generated formatted atomic orbitals, filename: ./Mg.aorb
  library name resolved from: compiled reference
  NWCHEM_NWPW_LIBRARY set to: </Users/d3p852/nwchem-6.0//src/nwpw/libraryps/>

 Generated formatted atomic orbitals, filename: ./O.aorb
  library name resolved from: compiled reference
  NWCHEM_NWPW_LIBRARY set to: </Users/d3p852/nwchem-6.0//src/nwpw/libraryps/>

 Generated formatted atomic orbitals, filename: ./H.aorb

 lcao guess, initial psi:talc.movecs                                       
 -   spin, nalpha, nbeta:           1          48           0

 input psi filename:./talc.movecs

 initializing pspw_APC data structure
 ------------------------------------
 nga, ngs:           3          63
 Gc      :   2.5000000000000000     
 APC gamma:           1  0.59999999999999998     
 APC gamma:           2  0.90000000000000002     
 APC gamma:           3   1.3500000000000001     

 number of processors used:         1
 processor grid           :   1 x   1
 parallel mapping         :2d hilbert
 parallel mapping         :  balanced

 options:
      boundary conditions  = periodic    (version3)
      electron spin        = restricted
      exchange-correlation = LDA (Vosko et al) parameterization

 elements involved in the cluster:
      1: Si  valence charge:  4.0000  lmax=  2
             comment    : Hamann pseudopotential
             pseudpotential type            :   0
             highest angular component      :   2
             local potential used           :   2
             number of non-local projections:   4
             cutoff =   1.059   1.286   1.286

      2: Mg  valence charge:  2.0000  lmax=  2
             comment    : Troullier-Martins pseudopotential
             pseudpotential type            :   0
             highest angular component      :   2
             local potential used           :   2
             number of non-local projections:   4
             semicore corrections included  :  1.730 (radius)  0.710 (charge)
             cutoff =   2.592   2.592   2.592

      3: O   valence charge:  6.0000  lmax=  2
             comment    : Parameterized (Chem.Phys.Lett., vol 322, page 447) Hamman psp
             pseudpotential type            :   0
             highest angular component      :   2
             local potential used           :   2
             number of non-local projections:   4
             cutoff =   0.700   0.700   0.700

      4: H   valence charge:  1.0000  lmax=  1
             comment    : Parameterized (Chem.Phys.Lett., vol 322, page 447) Hamman psp
             pseudpotential type            :   0
             highest angular component      :   1
             local potential used           :   1
             number of non-local projections:   1
             cutoff =   0.800   0.800


 total charge:   0.000

 atomic composition:
     Si  :  4     Mg  :  3     O   : 12     H   :  2

 number of electrons: spin up=    48 (  48 per task)  down=    48 (  48 per task) (fourier space)
 number of orbitals : spin up=    48 (  48 per task)  down=    48 (  48 per task) (fourier space)

 supercell:
      cell_name:  cell_default                                      
      lattice:    a1=<   9.997  -0.016   0.000 >
                  a2=<   0.000  17.334   0.000 >
                  a3=<  -2.698  -0.144  17.671 >
      reciprocal: b1=<   0.629  -0.000   0.096 >
                  b2=<   0.001   0.362   0.003 >
                  b3=<  -0.000   0.000   0.356 >
      lattice:    a=       9.997 b=     17.334 c=      17.877
                  alpha=  90.460 beta=  98.680 gamma=  90.090
                  omega=      3062.2

      density cutoff=  4.045  fft= 16x 16x 16(      595 waves      595 per task)
      wavefnc cutoff=  4.045  fft= 16x 16x 16(      595 waves      595 per task)
      ewald summation: cut radius=    3.18  and  8
                        madelung= 1.56123651

 technical parameters:
      time step=      5.80     ficticious mass=  400000.0
      tolerance=.100E-06 (energy)   0.100E-06 (density)
      maximum iterations =    1000 (   10 inner  100 outer )





== Energy Calculation ==


          ============ Grassmann lmbfgs iteration ============
     >>>  ITERATION STARTED AT Tue Feb 15 10:41:15 2011  <<<
    iter.           Energy         DeltaE       DeltaRho 
    ------------------------------------------------------
     -  15 steepest descent iterations performed
      10   -0.1822447126E+03   -0.42241E-02    0.14516E+00
     -  10 steepest descent iterations performed
      20   -0.1822577999E+03   -0.40534E-03    0.11246E-02
      30   -0.1822593594E+03   -0.10700E-03    0.97992E-04
      40   -0.1822629844E+03   -0.43028E-03    0.96972E-03
     -  10 steepest descent iterations performed
      50   -0.1822664191E+03   -0.24563E-03    0.27637E-03
      60   -0.1822675692E+03   -0.83895E-04    0.17586E-03
      70   -0.1822680550E+03   -0.25312E-04    0.65844E-04
      80   -0.1822681888E+03   -0.55300E-05    0.15343E-04
      90   -0.1822683086E+03   -0.30914E-04    0.32794E-04
     -  10 steepest descent iterations performed
     100   -0.1822686853E+03   -0.73325E-04    0.38409E-04
     -  10 steepest descent iterations performed
     110   -0.1822692327E+03   -0.79050E-04    0.36740E-04
     -  10 steepest descent iterations performed
     120   -0.1822700109E+03   -0.90574E-04    0.71675E-04
     -  10 steepest descent iterations performed
     130   -0.1822709059E+03   -0.89743E-04    0.46606E-04
     140   -0.1822739503E+03   -0.35501E-03    0.64230E-03
     -  10 steepest descent iterations performed
     150   -0.1822759021E+03   -0.32176E-03    0.17048E-03
     160   -0.1822809467E+03   -0.54849E-03    0.12692E-02
     -  10 steepest descent iterations performed
     170   -0.1822830793E+03   -0.86930E-04    0.23384E-03
     180   -0.1822840131E+03   -0.39920E-04    0.10702E-03
     190   -0.1822841654E+03   -0.38636E-05    0.15308E-04
     200   -0.1822841882E+03   -0.11342E-05    0.18848E-05
     210   -0.1822841947E+03   -0.20397E-06    0.59818E-06
     220   -0.1822841953E+03   -0.77152E-07    0.22179E-07
  *** tolerance ok. iteration terminated
     >>>  ITERATION ENDED   AT Tue Feb 15 10:41:52 2011  <<<


==  Summary Of Results  ==

 number of electrons: spin up=   48.00000  down=   48.00000 (real space)

 total     energy    :  -0.1822841953E+03 (   -0.86802E+01/ion)
 total orbital energy:  -0.3766991904E+02 (   -0.78479E+00/electron)
 hartree   energy    :   0.9433287245E+02 (    0.19653E+01/electron)
 exc-corr  energy    :  -0.4236000064E+02 (   -0.88250E+00/electron)
 ion-ion   energy    :  -0.6255091910E+02 (   -0.29786E+01/ion)

 kinetic (planewave) :   0.8996129401E+02 (    0.18742E+01/electron)
 V_local (planewave) :  -0.2803591667E+03 (   -0.58408E+01/electron)
 V_nl    (planewave) :   0.1869172469E+02 (    0.38941E+00/electron)
 V_Coul  (planewave) :   0.1886657449E+03 (    0.39305E+01/electron)
 V_xc.   (planewave) :  -0.5462951590E+02 (   -0.11381E+01/electron)
 Virial Coefficient  :  -0.1418734740E+01

 orbital energies:
     0.3117443E-01 (   0.848eV)
     0.2588208E-01 (   0.704eV)
     0.2579543E-01 (   0.702eV)
     0.1674405E-01 (   0.456eV)
     0.5304730E-02 (   0.144eV)
    -0.3985475E-02 (  -0.108eV)
    -0.1003095E-01 (  -0.273eV)
    -0.1294370E-01 (  -0.352eV)
    -0.1407237E-01 (  -0.383eV)
    -0.2221366E-01 (  -0.604eV)
    -0.2558191E-01 (  -0.696eV)
    -0.2798688E-01 (  -0.762eV)
    -0.3970592E-01 (  -1.080eV)
    -0.5804046E-01 (  -1.579eV)
    -0.5927253E-01 (  -1.613eV)
    -0.6546514E-01 (  -1.781eV)
    -0.9346230E-01 (  -2.543eV)
    -0.9554620E-01 (  -2.600eV)
    -0.1039639E+00 (  -2.829eV)
    -0.1095193E+00 (  -2.980eV)
    -0.1731315E+00 (  -4.711eV)
    -0.1778630E+00 (  -4.840eV)
    -0.1954484E+00 (  -5.318eV)
    -0.1961663E+00 (  -5.338eV)
    -0.2249851E+00 (  -6.122eV)
    -0.2336422E+00 (  -6.358eV)
    -0.2834303E+00 (  -7.713eV)
    -0.2868390E+00 (  -7.805eV)
    -0.3136683E+00 (  -8.535eV)
    -0.3247655E+00 (  -8.837eV)
    -0.4383607E+00 ( -11.928eV)
    -0.4405334E+00 ( -11.988eV)
    -0.5167203E+00 ( -14.061eV)
    -0.5169662E+00 ( -14.067eV)
    -0.7047714E+00 ( -19.178eV)
    -0.7051171E+00 ( -19.187eV)
    -0.7904042E+00 ( -21.508eV)
    -0.7912259E+00 ( -21.531eV)
    -0.8089961E+00 ( -22.014eV)
    -0.8093373E+00 ( -22.023eV)
    -0.9770256E+00 ( -26.586eV)
    -0.9788069E+00 ( -26.635eV)
    -0.1012283E+01 ( -27.546eV)
    -0.1012648E+01 ( -27.556eV)
    -0.1127386E+01 ( -30.678eV)
    -0.1128864E+01 ( -30.718eV)
    -0.1513952E+01 ( -41.197eV)
    -0.1514732E+01 ( -41.218eV)

 Total PSPW energy   :  -0.1822841953E+03


=== Spin Contamination ===

 <Sexact^2> =    0.0000000000000000     
 <S^2>      =    0.0000000000000000     



== Center of Charge ==

spin up     (   -0.0000,    0.0000,   -0.0000 )
spin down   (   -0.0000,    0.0000,   -0.0000 )
     total  (   -0.0000,    0.0000,   -0.0000 )
ionic       (    0.0000,    0.0000,   -0.0000 )
crystal     (   -0.0000,   -0.0000,    0.0000 )


== Crystal Dipole ==

mu   =  (    0.0003,   -0.0007,    0.0015 ) au
|mu| =     0.0017 au,       0.0043 Debye


== Molecular Dipole wrt Center of Mass ==

mu   =  (    0.0003,   -0.0007,    0.0015 ) au
|mu| =     0.0017 au,       0.0043 Debye

== Si.psp1   expansion coefficients ==

ATOM       S            P            D            F
Si :   0.21389E+00 -0.31100E-03



== Mg.psp1   expansion coefficients ==

ATOM       S            P            D            F
Mg :   0.17043E+00 -0.97742E-05



== O.psp1   expansion coefficients ==

ATOM       S            P            D            F
O  :   0.13715E+01 -0.62783E-02



== H.psp1   expansion coefficients ==

ATOM       S            P            D            F
H  :   0.12780E+01





 *************************************************************
 **                                                         **
 **                  PSPW Mulliken analysis                 **
 **                                                         **
 ** Population analysis algorithm devloped by Ryoichi Kawai **
 **                                                         **
 **                   Tue Feb 15 10:41                      **
 **                                                         **
 *************************************************************


== XYZ OUTPUT ==


          21

Si           -3.046679      2.231898      2.720579
Si            3.046679     -2.231898     -2.720579
Si           -1.283845      2.234896      2.721982
Si            1.283845     -2.234896     -2.721982
Mg            0.000000      0.000000      0.000000
Mg           -0.881650     -4.584007     -0.000561
Mg            0.881650      4.584007      0.000561
O            -1.043930      1.818788      1.099715
O             1.043930     -1.818788     -1.099715
O            -1.920219     -2.785206      1.052959
O             1.920219      2.785206     -1.052959
O            -2.806555      1.811466      1.099715
O             2.806555     -1.811466     -1.099715
O            -0.874188      0.156697      3.255194
O             0.874188     -0.156697     -3.255194
O            -0.970206     -4.426999      3.267351
O             0.970206      4.426999     -3.267351
O            -2.243666      2.204403      3.258000
O             2.243666     -2.204403     -3.258000
H            -2.040827     -2.590279      1.898318
H             2.040827      2.590279     -1.898318


 =====================================================
 | POPULATION ANALYSIS OF FILLED MOLECULAR ORBITALS  |
 =====================================================


== Using pseudoatomic orbital expansion          ==


------------------------------------------------------------------------------


*** ORBITAL=   1***  SPIN=BOTH    SUM= 0.93686E+00 E= 0.31174E-01 (   0.848eV)

NO  ATOM  L  POPULATION
                                s
 1   Si     0    0.00001    0.00345
                               px         py         pz
 1   Si     1    0.00498    0.06211   -0.00454    0.03317
                                s
 2   Si     0    0.00001   -0.00376
                               px         py         pz
 2   Si     1    0.00499    0.06214   -0.00495    0.03330
                                s
 3   Si     0    0.00288   -0.05365
                               px         py         pz
 3   Si     1    0.00079    0.02207    0.01609    0.00665
                                s
 4   Si     0    0.00292    0.05404
                               px         py         pz
 4   Si     1    0.00083    0.02310    0.01596    0.00672
                                s
 5   Mg     0    0.00000    0.00038
                               px         py         pz
 5   Mg     1    0.00438   -0.05488   -0.01127   -0.03520
                                s
 6   Mg     0    0.00065   -0.02548
                               px         py         pz
 6   Mg     1    0.00747    0.05302   -0.00206    0.06822
                                s
 7   Mg     0    0.00065    0.02548
                               px         py         pz
 7   Mg     1    0.00745    0.05289   -0.00195    0.06817
                                s
 8   O      0    0.00000    0.00169
                               px         py         pz
 8   O      1    0.00627    0.07851   -0.00340   -0.00962
                                s
 9   O      0    0.00000   -0.00172
                               px         py         pz
 9   O      1    0.00638    0.07924   -0.00343   -0.00969
                                s
10   O      0    0.00007   -0.00825
                               px         py         pz
10   O      1    0.00710   -0.01372    0.08024   -0.02180
                                s
11   O      0    0.00007    0.00830
                               px         py         pz
11   O      1    0.00717   -0.01432    0.08050   -0.02209
                                s
12   O      0    0.00001   -0.00360
                               px         py         pz
12   O      1    0.00946    0.09653    0.01186   -0.00233
                                s
13   O      0    0.00001    0.00357
                               px         py         pz
13   O      1    0.00965    0.09750    0.01188   -0.00204
                                s
14   O      0    0.00001    0.00326
                               px         py         pz
14   O      1    0.09632    0.30640    0.04877   -0.00766
                                s
15   O      0    0.00001   -0.00326
                               px         py         pz
15   O      1    0.09723    0.30788    0.04885   -0.00736
                                s
16   O      0    0.00003   -0.00523
                               px         py         pz
16   O      1    0.35906   -0.58538    0.09606   -0.08463
                                s
17   O      0    0.00003    0.00527
                               px         py         pz
17   O      1    0.35834   -0.58467    0.09656   -0.08475
                                s
18   O      0    0.00005   -0.00698
                               px         py         pz
18   O      1    0.00007    0.00025   -0.00713    0.00452
                                s
19   O      0    0.00005    0.00695
                               px         py         pz
19   O      1    0.00007    0.00029   -0.00720    0.00460
                                s
20   H      0    0.00226   -0.04752
                                s
21   H      0    0.00225    0.04743


=== DISTRIBUTION ===

     1(Si  )   0.0050     2(Si  )   0.0050     3(Si  )   0.0037     4(Si  )   0.0038
     5(Mg  )   0.0044     6(Mg  )   0.0081     7(Mg  )   0.0081     8(O   )   0.0063
     9(O   )   0.0064    10(O   )   0.0072    11(O   )   0.0072    12(O   )   0.0095
    13(O   )   0.0097    14(O   )   0.0963    15(O   )   0.0972    16(O   )   0.3591
    17(O   )   0.3584    18(O   )   0.0001    19(O   )   0.0001    20(H   )   0.0023
    21(H   )   0.0022


== ANGULAR MOMENTUM POPULATIONS ===

      s         p         d         f
    0.0120    0.9880    0.0000    0.0000


------------------------------------------------------------------------------


*** ORBITAL=   2***  SPIN=BOTH    SUM= 0.92376E+00 E= 0.25882E-01 (   0.704eV)

NO  ATOM  L  POPULATION
                                s
 1   Si     0    0.00452   -0.06721
                               px         py         pz
 1   Si     1    0.01261    0.04362    0.10312    0.00856
                                s
 2   Si     0    0.00951   -0.09751
                               px         py         pz
 2   Si     1    0.01858   -0.04232   -0.12935   -0.00759
                                s
 3   Si     0    0.00248    0.04983
                               px         py         pz
 3   Si     1    0.05325   -0.22387    0.05592   -0.00230
                                s
 4   Si     0    0.00271    0.05204
                               px         py         pz
 4   Si     1    0.07774    0.27262   -0.05824    0.00496
                                s
 5   Mg     0    0.03797    0.19485
                               px         py         pz
 5   Mg     1    0.00047   -0.00642   -0.00878   -0.01879
                                s
 6   Mg     0    0.00000    0.00090
                               px         py         pz
 6   Mg     1    0.00427    0.05834   -0.02280   -0.01868
                                s
 7   Mg     0    0.00004    0.00617
                               px         py         pz
 7   Mg     1    0.00211   -0.04436    0.01096   -0.00420
                                s
 8   O      0    0.00001   -0.00257
                               px         py         pz
 8   O      1    0.00829   -0.08870   -0.00664    0.01948
                                s
 9   O      0    0.00001   -0.00301
                               px         py         pz
 9   O      1    0.01338    0.11284    0.00786   -0.02426
                                s
10   O      0    0.00012    0.01088
                               px         py         pz
10   O      1    0.03505    0.16224   -0.06176    0.07009
                                s
11   O      0    0.00002    0.00498
                               px         py         pz
11   O      1    0.02864   -0.16058    0.01615   -0.05093
                                s
12   O      0    0.00005   -0.00731
                               px         py         pz
12   O      1    0.02449   -0.14409   -0.00256   -0.06101
                                s
13   O      0    0.00010   -0.01024
                               px         py         pz
13   O      1    0.03752    0.17467    0.00412    0.08364
                                s
14   O      0    0.00000   -0.00104
                               px         py         pz
14   O      1    0.13506   -0.36313   -0.04711   -0.03128
                                s
15   O      0    0.00000   -0.00087
                               px         py         pz
15   O      1    0.22547    0.47049    0.05768    0.02794
                                s
16   O      0    0.00009    0.00941
                               px         py         pz
16   O      1    0.11059   -0.31998   -0.08628    0.02755
                                s
17   O      0    0.00006    0.00804
                               px         py         pz
17   O      1    0.15020    0.38167    0.06449   -0.01918
                                s
18   O      0    0.00011   -0.01061
                               px         py         pz
18   O      1    0.00063   -0.01221    0.01539   -0.01574
                                s
19   O      0    0.00020   -0.01414
                               px         py         pz
19   O      1    0.00096    0.01369   -0.01824    0.02105
                                s
20   H      0    0.00102   -0.03193
                                s
21   H      0    0.00165   -0.04059


=== DISTRIBUTION ===

     1(Si  )   0.0171     2(Si  )   0.0281     3(Si  )   0.0557     4(Si  )   0.0804
     5(Mg  )   0.0384     6(Mg  )   0.0043     7(Mg  )   0.0021     8(O   )   0.0083
     9(O   )   0.0134    10(O   )   0.0352    11(O   )   0.0287    12(O   )   0.0245
    13(O   )   0.0376    14(O   )   0.1351    15(O   )   0.2255    16(O   )   0.1107
    17(O   )   0.1503    18(O   )   0.0007    19(O   )   0.0012    20(H   )   0.0010
    21(H   )   0.0016


== ANGULAR MOMENTUM POPULATIONS ===

      s         p         d         f
    0.0607    0.9393    0.0000    0.0000


------------------------------------------------------------------------------


*** ORBITAL=   3***  SPIN=BOTH    SUM= 0.94259E+00 E= 0.25795E-01 (   0.702eV)

NO  ATOM  L  POPULATION
                                s
 1   Si     0    0.01964   -0.14016
                               px         py         pz
 1   Si     1    0.01599   -0.00152    0.12639   -0.00389
                                s
 2   Si     0    0.01478    0.12157
                               px         py         pz
 2   Si     1    0.01023   -0.01198    0.10026   -0.00563
                                s
 3   Si     0    0.00026    0.01604
                               px         py         pz
 3   Si     1    0.05751   -0.23895    0.01612   -0.01213
                                s
 4   Si     0    0.00002   -0.00479
                               px         py         pz
 4   Si     1    0.03341   -0.18242    0.00331   -0.01093
                                s
 5   Mg     0    0.00044    0.02100
                               px         py         pz
 5   Mg     1    0.03539    0.05628    0.07614    0.16255
                                s
 6   Mg     0    0.00056    0.02375
                               px         py         pz
 6   Mg     1    0.01475   -0.05503    0.04911    0.09650
                                s
 7   Mg     0    0.00051   -0.02253
                               px         py         pz
 7   Mg     1    0.01701   -0.06734    0.05294    0.09834
                                s
 8   O      0    0.00000   -0.00221
                               px         py         pz
 8   O      1    0.01427   -0.11704   -0.00600    0.02321
                                s
 9   O      0    0.00000    0.00158
                               px         py         pz
 9   O      1    0.00928   -0.09448   -0.00441    0.01825
                                s
10   O      0    0.00060   -0.02449
                               px         py         pz
10   O      1    0.04246    0.01128    0.19133   -0.07564
                                s
11   O      0    0.00069    0.02630
                               px         py         pz
11   O      1    0.04891   -0.02551    0.20064   -0.08945
                                s
12   O      0    0.00018   -0.01360
                               px         py         pz
12   O      1    0.03428   -0.15169   -0.00735   -0.10592
                                s
13   O      0    0.00013    0.01157
                               px         py         pz
13   O      1    0.02148   -0.11591   -0.00653   -0.08947
                                s
14   O      0    0.00000    0.00059
                               px         py         pz
14   O      1    0.26835   -0.51527   -0.05208    0.01177
                                s
15   O      0    0.00000   -0.00080
                               px         py         pz
15   O      1    0.17919   -0.42100   -0.04040    0.01789
                                s
16   O      0    0.00002   -0.00487
                               px         py         pz
16   O      1    0.09661   -0.29745    0.08420   -0.03227
                                s
17   O      0    0.00005    0.00685
                               px         py         pz
17   O      1    0.05833   -0.21621    0.10089   -0.03748
                                s
18   O      0    0.00027   -0.01655
                               px         py         pz
18   O      1    0.00090   -0.00790    0.01429   -0.02509
                                s
19   O      0    0.00019    0.01370
                               px         py         pz
19   O      1    0.00058   -0.00496    0.01056   -0.02097
                                s
20   H      0    0.00166   -0.04073
                                s
21   H      0    0.00105    0.03238


=== DISTRIBUTION ===

     1(Si  )   0.0356     2(Si  )   0.0250     3(Si  )   0.0578     4(Si  )   0.0334
     5(Mg  )   0.0358     6(Mg  )   0.0153     7(Mg  )   0.0175     8(O   )   0.0143
     9(O   )   0.0093    10(O   )   0.0431    11(O   )   0.0496    12(O   )   0.0345
    13(O   )   0.0216    14(O   )   0.2684    15(O   )   0.1792    16(O   )   0.0966
    17(O   )   0.0584    18(O   )   0.0012    19(O   )   0.0008    20(H   )   0.0017
    21(H   )   0.0010


== ANGULAR MOMENTUM POPULATIONS ===

      s         p         d         f
    0.0411    0.9589    0.0000    0.0000


------------------------------------------------------------------------------


*** ORBITAL=   4***  SPIN=BOTH    SUM= 0.89547E+00 E= 0.16744E-01 (   0.456eV)

NO  ATOM  L  POPULATION
                                s
 1   Si     0    0.01057    0.10279
                               px         py         pz
 1   Si     1    0.05011    0.18975    0.00100   -0.11877
                                s
 2   Si     0    0.01061    0.10301
                               px         py         pz
 2   Si     1    0.05018   -0.18994   -0.00095    0.11875
                                s
 3   Si     0    0.00399    0.06318
                               px         py         pz
 3   Si     1    0.03296   -0.13136   -0.05549   -0.11236
                                s
 4   Si     0    0.00400    0.06323
                               px         py         pz
 4   Si     1    0.03294    0.13128    0.05552    0.11234
                                s
 5   Mg     0    0.01098   -0.10478
                               px         py         pz
 5   Mg     1    0.00000   -0.00002    0.00009    0.00011
                                s
 6   Mg     0    0.11977   -0.34608
                               px         py         pz
 6   Mg     1    0.00783   -0.08763    0.00584   -0.01097
                                s
 7   Mg     0    0.11979   -0.34610
                               px         py         pz
 7   Mg     1    0.00783    0.08759   -0.00591    0.01115
                                s
 8   O      0    0.00001    0.00381
                               px         py         pz
 8   O      1    0.00227    0.01812   -0.02815    0.03387
                                s
 9   O      0    0.00001    0.00381
                               px         py         pz
 9   O      1    0.00227   -0.01832    0.02813   -0.03387
                                s
10   O      0    0.00026   -0.01614
                               px         py         pz
10   O      1    0.15540   -0.25941    0.27998   -0.09860
                                s
11   O      0    0.00026   -0.01611
                               px         py         pz
11   O      1    0.15528    0.25940   -0.27981    0.09850
                                s
12   O      0    0.00015    0.01220
                               px         py         pz
12   O      1    0.00674   -0.01816   -0.03101    0.07379
                                s
13   O      0    0.00015    0.01222
                               px         py         pz
13   O      1    0.00675    0.01799    0.03102   -0.07395
                                s
14   O      0    0.00000   -0.00010
                               px         py         pz
14   O      1    0.08925   -0.23340    0.11774    0.14459
                                s
15   O      0    0.00000   -0.00010
                               px         py         pz
15   O      1    0.08924    0.23331   -0.11791   -0.14460
                                s
16   O      0    0.00001    0.00277
                               px         py         pz
16   O      1    0.01125    0.08403   -0.05470    0.03462
                                s
17   O      0    0.00001    0.00278
                               px         py         pz
17   O      1    0.01127   -0.08406    0.05484   -0.03459
                                s
18   O      0    0.00003    0.00564
                               px         py         pz
18   O      1    0.00038   -0.00536    0.01433    0.01208
                                s
19   O      0    0.00003    0.00566
                               px         py         pz
19   O      1    0.00038    0.00536   -0.01434   -0.01212
                                s
20   H      0    0.00352   -0.05929
                                s
21   H      0    0.00352   -0.05931


=== DISTRIBUTION ===

     1(Si  )   0.0607     2(Si  )   0.0608     3(Si  )   0.0370     4(Si  )   0.0369
     5(Mg  )   0.0110     6(Mg  )   0.1276     7(Mg  )   0.1276     8(O   )   0.0023
     9(O   )   0.0023    10(O   )   0.1557    11(O   )   0.1555    12(O   )   0.0069
    13(O   )   0.0069    14(O   )   0.0892    15(O   )   0.0892    16(O   )   0.0113
    17(O   )   0.0113    18(O   )   0.0004    19(O   )   0.0004    20(H   )   0.0035
    21(H   )   0.0035


== ANGULAR MOMENTUM POPULATIONS ===

      s         p         d         f
    0.2877    0.7123    0.0000    0.0000


------------------------------------------------------------------------------


*** ORBITAL=   5***  SPIN=BOTH    SUM= 0.10369E+01 E= 0.53047E-02 (   0.144eV)

NO  ATOM  L  POPULATION
                                s
 1   Si     0    0.02733    0.16531
                               px         py         pz
 1   Si     1    0.10182    0.31706   -0.03340   -0.01330
                                s
 2   Si     0    0.02737   -0.16545
                               px         py         pz
 2   Si     1    0.10172    0.31691   -0.03338   -0.01319
                                s
 3   Si     0    0.00235    0.04853
                               px         py         pz
 3   Si     1    0.02221   -0.14822   -0.01297   -0.00834
                                s
 4   Si     0    0.00237   -0.04868
                               px         py         pz
 4   Si     1    0.02215   -0.14805   -0.01293   -0.00811
                                s
 5   Mg     0    0.00000   -0.00058
                               px         py         pz
 5   Mg     1    0.04675    0.10076   -0.06766   -0.17894
                                s
 6   Mg     0    0.00416   -0.06451
                               px         py         pz
 6   Mg     1    0.04890    0.08356    0.02004   -0.20376
                                s
 7   Mg     0    0.00413    0.06426
                               px         py         pz
 7   Mg     1    0.04884    0.08334    0.02007   -0.20370
                                s
 8   O      0    0.00000   -0.00138
                               px         py         pz
 8   O      1    0.00973    0.09843    0.00554   -0.00311
                                s
 9   O      0    0.00000    0.00140
                               px         py         pz
 9   O      1    0.00973    0.09842    0.00565   -0.00322
                                s
10   O      0    0.00068    0.02615
                               px         py         pz
10   O      1    0.10569    0.22610   -0.19205    0.13299
                                s
11   O      0    0.00068   -0.02617
                               px         py         pz
11   O      1    0.10589    0.22643   -0.19213    0.13307
                                s
12   O      0    0.00014    0.01176
                               px         py         pz
12   O      1    0.01148    0.02928   -0.02696    0.09946
                                s
13   O      0    0.00014   -0.01177
                               px         py         pz
13   O      1    0.01149    0.02921   -0.02691    0.09955
                                s
14   O      0    0.00000   -0.00141
                               px         py         pz
14   O      1    0.09032   -0.24933    0.15209    0.07086
                                s
15   O      0    0.00000    0.00141
                               px         py         pz
15   O      1    0.09020   -0.24920    0.15219    0.07028
                                s
16   O      0    0.00017    0.01311
                               px         py         pz
16   O      1    0.05053   -0.15637   -0.16138   -0.00573
                                s
17   O      0    0.00017   -0.01313
                               px         py         pz
17   O      1    0.05048   -0.15577   -0.16180   -0.00562
                                s
18   O      0    0.00000    0.00192
                               px         py         pz
18   O      1    0.00110   -0.00621    0.01823    0.02703
                                s
19   O      0    0.00000   -0.00194
                               px         py         pz
19   O      1    0.00110   -0.00621    0.01826    0.02701
                                s
20   H      0    0.00008   -0.00896
                                s
21   H      0    0.00008    0.00874


=== DISTRIBUTION ===

     1(Si  )   0.1292     2(Si  )   0.1291     3(Si  )   0.0246     4(Si  )   0.0245
     5(Mg  )   0.0468     6(Mg  )   0.0531     7(Mg  )   0.0530     8(O   )   0.0097
     9(O   )   0.0097    10(O   )   0.1064    11(O   )   0.1066    12(O   )   0.0116
    13(O   )   0.0116    14(O   )   0.0903    15(O   )   0.0902    16(O   )   0.0507
    17(O   )   0.0506    18(O   )   0.0011    19(O   )   0.0011    20(H   )   0.0001
    21(H   )   0.0001


== ANGULAR MOMENTUM POPULATIONS ===

      s         p         d         f
    0.0699    0.9301    0.0000    0.0000


------------------------------------------------------------------------------


*** ORBITAL=   6***  SPIN=BOTH    SUM= 0.93151E+00 E=-0.39855E-02 (  -0.108eV)

NO  ATOM  L  POPULATION
                                s
 1   Si     0    0.00585   -0.07647
                               px         py         pz
 1   Si     1    0.01299   -0.10487   -0.04346   -0.01018
                                s
 2   Si     0    0.00584   -0.07645
                               px         py         pz
 2   Si     1    0.01296    0.10477    0.04340    0.01014
                                s
 3   Si     0    0.00174    0.04168
                               px         py         pz
 3   Si     1    0.02898   -0.04595   -0.16389   -0.00333
                                s
 4   Si     0    0.00173    0.04162
                               px         py         pz
 4   Si     1    0.02902    0.04590    0.16400    0.00334
                                s
 5   Mg     0    0.01172    0.10828
                               px         py         pz
 5   Mg     1    0.00000   -0.00003    0.00002    0.00000
                                s
 6   Mg     0    0.02839    0.16849
                               px         py         pz
 6   Mg     1    0.00905    0.07323   -0.05383    0.02815
                                s
 7   Mg     0    0.02839    0.16849
                               px         py         pz
 7   Mg     1    0.00907   -0.07323    0.05397   -0.02819
                                s
 8   O      0    0.00023   -0.01506
                               px         py         pz
 8   O      1    0.02845   -0.09399    0.11997   -0.07228
                                s
 9   O      0    0.00023   -0.01507
                               px         py         pz
 9   O      1    0.02846    0.09381   -0.12009    0.07235
                                s
10   O      0    0.00035   -0.01875
                               px         py         pz
10   O      1    0.03881   -0.16139    0.06717   -0.09082
                                s
11   O      0    0.00035   -0.01875
                               px         py         pz
11   O      1    0.03887    0.16163   -0.06705    0.09082
                                s
12   O      0    0.00012    0.01075
                               px         py         pz
12   O      1    0.01909   -0.09530   -0.09688    0.02501
                                s
13   O      0    0.00012    0.01075
                               px         py         pz
13   O      1    0.01907    0.09509    0.09697   -0.02508
                                s
14   O      0    0.00001    0.00245
                               px         py         pz
14   O      1    0.09500   -0.05269    0.29655   -0.06545
                                s
15   O      0    0.00001    0.00245
                               px         py         pz
15   O      1    0.09525    0.05274   -0.29694    0.06550
                                s
16   O      0    0.00084   -0.02896
                               px         py         pz
16   O      1    0.22249   -0.02835    0.35067   -0.31418
                                s
17   O      0    0.00084   -0.02898
                               px         py         pz
17   O      1    0.22268    0.02835   -0.35093    0.31419
                                s
18   O      0    0.00001    0.00283
                               px         py         pz
18   O      1    0.00133   -0.01944    0.02150   -0.02202
                                s
19   O      0    0.00001    0.00283
                               px         py         pz
19   O      1    0.00133    0.01946   -0.02152    0.02201
                                s
20   H      0    0.00018    0.01332
                                s
21   H      0    0.00018    0.01332


=== DISTRIBUTION ===

     1(Si  )   0.0188     2(Si  )   0.0188     3(Si  )   0.0307     4(Si  )   0.0307
     5(Mg  )   0.0117     6(Mg  )   0.0374     7(Mg  )   0.0375     8(O   )   0.0287
     9(O   )   0.0287    10(O   )   0.0392    11(O   )   0.0392    12(O   )   0.0192
    13(O   )   0.0192    14(O   )   0.0950    15(O   )   0.0953    16(O   )   0.2233
    17(O   )   0.2235    18(O   )   0.0013    19(O   )   0.0013    20(H   )   0.0002
    21(H   )   0.0002


== ANGULAR MOMENTUM POPULATIONS ===

      s         p         d         f
    0.0871    0.9129    0.0000    0.0000


------------------------------------------------------------------------------


*** ORBITAL=   7***  SPIN=BOTH    SUM= 0.94983E+00 E=-0.10031E-01 (  -0.273eV)

NO  ATOM  L  POPULATION
                                s
 1   Si     0    0.03569    0.18893
                               px         py         pz
 1   Si     1    0.05173    0.22366   -0.03941    0.01260
                                s
 2   Si     0    0.03585    0.18933
                               px         py         pz
 2   Si     1    0.05177   -0.22374    0.03931   -0.01271
                                s
 3   Si     0    0.00035    0.01862
                               px         py         pz
 3   Si     1    0.00275    0.01759   -0.04925   -0.00387
                                s
 4   Si     0    0.00035    0.01870
                               px         py         pz
 4   Si     1    0.00285   -0.01801    0.05009    0.00387
                                s
 5   Mg     0    0.02138    0.14620
                               px         py         pz
 5   Mg     1    0.00000   -0.00007    0.00018    0.00012
                                s
 6   Mg     0    0.05200    0.22803
                               px         py         pz
 6   Mg     1    0.00087   -0.02207    0.01313   -0.01441
                                s
 7   Mg     0    0.05207    0.22819
                               px         py         pz
 7   Mg     1    0.00088    0.02223   -0.01310    0.01469
                                s
 8   O      0    0.00022   -0.01479
                               px         py         pz
 8   O      1    0.05536    0.13664    0.15209   -0.11645
                                s
 9   O      0    0.00022   -0.01483
                               px         py         pz
 9   O      1    0.05570   -0.13695   -0.15264    0.11680
                                s
10   O      0    0.00000   -0.00142
                               px         py         pz
10   O      1    0.02429    0.15311   -0.02905   -0.00256
                                s
11   O      0    0.00000   -0.00151
                               px         py         pz
11   O      1    0.02377   -0.15159    0.02803    0.00318
                                s
12   O      0    0.00007    0.00806
                               px         py         pz
12   O      1    0.02247    0.11256   -0.01598    0.09767
                                s
13   O      0    0.00007    0.00806
                               px         py         pz
13   O      1    0.02256   -0.11293    0.01592   -0.09776
                                s
14   O      0    0.00000   -0.00127
                               px         py         pz
14   O      1    0.18292   -0.08988    0.29396   -0.29737
                                s
15   O      0    0.00000   -0.00127
                               px         py         pz
15   O      1    0.18442    0.09007   -0.29598    0.29783
                                s
16   O      0    0.00021    0.01441
                               px         py         pz
16   O      1    0.04461    0.00673   -0.16922    0.12619
                                s
17   O      0    0.00020    0.01428
                               px         py         pz
17   O      1    0.04394   -0.00751    0.16794   -0.12522
                                s
18   O      0    0.00008    0.00880
                               px         py         pz
18   O      1    0.00066   -0.01135    0.02303    0.00182
                                s
19   O      0    0.00008    0.00887
                               px         py         pz
19   O      1    0.00067    0.01145   -0.02307   -0.00184
                                s
20   H      0    0.01448    0.12032
                                s
21   H      0    0.01448    0.12033


=== DISTRIBUTION ===

     1(Si  )   0.0874     2(Si  )   0.0876     3(Si  )   0.0031     4(Si  )   0.0032
     5(Mg  )   0.0214     6(Mg  )   0.0529     7(Mg  )   0.0530     8(O   )   0.0556
     9(O   )   0.0559    10(O   )   0.0243    11(O   )   0.0238    12(O   )   0.0225
    13(O   )   0.0226    14(O   )   0.1829    15(O   )   0.1844    16(O   )   0.0448
    17(O   )   0.0441    18(O   )   0.0007    19(O   )   0.0007    20(H   )   0.0145
    21(H   )   0.0145


== ANGULAR MOMENTUM POPULATIONS ===

      s         p         d         f
    0.2278    0.7722    0.0000    0.0000


------------------------------------------------------------------------------


*** ORBITAL=   8***  SPIN=BOTH    SUM= 0.93217E+00 E=-0.12944E-01 (  -0.352eV)

NO  ATOM  L  POPULATION
                                s
 1   Si     0    0.01134   -0.10649
                               px         py         pz
 1   Si     1    0.00641   -0.07682   -0.02068   -0.00920
                                s
 2   Si     0    0.01114    0.10554
                               px         py         pz
 2   Si     1    0.00625   -0.07568   -0.02095   -0.00914
                                s
 3   Si     0    0.00175   -0.04182
                               px         py         pz
 3   Si     1    0.02667   -0.02378    0.16152    0.00414
                                s
 4   Si     0    0.00174    0.04168
                               px         py         pz
 4   Si     1    0.02655   -0.02375    0.16114    0.00408
                                s
 5   Mg     0    0.00000   -0.00033
                               px         py         pz
 5   Mg     1    0.01988    0.01412    0.10586    0.09207
                                s
 6   Mg     0    0.00078   -0.02785
                               px         py         pz
 6   Mg     1    0.01360    0.04337    0.02383    0.10561
                                s
 7   Mg     0    0.00070    0.02655
                               px         py         pz
 7   Mg     1    0.01358    0.04325    0.02386    0.10554
                                s
 8   O      0    0.00006    0.00755
                               px         py         pz
 8   O      1    0.01618   -0.05564   -0.09832    0.05842
                                s
 9   O      0    0.00006   -0.00747
                               px         py         pz
 9   O      1    0.01586   -0.05491   -0.09749    0.05782
                                s
10   O      0    0.00004    0.00614
                               px         py         pz
10   O      1    0.15315    0.37964   -0.02898    0.09046
                                s
11   O      0    0.00004   -0.00610
                               px         py         pz
11   O      1    0.15367    0.38037   -0.02887    0.09032
                                s
12   O      0    0.00001   -0.00341
                               px         py         pz
12   O      1    0.00396   -0.05251   -0.00321   -0.03447
                                s
13   O      0    0.00001    0.00335
                               px         py         pz
13   O      1    0.00386   -0.05191   -0.00336   -0.03392
                                s
14   O      0    0.00000   -0.00045
                               px         py         pz
14   O      1    0.17638    0.08781   -0.40672    0.05701
                                s
15   O      0    0.00000    0.00046
                               px         py         pz
15   O      1    0.17475    0.08726   -0.40502    0.05566
                                s
16   O      0    0.00047    0.02170
                               px         py         pz
16   O      1    0.07904   -0.08017   -0.20145    0.17896
                                s
17   O      0    0.00047   -0.02174
                               px         py         pz
17   O      1    0.07933   -0.08026   -0.20196    0.17916
                                s
18   O      0    0.00019   -0.01375
                               px         py         pz
18   O      1    0.00073    0.02159   -0.01221   -0.01061
                                s
19   O      0    0.00019    0.01370
                               px         py         pz
19   O      1    0.00072    0.02151   -0.01209   -0.01060
                                s
20   H      0    0.00024   -0.01544
                                s
21   H      0    0.00022    0.01484


=== DISTRIBUTION ===

     1(Si  )   0.0178     2(Si  )   0.0174     3(Si  )   0.0284     4(Si  )   0.0283
     5(Mg  )   0.0199     6(Mg  )   0.0144     7(Mg  )   0.0143     8(O   )   0.0162
     9(O   )   0.0159    10(O   )   0.1532    11(O   )   0.1537    12(O   )   0.0040
    13(O   )   0.0039    14(O   )   0.1764    15(O   )   0.1748    16(O   )   0.0795
    17(O   )   0.0798    18(O   )   0.0009    19(O   )   0.0009    20(H   )   0.0002
    21(H   )   0.0002


== ANGULAR MOMENTUM POPULATIONS ===

      s         p         d         f
    0.0294    0.9706    0.0000    0.0000


------------------------------------------------------------------------------


*** ORBITAL=   9***  SPIN=BOTH    SUM= 0.99367E+00 E=-0.14072E-01 (  -0.383eV)

NO  ATOM  L  POPULATION
                                s
 1   Si     0    0.00325    0.05702
                               px         py         pz
 1   Si     1    0.00212    0.00458   -0.01724    0.04249
                                s
 2   Si     0    0.00322   -0.05670
                               px         py         pz
 2   Si     1    0.00212    0.00413   -0.01715    0.04254
                                s
 3   Si     0    0.00029   -0.01694
                               px         py         pz
 3   Si     1    0.01621    0.10932   -0.05446    0.03595
                                s
 4   Si     0    0.00029    0.01697
                               px         py         pz
 4   Si     1    0.01624    0.10939   -0.05450    0.03608
                                s
 5   Mg     0    0.00000    0.00008
                               px         py         pz
 5   Mg     1    0.02858    0.16376    0.03314   -0.02583
                                s
 6   Mg     0    0.00034   -0.01845
                               px         py         pz
 6   Mg     1    0.01686    0.08181    0.09775   -0.02479
                                s
 7   Mg     0    0.00035    0.01883
                               px         py         pz
 7   Mg     1    0.01681    0.08158    0.09766   -0.02475
                                s
 8   O      0    0.00000   -0.00031
                               px         py         pz
 8   O      1    0.00754    0.08058    0.02964   -0.01298
                                s
 9   O      0    0.00000    0.00029
                               px         py         pz
 9   O      1    0.00748    0.08029    0.02943   -0.01282
                                s
10   O      0    0.00051   -0.02266
                               px         py         pz
10   O      1    0.36063    0.38248    0.46248   -0.02134
                                s
11   O      0    0.00051    0.02266
                               px         py         pz
11   O      1    0.36129    0.38299    0.46278   -0.02122
                                s
12   O      0    0.00001   -0.00244
                               px         py         pz
12   O      1    0.00474    0.06479    0.02154    0.00864
                                s
13   O      0    0.00001    0.00245
                               px         py         pz
13   O      1    0.00471    0.06456    0.02161    0.00844
                                s
14   O      0    0.00001    0.00224
                               px         py         pz
14   O      1    0.03060    0.02867    0.16012    0.06434
                                s
15   O      0    0.00001   -0.00225
                               px         py         pz
15   O      1    0.03068    0.02873    0.16006    0.06512
                                s
16   O      0    0.00009   -0.00940
                               px         py         pz
16   O      1    0.03910    0.15935    0.06283   -0.09881
                                s
17   O      0    0.00009    0.00943
                               px         py         pz
17   O      1    0.03927    0.15963    0.06320   -0.09897
                                s
18   O      0    0.00005    0.00741
                               px         py         pz
18   O      1    0.00004   -0.00418    0.00444   -0.00266
                                s
19   O      0    0.00005   -0.00741
                               px         py         pz
19   O      1    0.00004   -0.00419    0.00441   -0.00266
                                s
20   H      0    0.00292   -0.05400
                                s
21   H      0    0.00294    0.05421


=== DISTRIBUTION ===

     1(Si  )   0.0054     2(Si  )   0.0053     3(Si  )   0.0165     4(Si  )   0.0165
     5(Mg  )   0.0286     6(Mg  )   0.0172     7(Mg  )   0.0172     8(O   )   0.0075
     9(O   )   0.0075    10(O   )   0.3611    11(O   )   0.3618    12(O   )   0.0047
    13(O   )   0.0047    14(O   )   0.0306    15(O   )   0.0307    16(O   )   0.0392
    17(O   )   0.0394    18(O   )   0.0001    19(O   )   0.0001    20(H   )   0.0029
    21(H   )   0.0029


== ANGULAR MOMENTUM POPULATIONS ===

      s         p         d         f
    0.0149    0.9851    0.0000    0.0000


------------------------------------------------------------------------------


*** ORBITAL=  10***  SPIN=BOTH    SUM= 0.10078E+01 E=-0.22214E-01 (  -0.604eV)

NO  ATOM  L  POPULATION
                                s
 1   Si     0    0.00160    0.03994
                               px         py         pz
 1   Si     1    0.01218    0.07789   -0.04185   -0.06602
                                s
 2   Si     0    0.00163    0.04034
                               px         py         pz
 2   Si     1    0.01222   -0.07818    0.04185    0.06598
                                s
 3   Si     0    0.00157    0.03961
                               px         py         pz
 3   Si     1    0.02198   -0.09027    0.08096   -0.08529
                                s
 4   Si     0    0.00158    0.03969
                               px         py         pz
 4   Si     1    0.02197    0.09014   -0.08110    0.08527
                                s
 5   Mg     0    0.00022    0.01498
                               px         py         pz
 5   Mg     1    0.00000   -0.00016   -0.00003    0.00017
                                s
 6   Mg     0    0.01566    0.12513
                               px         py         pz
 6   Mg     1    0.02922    0.16648    0.03869   -0.00257
                                s
 7   Mg     0    0.01567    0.12517
                               px         py         pz
 7   Mg     1    0.02928   -0.16653   -0.03918    0.00291
                                s
 8   O      0    0.00003   -0.00533
                               px         py         pz
 8   O      1    0.00006    0.00118    0.00657   -0.00358
                                s
 9   O      0    0.00003   -0.00531
                               px         py         pz
 9   O      1    0.00006   -0.00145   -0.00653    0.00352
                                s
10   O      0    0.00002    0.00452
                               px         py         pz
10   O      1    0.23264   -0.45375   -0.14904   -0.06731
                                s
11   O      0    0.00002    0.00445
                               px         py         pz
11   O      1    0.23215    0.45355    0.14794    0.06755
                                s
12   O      0    0.00001    0.00276
                               px         py         pz
12   O      1    0.00340   -0.04281   -0.02345    0.03186
                                s
13   O      0    0.00001    0.00274
                               px         py         pz
13   O      1    0.00337    0.04270    0.02318   -0.03184
                                s
14   O      0    0.00001   -0.00351
                               px         py         pz
14   O      1    0.14559   -0.01118   -0.24699   -0.29062
                                s
15   O      0    0.00001   -0.00352
                               px         py         pz
15   O      1    0.14575    0.01103    0.24722    0.29071
                                s
16   O      0    0.00005    0.00705
                               px         py         pz
16   O      1    0.03356   -0.05081   -0.16273   -0.06709
                                s
17   O      0    0.00005    0.00707
                               px         py         pz
17   O      1    0.03376    0.05063    0.16331    0.06724
                                s
18   O      0    0.00000   -0.00010
                               px         py         pz
18   O      1    0.00030    0.01526   -0.00656   -0.00469
                                s
19   O      0    0.00000   -0.00007
                               px         py         pz
19   O      1    0.00030   -0.01528    0.00659    0.00465
                                s
20   H      0    0.00204    0.04513
                                s
21   H      0    0.00204    0.04511


=== DISTRIBUTION ===

     1(Si  )   0.0138     2(Si  )   0.0138     3(Si  )   0.0235     4(Si  )   0.0235
     5(Mg  )   0.0002     6(Mg  )   0.0449     7(Mg  )   0.0449     8(O   )   0.0001
     9(O   )   0.0001    10(O   )   0.2327    11(O   )   0.2322    12(O   )   0.0034
    13(O   )   0.0034    14(O   )   0.1456    15(O   )   0.1458    16(O   )   0.0336
    17(O   )   0.0338    18(O   )   0.0003    19(O   )   0.0003    20(H   )   0.0020
    21(H   )   0.0020


== ANGULAR MOMENTUM POPULATIONS ===

      s         p         d         f
    0.0422    0.9578    0.0000    0.0000


------------------------------------------------------------------------------


*** ORBITAL=  11***  SPIN=BOTH    SUM= 0.10942E+01 E=-0.25582E-01 (  -0.696eV)

NO  ATOM  L  POPULATION
                                s
 1   Si     0    0.03202   -0.17894
                               px         py         pz
 1   Si     1    0.03140   -0.17366   -0.03371   -0.01027
                                s
 2   Si     0    0.03218    0.17939
                               px         py         pz
 2   Si     1    0.03150   -0.17393   -0.03375   -0.01028
                                s
 3   Si     0    0.00121   -0.03478
                               px         py         pz
 3   Si     1    0.01143   -0.00258   -0.10676   -0.00477
                                s
 4   Si     0    0.00123    0.03504
                               px         py         pz
 4   Si     1    0.01142   -0.00258   -0.10673   -0.00489
                                s
 5   Mg     0    0.00000    0.00037
                               px         py         pz
 5   Mg     1    0.03009   -0.04653   -0.01260    0.16663
                                s
 6   Mg     0    0.00190   -0.04359
                               px         py         pz
 6   Mg     1    0.06518    0.04281   -0.17798    0.17796
                                s
 7   Mg     0    0.00196    0.04429
                               px         py         pz
 7   Mg     1    0.06524    0.04310   -0.17801    0.17803
                                s
 8   O      0    0.00010   -0.01001
                               px         py         pz
 8   O      1    0.01567   -0.09836    0.05820   -0.05111
                                s
 9   O      0    0.00010    0.01004
                               px         py         pz
 9   O      1    0.01575   -0.09844    0.05851   -0.05130
                                s
10   O      0    0.00036    0.01904
                               px         py         pz
10   O      1    0.14346    0.24955   -0.25382    0.12945
                                s
11   O      0    0.00036   -0.01907
                               px         py         pz
11   O      1    0.14307    0.24845   -0.25419    0.12937
                                s
12   O      0    0.00015    0.01213
                               px         py         pz
12   O      1    0.02161   -0.02609   -0.14145    0.03042
                                s
13   O      0    0.00015   -0.01213
                               px         py         pz
13   O      1    0.02173   -0.02598   -0.14187    0.03044
                                s
14   O      0    0.00001    0.00277
                               px         py         pz
14   O      1    0.03446    0.02275    0.18422    0.00226
                                s
15   O      0    0.00001   -0.00277
                               px         py         pz
15   O      1    0.03432    0.02261    0.18387    0.00107
                                s
16   O      0    0.00036   -0.01899
                               px         py         pz
16   O      1    0.12299   -0.00568    0.35035   -0.01460
                                s
17   O      0    0.00036    0.01898
                               px         py         pz
17   O      1    0.12315   -0.00591    0.35063   -0.01312
                                s
18   O      0    0.00004   -0.00631
                               px         py         pz
18   O      1    0.00106   -0.01043    0.02110   -0.02258
                                s
19   O      0    0.00004    0.00635
                               px         py         pz
19   O      1    0.00107   -0.01041    0.02118   -0.02263
                                s
20   H      0    0.00143   -0.03777
                                s
21   H      0    0.00144    0.03792


=== DISTRIBUTION ===

     1(Si  )   0.0634     2(Si  )   0.0637     3(Si  )   0.0126     4(Si  )   0.0127
     5(Mg  )   0.0301     6(Mg  )   0.0671     7(Mg  )   0.0672     8(O   )   0.0158
     9(O   )   0.0158    10(O   )   0.1438    11(O   )   0.1434    12(O   )   0.0218
    13(O   )   0.0219    14(O   )   0.0345    15(O   )   0.0343    16(O   )   0.1233
    17(O   )   0.1235    18(O   )   0.0011    19(O   )   0.0011    20(H   )   0.0014
    21(H   )   0.0014


== ANGULAR MOMENTUM POPULATIONS ===

      s         p         d         f
    0.0754    0.9246    0.0000    0.0000


------------------------------------------------------------------------------


*** ORBITAL=  12***  SPIN=BOTH    SUM= 0.10258E+01 E=-0.27987E-01 (  -0.762eV)

NO  ATOM  L  POPULATION
                                s
 1   Si     0    0.02393   -0.15470
                               px         py         pz
 1   Si     1    0.01871   -0.13567    0.01234    0.01231
                                s
 2   Si     0    0.02373   -0.15405
                               px         py         pz
 2   Si     1    0.01852    0.13497   -0.01247   -0.01235
                                s
 3   Si     0    0.00650   -0.08065
                               px         py         pz
 3   Si     1    0.00323    0.03744   -0.04278   -0.00112
                                s
 4   Si     0    0.00650   -0.08064
                               px         py         pz
 4   Si     1    0.00320   -0.03753    0.04231    0.00114
                                s
 5   Mg     0    0.04334   -0.20818
                               px         py         pz
 5   Mg     1    0.00000   -0.00017   -0.00004    0.00025
                                s
 6   Mg     0    0.06595   -0.25681
                               px         py         pz
 6   Mg     1    0.00186    0.01404   -0.03349    0.02318
                                s
 7   Mg     0    0.06589   -0.25669
                               px         py         pz
 7   Mg     1    0.00179   -0.01395    0.03284   -0.02268
                                s
 8   O      0    0.00011   -0.01028
                               px         py         pz
 8   O      1    0.01562   -0.04761    0.09902   -0.05961
                                s
 9   O      0    0.00010   -0.01024
                               px         py         pz
 9   O      1    0.01553    0.04716   -0.09882    0.05946
                                s
10   O      0    0.00004    0.00610
                               px         py         pz
10   O      1    0.00949   -0.09589   -0.01472    0.00883
                                s
11   O      0    0.00004    0.00604
                               px         py         pz
11   O      1    0.00958    0.09654    0.01379   -0.00843
                                s
12   O      0    0.00000   -0.00086
                               px         py         pz
12   O      1    0.01187    0.02485   -0.10484   -0.01606
                                s
13   O      0    0.00000   -0.00090
                               px         py         pz
13   O      1    0.01179   -0.02508    0.10439    0.01613
                                s
14   O      0    0.00000    0.00193
                               px         py         pz
14   O      1    0.07086    0.00134    0.03124   -0.26435
                                s
15   O      0    0.00000    0.00191
                               px         py         pz
15   O      1    0.07088   -0.00125   -0.03044    0.26449
                                s
16   O      0    0.00000   -0.00034
                               px         py         pz
16   O      1    0.24496   -0.05798    0.19565    0.45090
                                s
17   O      0    0.00000   -0.00027
                               px         py         pz
17   O      1    0.24458    0.05794   -0.19439   -0.45103
                                s
18   O      0    0.00008   -0.00910
                               px         py         pz
18   O      1    0.00106   -0.00253    0.02847   -0.01548
                                s
19   O      0    0.00008   -0.00909
                               px         py         pz
19   O      1    0.00105    0.00249   -0.02839    0.01541
                                s
20   H      0    0.00457   -0.06761
                                s
21   H      0    0.00456   -0.06753


=== DISTRIBUTION ===

     1(Si  )   0.0426     2(Si  )   0.0423     3(Si  )   0.0097     4(Si  )   0.0097
     5(Mg  )   0.0433     6(Mg  )   0.0678     7(Mg  )   0.0677     8(O   )   0.0157
     9(O   )   0.0156    10(O   )   0.0095    11(O   )   0.0096    12(O   )   0.0119
    13(O   )   0.0118    14(O   )   0.0709    15(O   )   0.0709    16(O   )   0.2450
    17(O   )   0.2446    18(O   )   0.0011    19(O   )   0.0011    20(H   )   0.0046
    21(H   )   0.0046


== ANGULAR MOMENTUM POPULATIONS ===

      s         p         d         f
    0.2454    0.7546    0.0000    0.0000


------------------------------------------------------------------------------


*** ORBITAL=  13***  SPIN=BOTH    SUM= 0.10876E+01 E=-0.39706E-01 (  -1.080eV)

NO  ATOM  L  POPULATION
                                s
 1   Si     0    0.00164   -0.04053
                               px         py         pz
 1   Si     1    0.01304   -0.00219   -0.07374   -0.08717
                                s
 2   Si     0    0.00164   -0.04052
                               px         py         pz
 2   Si     1    0.01306    0.00216    0.07381    0.08722
                                s
 3   Si     0    0.00002   -0.00416
                               px         py         pz
 3   Si     1    0.01888   -0.05433    0.02223   -0.12422
                                s
 4   Si     0    0.00002   -0.00412
                               px         py         pz
 4   Si     1    0.01890    0.05438   -0.02218    0.12429
                                s
 5   Mg     0    0.12873   -0.35879
                               px         py         pz
 5   Mg     1    0.00000   -0.00003    0.00003   -0.00001
                                s
 6   Mg     0    0.00061    0.02473
                               px         py         pz
 6   Mg     1    0.01226   -0.10815   -0.02280   -0.00656
                                s
 7   Mg     0    0.00061    0.02469
                               px         py         pz
 7   Mg     1    0.01225    0.10812    0.02280    0.00654
                                s
 8   O      0    0.00002   -0.00467
                               px         py         pz
 8   O      1    0.00485   -0.04733    0.03118   -0.04046
                                s
 9   O      0    0.00002   -0.00468
                               px         py         pz
 9   O      1    0.00487    0.04735   -0.03129    0.04055
                                s
10   O      0    0.00094   -0.03072
                               px         py         pz
10   O      1    0.20206    0.22490    0.38380   -0.06463
                                s
11   O      0    0.00094   -0.03071
                               px         py         pz
11   O      1    0.20197   -0.22487   -0.38370    0.06460
                                s
12   O      0    0.00003    0.00531
                               px         py         pz
12   O      1    0.00074   -0.00935   -0.01633    0.01975
                                s
13   O      0    0.00003    0.00532
                               px         py         pz
13   O      1    0.00075    0.00933    0.01637   -0.01983
                                s
14   O      0    0.00001   -0.00300
[...]
          ****************************************************
     >>>  JOB STARTED       AT Tue Feb 15 11:21:30 2011  <<<
          ================ input data ========================

 input psi filename:./talc.movecs

 number of processors used:         1
 processor grid           :   1 x   1
 parallel mapping         :2d hilbert
 parallel mapping         :  balanced

 options:
      boundary conditions  = periodic    (version3)
      electron spin        = restricted
      exchange-correlation = LDA (Vosko et al) parameterization

 elements involved in the cluster:
      1: Si  valence charge:  4.0000  lmax=  2
             comment    : Hamann pseudopotential
             pseudpotential type            :   0
             highest angular component      :   2
             local potential used           :   2
             number of non-local projections:   4
             cutoff =   1.059   1.286   1.286

      2: Mg  valence charge:  2.0000  lmax=  2
             comment    : Troullier-Martins pseudopotential
             pseudpotential type            :   0
             highest angular component      :   2
             local potential used           :   2
             number of non-local projections:   4
             semicore corrections included  :  1.730 (radius)  0.710 (charge)
             cutoff =   2.592   2.592   2.592

      3: O   valence charge:  6.0000  lmax=  2
             comment    : Parameterized (Chem.Phys.Lett., vol 322, page 447) Hamman psp
             pseudpotential type            :   0
             highest angular component      :   2
             local potential used           :   2
             number of non-local projections:   4
             cutoff =   0.700   0.700   0.700

      4: H   valence charge:  1.0000  lmax=  1
             comment    : Parameterized (Chem.Phys.Lett., vol 322, page 447) Hamman psp
             pseudpotential type            :   0
             highest angular component      :   1
             local potential used           :   1
             number of non-local projections:   1
             cutoff =   0.800   0.800


 total charge:   0.000

 atomic composition:
     Si  :  4     Mg  :  3     O   : 12     H   :  2

 number of electrons: spin up=    48 (  48 per task)  down=    48 (  48 per task) (fourier space)
 number of orbitals : spin up=    48 (  48 per task)  down=    48 (  48 per task) (fourier space)

 supercell:
      cell_name:  cell_default                                      
      lattice:    a1=<   9.997  -0.016   0.000 >
                  a2=<   0.000  17.334   0.000 >
                  a3=<  -2.698  -0.144  17.671 >
      reciprocal: b1=<   0.629  -0.000   0.096 >
                  b2=<   0.001   0.362   0.003 >
                  b3=<  -0.000   0.000   0.356 >
      lattice:    a=       9.997 b=     17.334 c=      17.877
                  alpha=  90.460 beta=  98.680 gamma=  90.090
                  omega=      3062.2

      density cutoff=  4.045  fft= 16x 16x 16(      595 waves      595 per task)
      wavefnc cutoff=  4.045  fft= 16x 16x 16(      595 waves      595 per task)
      ewald summation: cut radius=    3.18  and  8
                        madelung= 1.56123651

 technical parameters:
      time step=      5.80     ficticious mass=  400000.0
      tolerance=.100E-08 (energy)   0.100E-08 (density)
      maximum iterations =    1000 (   10 inner  100 outer )





== Energy Calculation ==


          ============ Grassmann lmbfgs iteration ============
     >>>  ITERATION STARTED AT Tue Feb 15 11:21:30 2011  <<<
    iter.           Energy         DeltaE       DeltaRho 
    ------------------------------------------------------
      10   -0.1919505644E+03   -0.14850E-09    0.17557E-12
  *** tolerance ok. iteration terminated
     >>>  ITERATION ENDED   AT Tue Feb 15 11:21:30 2011  <<<


==  Summary Of Results  ==

 number of electrons: spin up=   48.00000  down=   48.00000 (real space)

 total     energy    :  -0.1919505644E+03 (   -0.91405E+01/ion)
 total orbital energy:  -0.3309598179E+02 (   -0.68950E+00/electron)
 hartree   energy    :   0.8998481174E+02 (    0.18747E+01/electron)
 exc-corr  energy    :  -0.4286964911E+02 (   -0.89312E+00/electron)
 ion-ion   energy    :  -0.8128306727E+02 (   -0.38706E+01/ion)

 kinetic (planewave) :   0.9165088516E+02 (    0.19094E+01/electron)
 V_local (planewave) :  -0.2621082645E+03 (   -0.54606E+01/electron)
 V_nl    (planewave) :   0.1267471967E+02 (    0.26406E+00/electron)
 V_Coul  (planewave) :   0.1799696235E+03 (    0.37494E+01/electron)
 V_xc.   (planewave) :  -0.5528294556E+02 (   -0.11517E+01/electron)
 Virial Coefficient  :  -0.1361109243E+01

 orbital energies:
     0.3856007E-01 (   1.049eV)
     0.3499935E-01 (   0.952eV)
     0.6692773E-02 (   0.182eV)
     0.4361819E-02 (   0.119eV)
    -0.1771568E-01 (  -0.482eV)
    -0.2251093E-01 (  -0.613eV)
    -0.3649786E-01 (  -0.993eV)
    -0.5103796E-01 (  -1.389eV)
    -0.7073924E-01 (  -1.925eV)
    -0.7466182E-01 (  -2.032eV)
    -0.8104239E-01 (  -2.205eV)
    -0.8266100E-01 (  -2.249eV)
    -0.9667143E-01 (  -2.631eV)
    -0.9992500E-01 (  -2.719eV)
    -0.1086099E+00 (  -2.955eV)
    -0.1132875E+00 (  -3.083eV)
    -0.1234771E+00 (  -3.360eV)
    -0.1412926E+00 (  -3.845eV)
    -0.1535954E+00 (  -4.180eV)
    -0.1717774E+00 (  -4.674eV)
    -0.1950249E+00 (  -5.307eV)
    -0.2006281E+00 (  -5.459eV)
    -0.2035629E+00 (  -5.539eV)
    -0.2084877E+00 (  -5.673eV)
    -0.2158222E+00 (  -5.873eV)
    -0.2176791E+00 (  -5.923eV)
    -0.2681783E+00 (  -7.298eV)
    -0.2697073E+00 (  -7.339eV)
    -0.2937807E+00 (  -7.994eV)
    -0.3023210E+00 (  -8.227eV)
    -0.3027186E+00 (  -8.237eV)
    -0.3080208E+00 (  -8.382eV)
    -0.3215881E+00 (  -8.751eV)
    -0.3350946E+00 (  -9.118eV)
    -0.4069557E+00 ( -11.074eV)
    -0.4076103E+00 ( -11.092eV)
    -0.7868031E+00 ( -21.410eV)
    -0.7879923E+00 ( -21.443eV)
    -0.7955089E+00 ( -21.647eV)
    -0.7957812E+00 ( -21.654eV)
    -0.8602811E+00 ( -23.410eV)
    -0.8615044E+00 ( -23.443eV)
    -0.8658860E+00 ( -23.562eV)
    -0.8663936E+00 ( -23.576eV)
    -0.9743974E+00 ( -26.515eV)
    -0.9746066E+00 ( -26.521eV)
    -0.1080326E+01 ( -29.397eV)
    -0.1080441E+01 ( -29.401eV)

 Total PSPW energy   :  -0.1919505644E+03


=== Spin Contamination ===

 <Sexact^2> =    0.0000000000000000     
 <S^2>      =    0.0000000000000000     



== Center of Charge ==

spin up     (   -0.0000,    0.0000,    0.0000 )
spin down   (   -0.0000,    0.0000,    0.0000 )
     total  (   -0.0000,    0.0000,    0.0000 )
ionic       (    0.0000,    0.0000,   -0.0000 )
crystal     (   -0.0000,   -0.0000,    0.0000 )


== Crystal Dipole ==

mu   =  (    0.0000,   -0.0000,   -0.0000 ) au
|mu| =     0.0000 au,       0.0000 Debye


== Molecular Dipole wrt Center of Mass ==

mu   =  (    0.0000,   -0.0000,   -0.0000 ) au
|mu| =     0.0000 au,       0.0000 Debye


Translation force removed: (    0.00000    0.00000    0.00000)


          =============  Ion Gradients =================
 Ion Forces:
        1 Si   (   -0.00000    0.00000    0.00000 )
        2 Si   (    0.00000   -0.00000   -0.00000 )
        3 Si   (   -0.00000   -0.00000    0.00000 )
        4 Si   (    0.00000    0.00000   -0.00000 )
        5 Mg   (   -0.00000    0.00000    0.00000 )
        6 Mg   (    0.00000    0.00000   -0.00000 )
        7 Mg   (   -0.00000   -0.00000    0.00000 )
        8 O    (    0.00001    0.00000    0.00000 )
        9 O    (   -0.00001   -0.00000   -0.00000 )
       10 O    (    0.00000    0.00001    0.00000 )
       11 O    (   -0.00000   -0.00001   -0.00000 )
       12 O    (   -0.00001    0.00000   -0.00000 )
       13 O    (    0.00001   -0.00000    0.00000 )
       14 O    (    0.00000    0.00001    0.00001 )
       15 O    (   -0.00000   -0.00001   -0.00001 )
       16 O    (    0.00000   -0.00001   -0.00000 )
       17 O    (   -0.00000    0.00001    0.00000 )
       18 O    (   -0.00000    0.00001   -0.00001 )
       19 O    (    0.00000   -0.00001    0.00001 )
       20 H    (   -0.00000    0.00000   -0.00000 )
       21 H    (    0.00000   -0.00000    0.00000 )
        C.O.M. (   -0.00000    0.00000   -0.00000 )
          ===============================================
          |F|       =   0.316107E-04
          |F|/nion  =   0.150527E-05
          max|Fatom|=   0.116266E-04 (   0.001eV/Angstrom)



 output psi filename:./talc.movecs


== Timing ==

cputime in seconds
  prologue    :   0.233552E+00
  main loop   :   0.114774E+01
  epilogue    :   0.273580E-01
  total       :   0.140865E+01
  cputime/step:   0.286936E+00       (       4 evalulations,       1 linesearches)


Time spent doing                        total          step
  FFTs                       :   0.531200E-02  0.132800E-02
  dot products               :   0.693340E-01  0.173335E-01
  geodesic                   :   0.244100E-01  0.610250E-02
  ffm_dgemm                  :   0.529800E-02  0.132450E-02
  fmf_dgemm                  :   0.223680E-01  0.559200E-02
  m_diagonalize              :   0.323400E-02  0.808500E-03
    - m_tredq                :   0.000000E+00  0.000000E+00
    - m_getdiags             :   0.000000E+00  0.000000E+00
    - m_tqliq                :   0.000000E+00  0.000000E+00
    - m_eigsrt               :   0.000000E+00  0.000000E+00
  exchange correlation       :   0.514600E-02  0.128650E-02
  local pseudopotentials     :   0.560000E-03  0.140000E-03
  non-local pseudopotentials :   0.114948E+00  0.287370E-01
  hartree potentials         :   0.316000E-03  0.790000E-04
  ion-ion interaction        :   0.780198E+00  0.195049E+00
  structure factors          :   0.629400E-02  0.157350E-02
  phase factors              :   0.360000E-04  0.900000E-05
  masking and packing        :   0.236080E-01  0.590200E-02
  queue fft                  :   0.652600E-01  0.163150E-01
  queue fft (serial)         :   0.312780E-01  0.781950E-02
  queue fft (message passing):   0.297640E-01  0.744100E-02
  HFX potential              :   0.000000E+00  0.000000E+00
  qmmm LJ                    :   0.000000E+00  0.000000E+00
  qmmm residual Q            :   0.000000E+00  0.000000E+00

     >>>  JOB COMPLETED     AT Tue Feb 15 11:21:31 2011  <<<

  Step       Energy      Delta E   Gmax     Grms     Xrms     Xmax   Walltime
  ---- ---------------- -------- -------- -------- -------- -------- --------
@  151    -191.95056435 -1.6D-08  0.00015  0.00006  0.00000  0.00001   2450.1
                                     ok       ok       ok       ok  


      ----------------------
      Optimization converged
      ----------------------


  Step       Energy      Delta E   Gmax     Grms     Xrms     Xmax   Walltime
  ---- ---------------- -------- -------- -------- -------- -------- --------
@  151    -191.95056435 -1.6D-08  0.00015  0.00006  0.00000  0.00001   2450.1
                                     ok       ok       ok       ok  



                         Geometry "geometry" -> "geometry"
                         ---------------------------------

 Output coordinates in angstroms (scale by  1.889725989 to convert to a.u.)

  No.       Tag          Charge          X              Y              Z
 ---- ---------------- ---------- -------------- -------------- --------------
    1 Si                  14.0000     2.52605892     2.21444005     2.38620384
    2 Si                  14.0000     1.33615039     6.87430151     6.96512035
    3 Si                  14.0000    -0.41665019     1.72277973     3.31760636
    4 Si                  14.0000     4.27885949     7.36596183     6.03371783
    5 Mg                  12.0000     0.00000000     0.00000000     0.00000000
    6 Mg                  12.0000     3.98397803     4.98156130     1.58524793
    7 Mg                  12.0000    -0.12176872     4.10718025     7.76607626
    8 O                    8.0000     4.25904404     1.99572516     0.86857378
    9 O                    8.0000    -0.39683473     7.09301640     8.48275041
   10 O                    8.0000     3.73880469     6.60209039     0.87063665
   11 O                    8.0000     0.12340462     2.48665117     8.48068754
   12 O                    8.0000     2.83402182     1.98717473     0.84095123
   13 O                    8.0000     1.02818749     7.10156682     8.51037296
   14 O                    8.0000    -0.38414769     0.21453358     3.22189962
   15 O                    8.0000     4.24635700     8.87420798     6.12942457
   16 O                    8.0000     4.04212320     4.84525479     3.24472422
   17 O                    8.0000    -0.17991389     4.24348677     6.10659997
   18 O                    8.0000     3.28932422     1.97400058     3.80718527
   19 O                    8.0000     0.57288509     7.11474098     5.54413892
   20 H                    1.0000     2.82641277     6.89817145     1.26080579
   21 H                    1.0000     1.03579653     2.19057011     8.09051840

      Lattice Parameters 
      ------------------ 

      lattice vectors in angstroms (scale by  1.889725989 to convert to a.u.)

      a1=<   5.290  -0.008   0.000 >
      a2=<   0.000   9.173   0.000 >
      a3=<  -1.428  -0.076   9.351 >
      a=       5.290 b=      9.173 c=       9.460
      alpha=  90.460 beta=  98.680 gamma=  90.090
      omega=   453.8

      reciprocal lattice vectors in a.u.

      b1=<   0.629   0.001  -0.000 >
      b2=<  -0.000   0.362   0.000 >
      b3=<   0.096   0.003   0.356 >

      Atomic Mass 
      ----------- 

      Si                27.976930
      Mg                23.985040
      O                 15.994910
      H                  1.007825


      Symmetry information
      --------------------

 Group name                    P-1
 Group number              2
 Group order               2
 No. of unique centers    11
 Setting number            1

      Symmetry unique atoms

     1    3    5    6    8   10   12   14   16   18   20

 ==============================================================================
                                internuclear distances
 ------------------------------------------------------------------------------
       center one      |      center two      | atomic units |  angstroms
 ------------------------------------------------------------------------------
   10 O                |   6 Mg               |     3.37880  |     1.78799
   11 O                |   7 Mg               |     3.37880  |     1.78799
   12 O                |   1 Si               |     3.00834  |     1.59195
   12 O                |   8 O                |     2.69346  |     1.42532
   13 O                |   2 Si               |     3.00834  |     1.59195
   13 O                |   9 O                |     2.69346  |     1.42532
   14 O                |   3 Si               |     2.85656  |     1.51163
   15 O                |   4 Si               |     2.85656  |     1.51163
   16 O                |   6 Mg               |     3.14843  |     1.66608
   17 O                |   7 Mg               |     3.14843  |     1.66608
   18 O                |   1 Si               |     3.08180  |     1.63082
   19 O                |   2 Si               |     3.08180  |     1.63082
   20 H                |  10 O                |     1.95690  |     1.03555
   21 H                |  11 O                |     1.95690  |     1.03555
 ------------------------------------------------------------------------------
                         number of included internuclear distances:         14
 ==============================================================================



 ==============================================================================
                                 internuclear angles
 ------------------------------------------------------------------------------
        center 1       |       center 2       |       center 3       |  degrees
 ------------------------------------------------------------------------------
   12 O                |   1 Si               |  18 O                |   137.24
   13 O                |   2 Si               |  19 O                |   137.24
   10 O                |   6 Mg               |  16 O                |   118.49
   11 O                |   7 Mg               |  17 O                |   118.49
    6 Mg               |  10 O                |  20 H                |   103.26
    7 Mg               |  11 O                |  21 H                |   103.26
    1 Si               |  12 O                |   8 O                |   100.01
    2 Si               |  13 O                |   9 O                |   100.01
 ------------------------------------------------------------------------------
                            number of included internuclear angles:          8
 ==============================================================================




 Task  times  cpu:     2347.6s     wall:     2377.9s
 Summary of allocated global arrays
-----------------------------------
  No active global arrays



                         GA Statistics for process    0
                         ------------------------------

       create   destroy   get      put      acc     scatter   gather  read&inc
calls:    8        8     4128     1560        0        0        0        0     
number of processes/call 1.00e+00 1.00e+00 0.00e+00 0.00e+00 0.00e+00
bytes total:             1.61e+06 9.73e+05 0.00e+00 0.00e+00 0.00e+00 0.00e+00
bytes remote:            0.00e+00 0.00e+00 0.00e+00 0.00e+00 0.00e+00 0.00e+00
Max memory consumed for GA by this process: 389376 bytes
MA_summarize_allocated_blocks: starting scan ...
MA_summarize_allocated_blocks: scan completed: 0 heap blocks, 0 stack blocks
MA usage statistics:

	allocation statistics:
					      heap	     stack
					      ----	     -----
	current number of blocks	         0	         0
	maximum number of blocks	       276	        17
	current total bytes		         0	         0
	maximum total bytes		   6974592	   1080456
	maximum total K-bytes		      6975	      1081
	maximum total M-bytes		         7	         2


                                NWChem Input Module
                                -------------------





                                     CITATION
                                     --------
                Please cite the following reference when publishing
                           results obtained with NWChem:

                 M. Valiev, E.J. Bylaska, N. Govind, K. Kowalski,
              T.P. Straatsma, H.J.J. van Dam, D. Wang, J. Nieplocha,
                        E. Apra, T.L. Windus, W.A. de Jong
                 "NWChem: a comprehensive and scalable open-source
                  solution for large scale molecular simulations"
                      Comput. Phys. Commun. 181, 1477 (2010)
                           doi:10.1016/j.cpc.2010.04.018

                              AUTHORS & CONTRIBUTORS
                              ----------------------
      E. J. Bylaska, W. A. de Jong, N. Govind, K. Kowalski, T. P. Straatsma,
     M. Valiev, H. J. J. van Dam, D. Wang, E. Apra, T. L. Windus, J. Hammond,
     J. Autschbach, P. Nichols, S. Hirata, M. T. Hackler, Y. Zhao, P.-D. Fan,
      R. J. Harrison, M. Dupuis, D. M. A. Smith, K. Glaesemann, J. Nieplocha,
      V. Tipparaju, M. Krishnan, A. Vazquez-Mayagoitia, L. Jensen, M. Swart,
      Q. Wu, T. Van Voorhis, A. A. Auer, M. Nooijen, L. D. Crosby, E. Brown,
             G. Cisneros, G. I. Fann, H. Fruchtl, J. Garza, K. Hirao,
        R. Kendall, J. A. Nichols, K. Tsemekhman, K. Wolinski, J. Anchell,
       D. Bernholdt, P. Borowski, T. Clark, D. Clerc, H. Dachsel, M. Deegan,
        K. Dyall, D. Elwood, E. Glendening, M. Gutowski, A. Hess, J. Jaffe,
        B. Johnson, J. Ju, R. Kobayashi, R. Kutteh, Z. Lin, R. Littlefield,
    X. Long, B. Meng, T. Nakajima, S. Niu, L. Pollack, M. Rosing, G. Sandrone,
       M. Stave, H. Taylor, G. Thomas, J. H. van Lenthe, A. Wong, Z. Zhang.

 Total times  cpu:     2418.1s     wall:     2450.2s
