 argument  1 = h2co.nw



============================== echo of input deck ==============================
echo
start h2co_dat

geometry geometry
  h    0.00000000     0.92415102    -1.07411939
  h    0.00000000    -0.92415102    -1.07411939
  c    0.00000000     0.00000000    -0.49305547
  o    0.00000000     0.00000000     0.69129425
end

basis
  * library 6-31g*
end

task scf optimize
================================================================================


                                         
                                         


             Northwest Computational Chemistry Package (NWChem) 7.2.1
             --------------------------------------------------------


                    Environmental Molecular Sciences Laboratory
                       Pacific Northwest National Laboratory
                                Richland, WA 99352

                              Copyright (c) 1994-2022
                       Pacific Northwest National Laboratory
                            Battelle Memorial Institute

             NWChem is an open-source computational chemistry package
                        distributed under the terms of the
                      Educational Community License (ECL) 2.0
             A copy of the license is included with this distribution
                              in the LICENSE.TXT file

                                  ACKNOWLEDGMENT
                                  --------------

            This software and its documentation were developed at the
            EMSL at Pacific Northwest National Laboratory, a multiprogram
            national laboratory, operated for the U.S. Department of Energy
            by Battelle under Contract Number DE-AC05-76RL01830. Support
            for this work was provided by the Department of Energy Office
            of Biological and Environmental Research, Office of Basic
            Energy Sciences, and the Office of Advanced Scientific Computing.


           Job information
           ---------------

    hostname        = lpo-170127
    program         = ../../../bin/LINUX64/nwchem
    date            = Sat Jan 20 20:56:16 2024

    compiled        = Sat_Jan_20_20:34:38_2024
    source          = /home/hvandam/Documents/nwchem-1
    nwchem branch   = 7.2.1
    nwchem revision = nwchem_on_git-5236-g118d5ffa8b
    ga revision     = 5.8.0
    use scalapack   = F
    input           = h2co.nw
    prefix          = h2co_dat.
    data base       = ./h2co_dat.db
    status          = startup
    nproc           =        1
    time left       =     -1s



           Memory information
           ------------------

    heap     =     26214394 doubles =      200.0 Mbytes
    stack    =     26214399 doubles =      200.0 Mbytes
    global   =     52428800 doubles =      400.0 Mbytes (distinct from heap & stack)
    total    =    104857593 doubles =      800.0 Mbytes
    verify   = yes
    hardfail = no 


           Directory information
           ---------------------

  0 permanent = .
  0 scratch   = .




                                NWChem Input Module
                                -------------------



 Scaling coordinates for geometry "geometry" by  1.889725989
 (inverse scale =  0.529177249)

 C2V symmetry detected

          ------
          auto-z
          ------
  Looking for out-of-plane bends
  no constraints, skipping    0.0000000000000000     
  no constraints, skipping    0.0000000000000000     


                             Geometry "geometry" -> ""
                             -------------------------

 Output coordinates in angstroms (scale by  1.889725989 to convert to a.u.)

  No.       Tag          Charge          X              Y              Z
 ---- ---------------- ---------- -------------- -------------- --------------
    1 h                    1.0000     0.00000000     0.92415102    -1.10060579
    2 h                    1.0000     0.00000000    -0.92415102    -1.10060579
    3 c                    6.0000     0.00000000     0.00000000    -0.51954187
    4 o                    8.0000     0.00000000     0.00000000     0.66480785

      Atomic Mass 
      ----------- 

      h                  1.007825
      c                 12.000000
      o                 15.994910


 Effective nuclear repulsion energy (a.u.)      31.7991102423

            Nuclear Dipole moment (a.u.) 
            ----------------------------
        X                 Y               Z
 ---------------- ---------------- ----------------
     0.0000000000     0.0000000000     0.0000000000

      Symmetry information
      --------------------

 Group name             C2v       
 Group number             16
 Group order               4
 No. of unique centers     3

      Symmetry unique atoms

     1    3    4



                                Z-matrix (autoz)
                                -------- 

 Units are Angstrom for bonds and degrees for angles

      Type          Name      I     J     K     L     M      Value
      ----------- --------  ----- ----- ----- ----- ----- ----------
    1 Stretch                  1     3                       1.09165
    2 Stretch                  2     3                       1.09165
    3 Stretch                  3     4                       1.18435
    4 Bend                     1     3     2               115.68039
    5 Bend                     1     3     4               122.15980
    6 Bend                     2     3     4               122.15980
    7 Torsion                  1     3     2     4         180.00000
    8 Torsion                  1     3     4     2         180.00000
    9 Torsion                  2     3     1     4         180.00000
   10 Torsion                  1     4     3     2         180.00000
   11 Torsion                  2     1     3     4         180.00000
   12 Torsion                  1     2     3     4         180.00000


            XYZ format geometry
            -------------------
     4
 geometry
 h                     0.00000000     0.92415102    -1.10060579
 h                     0.00000000    -0.92415102    -1.10060579
 c                     0.00000000     0.00000000    -0.51954187
 o                     0.00000000     0.00000000     0.66480785

 ==============================================================================
                                internuclear distances
 ------------------------------------------------------------------------------
       center one      |      center two      | atomic units |  angstroms
 ------------------------------------------------------------------------------
    3 c                |   1 h                |     2.06291  |     1.09165
    3 c                |   2 h                |     2.06291  |     1.09165
    4 o                |   3 c                |     2.23810  |     1.18435
 ------------------------------------------------------------------------------
                         number of included internuclear distances:          3
 ==============================================================================



 ==============================================================================
                                 internuclear angles
 ------------------------------------------------------------------------------
        center 1       |       center 2       |       center 3       |  degrees
 ------------------------------------------------------------------------------
    1 h                |   3 c                |   2 h                |   115.68
    1 h                |   3 c                |   4 o                |   122.16
    2 h                |   3 c                |   4 o                |   122.16
 ------------------------------------------------------------------------------
                            number of included internuclear angles:          3
 ==============================================================================





 Summary of "ao basis" -> "" (cartesian)
 ------------------------------------------------------------------------------
       Tag                 Description            Shells   Functions and Types
 ---------------- ------------------------------  ------  ---------------------
 *                           6-31g*                   on all atoms 




                           NWChem Geometry Optimization
                           ----------------------------


  no constraints, skipping    0.0000000000000000     
 maximum gradient threshold         (gmax) =   0.000450
 rms gradient threshold             (grms) =   0.000300
 maximum cartesian step threshold   (xmax) =   0.001800
 rms cartesian step threshold       (xrms) =   0.001200
 fixed trust radius                (trust) =   0.300000
 maximum step size to saddle      (sadstp) =   0.100000
 energy precision                  (eprec) =   1.0D-07
 maximum number of steps          (nptopt) =   40
 initial hessian option           (inhess) =    0
 line search option               (linopt) =    1
 hessian update option            (modupd) =    1
 saddle point option              (modsad) =    0
 initial eigen-mode to follow     (moddir) =    0
 initial variable to follow       (vardir) =    0
 follow first negative mode     (firstneg) =    T
 apply conjugacy                    (opcg) =    F
 source of zmatrix                         =   autoz   


          -------------------
          Energy Minimization
          -------------------


 Names of Z-matrix variables 
    1              2              3              4              5         
    6              7              8              9             10         
   11             12         

 Variables with the same non-blank name are constrained to be equal


 Using old Hessian from previous optimization

          --------
          Step   0
          --------


                         Geometry "geometry" -> "geometry"
                         ---------------------------------

 Output coordinates in angstroms (scale by  1.889725989 to convert to a.u.)

  No.       Tag          Charge          X              Y              Z
 ---- ---------------- ---------- -------------- -------------- --------------
    1 h                    1.0000     0.00000000     0.92415102    -1.10060579
    2 h                    1.0000     0.00000000    -0.92415102    -1.10060579
    3 c                    6.0000     0.00000000     0.00000000    -0.51954187
    4 o                    8.0000     0.00000000     0.00000000     0.66480785

      Atomic Mass 
      ----------- 

      h                  1.007825
      c                 12.000000
      o                 15.994910


 Effective nuclear repulsion energy (a.u.)      31.7991102423

            Nuclear Dipole moment (a.u.) 
            ----------------------------
        X                 Y               Z
 ---------------- ---------------- ----------------
     0.0000000000     0.0000000000     0.0000000000

      Symmetry information
      --------------------

 Group name             C2v       
 Group number             16
 Group order               4
 No. of unique centers     3

      Symmetry unique atoms

     1    3    4

                      Basis "ao basis" -> "ao basis" (cartesian)
                      -----
  h (Hydrogen)
  ------------
            Exponent  Coefficients 
       -------------- ---------------------------------------------------------
  1 S  1.87311370E+01  0.033495
  1 S  2.82539370E+00  0.234727
  1 S  6.40121700E-01  0.813757

  2 S  1.61277800E-01  1.000000

  c (Carbon)
  ----------
            Exponent  Coefficients 
       -------------- ---------------------------------------------------------
  1 S  3.04752490E+03  0.001835
  1 S  4.57369510E+02  0.014037
  1 S  1.03948690E+02  0.068843
  1 S  2.92101550E+01  0.232184
  1 S  9.28666300E+00  0.467941
  1 S  3.16392700E+00  0.362312

  2 S  7.86827240E+00 -0.119332
  2 S  1.88128850E+00 -0.160854
  2 S  5.44249300E-01  1.143456

  3 P  7.86827240E+00  0.068999
  3 P  1.88128850E+00  0.316424
  3 P  5.44249300E-01  0.744308

  4 S  1.68714400E-01  1.000000

  5 P  1.68714400E-01  1.000000

  6 D  8.00000000E-01  1.000000

  o (Oxygen)
  ----------
            Exponent  Coefficients 
       -------------- ---------------------------------------------------------
  1 S  5.48467170E+03  0.001831
  1 S  8.25234950E+02  0.013950
  1 S  1.88046960E+02  0.068445
  1 S  5.29645000E+01  0.232714
  1 S  1.68975700E+01  0.470193
  1 S  5.79963530E+00  0.358521

  2 S  1.55396160E+01 -0.110778
  2 S  3.59993360E+00 -0.148026
  2 S  1.01376180E+00  1.130767

  3 P  1.55396160E+01  0.070874
  3 P  3.59993360E+00  0.339753
  3 P  1.01376180E+00  0.727159

  4 S  2.70005800E-01  1.000000

  5 P  2.70005800E-01  1.000000

  6 D  8.00000000E-01  1.000000



 Summary of "ao basis" -> "ao basis" (cartesian)
 ------------------------------------------------------------------------------
       Tag                 Description            Shells   Functions and Types
 ---------------- ------------------------------  ------  ---------------------
 h                           6-31g*                  2        2   2s
 c                           6-31g*                  6       15   3s2p1d
 o                           6-31g*                  6       15   3s2p1d


                                 NWChem SCF Module
                                 -----------------



  ao basis        = "ao basis"
  functions       =    34
  atoms           =     4
  closed shells   =     8
  open shells     =     0
  charge          =   0.00
  wavefunction    = RHF 
  input vectors   = atomic
  output vectors  = ./h2co_dat.movecs
  use symmetry    = T
  symmetry adapt  = T


 Summary of "ao basis" -> "ao basis" (cartesian)
 ------------------------------------------------------------------------------
       Tag                 Description            Shells   Functions and Types
 ---------------- ------------------------------  ------  ---------------------
 h                           6-31g*                  2        2   2s
 c                           6-31g*                  6       15   3s2p1d
 o                           6-31g*                  6       15   3s2p1d


      Symmetry analysis of basis
      --------------------------

        a1         18
        a2          2
        b1          6
        b2          8


 Forming initial guess at       0.0s


      Superposition of Atomic Density Guess
      -------------------------------------

 Sum of atomic energies:        -113.41107146

      Non-variational initial energy
      ------------------------------

 Total energy =    -114.177720
 1-e energy   =    -217.069258
 2-e energy   =      71.092428
 HOMO         =      -0.320969
 LUMO         =      -0.021954


      Symmetry analysis of molecular orbitals - initial
      -------------------------------------------------

  Numbering of irreducible representations: 

     1 a1          2 a2          3 b1          4 b2      

  Orbital symmetries:

     1 a1          2 a1          3 a1          4 a1          5 b2      
     6 a1          7 b1          8 b2          9 b1         10 a1      
    11 b2         12 a1         13 b1         14 b2         15 a1      
    16 a1         17 a1         18 b2      


 Starting SCF solution at       0.0s



 ----------------------------------------------
         Quadratically convergent ROHF

 Convergence threshold     :          1.000E-04
 Maximum no. of iterations :           30
 Final Fock-matrix accuracy:          1.000E-07
 ----------------------------------------------

  avail0,avail1,avail0-avail1                803816               803816                    0
  avail0,avail1,avail0-avail1                803816               803816                    0
  avail0,avail1,avail0-avail1                803816               803816                    0
  avail0,avail1,avail0-avail1                803816               803816                    0

 Integral file          = ./h2co_dat.aoints.0
 Record size in doubles =    65536    No. of integs per rec  =    43688
 Max. records in memory =        4    Max. records in file   =  1527249
 No. of bits per label  =        8    No. of bits per value  =       64


 #quartets = 6.507D+03 #integrals = 5.560D+04 #direct =  0.0% #cached =100.0%


              iter       energy          gnorm     gmax       time
             ----- ------------------- --------- --------- --------
                 1     -113.7970172329  1.08D+00  4.39D-01      0.1
                 2     -113.8598562059  2.71D-01  9.06D-02      0.1
                 3     -113.8662996866  1.26D-02  7.68D-03      0.1
                 4     -113.8663312538  9.16D-05  2.47D-05      0.1


       Final RHF  results 
       ------------------ 

         Total SCF energy =   -113.866331253797
      One-electron energy =   -218.268468798159
      Two-electron energy =     72.603027302097
 Nuclear repulsion energy =     31.799110242265

        Time for solution =      0.1s



       Symmetry analysis of molecular orbitals - final
       -----------------------------------------------

  Numbering of irreducible representations: 

     1 a1          2 a2          3 b1          4 b2      

  Orbital symmetries:

     1 a1          2 a1          3 a1          4 a1          5 b2      
     6 a1          7 b1          8 b2          9 b1         10 a1      
    11 b2         12 a1         13 b1         14 a1         15 b2      
    16 a1         17 b2         18 a1      

             Final eigenvalues
             -----------------

              1      
    1  -20.5831
    2  -11.3367
    3   -1.4173
    4   -0.8683
    5   -0.6974
    6   -0.6528
    7   -0.5402
    8   -0.4355
    9    0.1458
   10    0.2499
   11    0.3395
   12    0.3750
   13    0.7328
   14    0.8282
   15    0.8313
   16    0.9917
   17    1.0930
   18    1.0969

                       ROHF Final Molecular Orbital Analysis
                       -------------------------------------

 Vector    2  Occ=2.000000D+00  E=-1.133667D+01  Symmetry=a1
              MO Center= -6.9D-19, -4.8D-18, -5.2D-01, r^2= 2.7D-02
   Bfn.  Coefficient  Atom+Function         Bfn.  Coefficient  Atom+Function  
  ----- ------------  ---------------      ----- ------------  ---------------
     5      0.995620  3 C  s          

 Vector    3  Occ=2.000000D+00  E=-1.417329D+00  Symmetry=a1
              MO Center= -1.6D-17, -2.4D-17,  3.3D-01, r^2= 4.8D-01
   Bfn.  Coefficient  Atom+Function         Bfn.  Coefficient  Atom+Function  
  ----- ------------  ---------------      ----- ------------  ---------------
    21      0.438867  4 O  s                 25      0.364694  4 O  s          
     6      0.216629  3 C  s                 20     -0.196586  4 O  s          
     9      0.184870  3 C  pz         

 Vector    4  Occ=2.000000D+00  E=-8.682564D-01  Symmetry=a1
              MO Center= -5.2D-18,  2.6D-16, -6.1D-01, r^2= 1.3D+00
   Bfn.  Coefficient  Atom+Function         Bfn.  Coefficient  Atom+Function  
  ----- ------------  ---------------      ----- ------------  ---------------
     6      0.334691  3 C  s                 10      0.312182  3 C  s          
    25     -0.268274  4 O  s                 21     -0.199990  4 O  s          
     9     -0.192067  3 C  pz                 1      0.179251  1 H  s          
     3      0.179251  2 H  s                  5     -0.160602  3 C  s          

 Vector    5  Occ=2.000000D+00  E=-6.973785D-01  Symmetry=b2
              MO Center=  2.9D-18,  4.0D-17, -3.0D-01, r^2= 1.3D+00
   Bfn.  Coefficient  Atom+Function         Bfn.  Coefficient  Atom+Function  
  ----- ------------  ---------------      ----- ------------  ---------------
     8      0.411656  3 C  py                23      0.349053  4 O  py         
    27      0.196521  4 O  py                 1      0.180050  1 H  s          
     3     -0.180050  2 H  s                 12      0.151994  3 C  py         

 Vector    6  Occ=2.000000D+00  E=-6.528278D-01  Symmetry=a1
              MO Center=  1.9D-16, -3.7D-17,  4.2D-01, r^2= 1.1D+00
   Bfn.  Coefficient  Atom+Function         Bfn.  Coefficient  Atom+Function  
  ----- ------------  ---------------      ----- ------------  ---------------
    24      0.512864  4 O  pz                 9     -0.372445  3 C  pz         
    25      0.332870  4 O  s                 28      0.282517  4 O  pz         
    21      0.160102  4 O  s          

 Vector    7  Occ=2.000000D+00  E=-5.401820D-01  Symmetry=b1
              MO Center= -1.3D-16, -2.5D-16,  2.7D-01, r^2= 9.3D-01
   Bfn.  Coefficient  Atom+Function         Bfn.  Coefficient  Atom+Function  
  ----- ------------  ---------------      ----- ------------  ---------------
    22      0.493445  4 O  px                26      0.348655  4 O  px         
     7      0.329295  3 C  px                11      0.200601  3 C  px         

 Vector    8  Occ=2.000000D+00  E=-4.354675D-01  Symmetry=b2
              MO Center= -7.1D-17,  7.9D-16,  2.9D-02, r^2= 1.6D+00
   Bfn.  Coefficient  Atom+Function         Bfn.  Coefficient  Atom+Function  
  ----- ------------  ---------------      ----- ------------  ---------------
    23      0.546628  4 O  py                27      0.433157  4 O  py         
     2     -0.243613  1 H  s                  4      0.243613  2 H  s          
     8     -0.205876  3 C  py                 1     -0.192895  1 H  s          
     3      0.192895  2 H  s          

 Vector    9  Occ=0.000000D+00  E= 1.458340D-01  Symmetry=b1
              MO Center=  2.6D-16, -2.8D-16, -2.5D-01, r^2= 1.6D+00
   Bfn.  Coefficient  Atom+Function         Bfn.  Coefficient  Atom+Function  
  ----- ------------  ---------------      ----- ------------  ---------------
    11      0.734440  3 C  px                26     -0.543113  4 O  px         
     7      0.397473  3 C  px                22     -0.380206  4 O  px         

 Vector   10  Occ=0.000000D+00  E= 2.498772D-01  Symmetry=a1
              MO Center=  7.6D-17,  2.2D-15, -1.2D+00, r^2= 3.1D+00
   Bfn.  Coefficient  Atom+Function         Bfn.  Coefficient  Atom+Function  
  ----- ------------  ---------------      ----- ------------  ---------------
    10      2.001056  3 C  s                  2     -1.483105  1 H  s          
     4     -1.483105  2 H  s                 13     -0.769944  3 C  pz         
     9     -0.215209  3 C  pz         

 Vector   11  Occ=0.000000D+00  E= 3.394749D-01  Symmetry=b2
              MO Center=  5.6D-17, -2.0D-14, -1.2D+00, r^2= 3.1D+00
   Bfn.  Coefficient  Atom+Function         Bfn.  Coefficient  Atom+Function  
  ----- ------------  ---------------      ----- ------------  ---------------
     2      1.785556  1 H  s                  4     -1.785556  2 H  s          
    12     -1.600617  3 C  py                 8     -0.442880  3 C  py         
    27      0.426962  4 O  py         

 Vector   12  Occ=0.000000D+00  E= 3.750117D-01  Symmetry=a1
              MO Center=  6.3D-17,  2.1D-14, -5.4D-01, r^2= 2.6D+00
   Bfn.  Coefficient  Atom+Function         Bfn.  Coefficient  Atom+Function  
  ----- ------------  ---------------      ----- ------------  ---------------
    25      2.421664  4 O  s                 13     -2.086549  3 C  pz         
    10     -1.842838  3 C  s                 28     -0.938087  4 O  pz         

 Vector   13  Occ=0.000000D+00  E= 7.328171D-01  Symmetry=b1
              MO Center=  2.7D-16,  3.3D-19, -5.4D-01, r^2= 1.7D+00
   Bfn.  Coefficient  Atom+Function         Bfn.  Coefficient  Atom+Function  
  ----- ------------  ---------------      ----- ------------  ---------------
    11     -1.098277  3 C  px                 7      1.068092  3 C  px         
    31     -0.160181  4 O  dxz        

 Vector   14  Occ=0.000000D+00  E= 8.282494D-01  Symmetry=a1
              MO Center= -6.7D-16, -1.8D-14, -1.0D+00, r^2= 1.7D+00
   Bfn.  Coefficient  Atom+Function         Bfn.  Coefficient  Atom+Function  
  ----- ------------  ---------------      ----- ------------  ---------------
    10      2.256085  3 C  s                 13     -0.885972  3 C  pz         
     6     -0.807876  3 C  s                  1     -0.567668  1 H  s          
     3     -0.567668  2 H  s                  2     -0.411226  1 H  s          
     4     -0.411226  2 H  s                  9      0.397700  3 C  pz         
    21     -0.255486  4 O  s                 28      0.246391  4 O  pz         

 Vector   15  Occ=0.000000D+00  E= 8.312582D-01  Symmetry=b2
              MO Center=  3.5D-17,  1.5D-14, -2.5D-01, r^2= 2.1D+00
   Bfn.  Coefficient  Atom+Function         Bfn.  Coefficient  Atom+Function  
  ----- ------------  ---------------      ----- ------------  ---------------
    12      2.376108  3 C  py                 2     -0.954644  1 H  s          
     4      0.954644  2 H  s                  8     -0.754668  3 C  py         
     1     -0.346438  1 H  s                  3      0.346438  2 H  s          
    23     -0.317032  4 O  py                27     -0.295499  4 O  py         

 Vector   16  Occ=0.000000D+00  E= 9.916847D-01  Symmetry=a1
              MO Center=  3.0D-16,  1.6D-15,  2.2D-01, r^2= 1.2D+00
   Bfn.  Coefficient  Atom+Function         Bfn.  Coefficient  Atom+Function  
  ----- ------------  ---------------      ----- ------------  ---------------
     9      0.931532  3 C  pz                 6      0.858171  3 C  s          
    28      0.689175  4 O  pz                13     -0.474198  3 C  pz         
    10     -0.438531  3 C  s                 21     -0.255653  4 O  s          
    24      0.204552  4 O  pz                34      0.153199  4 O  dzz        

 Vector   17  Occ=0.000000D+00  E= 1.092953D+00  Symmetry=b2
              MO Center= -1.6D-16,  1.7D-14, -8.4D-01, r^2= 1.9D+00
   Bfn.  Coefficient  Atom+Function         Bfn.  Coefficient  Atom+Function  
  ----- ------------  ---------------      ----- ------------  ---------------
     2      1.204854  1 H  s                  4     -1.204854  2 H  s          
    12     -0.971641  3 C  py                 8      0.762688  3 C  py         
     1     -0.730798  1 H  s                  3      0.730798  2 H  s          
    18      0.369068  3 C  dyz               33     -0.252931  4 O  dyz        

 Vector   18  Occ=0.000000D+00  E= 1.096899D+00  Symmetry=a1
              MO Center= -9.1D-16,  8.0D-15,  8.7D-01, r^2= 1.5D+00
   Bfn.  Coefficient  Atom+Function         Bfn.  Coefficient  Atom+Function  
  ----- ------------  ---------------      ----- ------------  ---------------
    28      1.048929  4 O  pz                24     -0.749903  4 O  pz         
    10      0.723500  3 C  s                 25      0.697300  4 O  s          
    21     -0.481401  4 O  s                 34     -0.382917  4 O  dzz        
     2     -0.330252  1 H  s                  4     -0.330252  2 H  s          
    19      0.324771  3 C  dzz                1      0.203596  1 H  s          


 center of mass
 --------------
 x =   0.00000000 y =   0.00000000 z =   0.13730975

 moments of inertia (a.u.)
 ------------------
          51.112649137069           0.000000000000           0.000000000000
           0.000000000000          44.965146994107           0.000000000000
           0.000000000000           0.000000000000           6.147502142962

  Mulliken analysis of the total density
  --------------------------------------

    Atom       Charge   Shell Charges
 -----------   ------   -------------------------------------------------------
    1 H    1     0.86   0.54  0.32
    2 H    1     0.86   0.54  0.32
    3 C    6     5.87   2.00  0.70  1.89  0.52  0.65  0.12
    4 O    8     8.42   2.00  0.92  2.83  0.92  1.70  0.05

       Multipole analysis of the density wrt the origin
       ------------------------------------------------

     L   x y z        total         open         nuclear
     -   - - -        -----         ----         -------
     0   0 0 0     -0.000000      0.000000     16.000000

     1   1 0 0      0.000000      0.000000      0.000000
     1   0 1 0     -0.000000      0.000000      0.000000
     1   0 0 1     -1.048971      0.000000      0.000000

     2   2 0 0     -8.511761      0.000000      0.000000
     2   1 1 0     -0.000000      0.000000      0.000000
     2   1 0 1     -0.000000      0.000000      0.000000
     2   0 2 0     -8.535305      0.000000      6.099771
     2   0 1 1      0.000000      0.000000      0.000000
     2   0 0 2     -8.861000      0.000000     27.061399


 Parallel integral file used       2 records with       0 large values

                              NWChem Gradients Module
                              -----------------------



  wavefunction    =   RHF     

  Using symmetry


                         RHF ENERGY GRADIENTS

    atom               coordinates                        gradient
                 x          y          z           x          y          z
   1 h       0.000000   1.746392  -2.079843    0.000000   0.000013  -0.000011
   2 h       0.000000  -1.746392  -2.079843    0.000000  -0.000013  -0.000011
   3 c       0.000000   0.000000  -0.981792    0.000000   0.000000   0.000017
   4 o       0.000000   0.000000   1.256305    0.000000   0.000000   0.000005

                 ----------------------------------------
                 |  Time  |  1-e(secs)   |  2-e(secs)   |
                 ----------------------------------------
                 |  CPU   |       0.00   |       0.17   |
                 ----------------------------------------
                 |  WALL  |       0.00   |       0.17   |
                 ----------------------------------------
  no constraints, skipping    0.0000000000000000     

@ Step       Energy      Delta E   Gmax     Grms     Xrms     Xmax   Walltime
@ ---- ---------------- -------- -------- -------- -------- -------- --------
@    0    -113.86633125  0.0D+00  0.00002  0.00001  0.00000  0.00000      0.3
                                     ok       ok       ok       ok  



                                Z-matrix (autoz)
                                -------- 

 Units are Angstrom for bonds and degrees for angles

      Type          Name      I     J     K     L     M      Value     Gradient
      ----------- --------  ----- ----- ----- ----- ----- ---------- ----------
    1 Stretch                  1     3                       1.09165    0.00002
    2 Stretch                  2     3                       1.09165    0.00002
    3 Stretch                  3     4                       1.18435    0.00001
    4 Bend                     1     3     2               115.68039   -0.00000
    5 Bend                     1     3     4               122.15980    0.00000
    6 Bend                     2     3     4               122.15980    0.00000
    7 Torsion                  1     3     2     4         180.00000    0.00000
    8 Torsion                  1     3     4     2         180.00000    0.00000
    9 Torsion                  2     3     1     4         180.00000    0.00000
   10 Torsion                  1     4     3     2         180.00000    0.00000
   11 Torsion                  2     1     3     4         180.00000    0.00000
   12 Torsion                  1     2     3     4         180.00000    0.00000

  no constraints, skipping    0.0000000000000000     
  no constraints, skipping    0.0000000000000000     
  no constraints, skipping    0.0000000000000000     
                                 NWChem SCF Module
                                 -----------------



  ao basis        = "ao basis"
  functions       =    34
  atoms           =     4
  closed shells   =     8
  open shells     =     0
  charge          =   0.00
  wavefunction    = RHF 
  input vectors   = ./h2co_dat.movecs
  output vectors  = ./h2co_dat.movecs
  use symmetry    = T
  symmetry adapt  = T


 Summary of "ao basis" -> "ao basis" (cartesian)
 ------------------------------------------------------------------------------
       Tag                 Description            Shells   Functions and Types
 ---------------- ------------------------------  ------  ---------------------
 h                           6-31g*                  2        2   2s
 c                           6-31g*                  6       15   3s2p1d
 o                           6-31g*                  6       15   3s2p1d


      Symmetry analysis of basis
      --------------------------

        a1         18
        a2          2
        b1          6
        b2          8


 Forming initial guess at       0.3s


 Loading old vectors from job with title :




      Symmetry analysis of molecular orbitals - initial
      -------------------------------------------------

  Numbering of irreducible representations: 

     1 a1          2 a2          3 b1          4 b2      

  Orbital symmetries:

     1 a1          2 a1          3 a1          4 a1          5 b2      
     6 a1          7 b1          8 b2          9 b1         10 a1      
    11 b2         12 a1         13 b1         14 a1         15 b2      
    16 a1         17 b2         18 a1      


 Starting SCF solution at       0.3s



 ----------------------------------------------
         Quadratically convergent ROHF

 Convergence threshold     :          1.000E-04
 Maximum no. of iterations :           30
 Final Fock-matrix accuracy:          1.000E-07
 ----------------------------------------------

  avail0,avail1,avail0-avail1                803816               803816                    0
  avail0,avail1,avail0-avail1                803816               803816                    0
  avail0,avail1,avail0-avail1                803816               803816                    0
  avail0,avail1,avail0-avail1                803816               803816                    0

 Integral file          = ./h2co_dat.aoints.0
 Record size in doubles =    65536    No. of integs per rec  =    43688
 Max. records in memory =        4    Max. records in file   =  1527249
 No. of bits per label  =        8    No. of bits per value  =       64


 #quartets = 6.507D+03 #integrals = 5.560D+04 #direct =  0.0% #cached =100.0%


              iter       energy          gnorm     gmax       time
             ----- ------------------- --------- --------- --------
                 1     -113.8663312564  9.37D-05  2.39D-05      0.3


       Final RHF  results 
       ------------------ 

         Total SCF energy =   -113.866331256365
      One-electron energy =   -218.268793972487
      Two-electron energy =     72.603165487838
 Nuclear repulsion energy =     31.799297228284

        Time for solution =      0.0s



       Symmetry analysis of molecular orbitals - final
       -----------------------------------------------

  Numbering of irreducible representations: 

     1 a1          2 a2          3 b1          4 b2      

  Orbital symmetries:

     1 a1          2 a1          3 a1          4 a1          5 b2      
     6 a1          7 b1          8 b2          9 b1         10 a1      
    11 b2         12 a1         13 b1         14 a1         15 b2      
    16 a1         17 b2         18 a1      

             Final eigenvalues
             -----------------

              1      
    1  -20.5831
    2  -11.3367
    3   -1.4173
    4   -0.8683
    5   -0.6974
    6   -0.6528
    7   -0.5402
    8   -0.4355
    9    0.1458
   10    0.2499
   11    0.3395
   12    0.3750
   13    0.7328
   14    0.8282
   15    0.8313
   16    0.9917
   17    1.0930
   18    1.0969

                       ROHF Final Molecular Orbital Analysis
                       -------------------------------------

 Vector    2  Occ=2.000000D+00  E=-1.133668D+01  Symmetry=a1
              MO Center= -6.9D-19, -4.8D-18, -5.2D-01, r^2= 2.7D-02
   Bfn.  Coefficient  Atom+Function         Bfn.  Coefficient  Atom+Function  
  ----- ------------  ---------------      ----- ------------  ---------------
     5      0.995620  3 C  s          

 Vector    3  Occ=2.000000D+00  E=-1.417330D+00  Symmetry=a1
              MO Center= -1.6D-17, -2.4D-17,  3.3D-01, r^2= 4.8D-01
   Bfn.  Coefficient  Atom+Function         Bfn.  Coefficient  Atom+Function  
  ----- ------------  ---------------      ----- ------------  ---------------
    21      0.438866  4 O  s                 25      0.364693  4 O  s          
     6      0.216630  3 C  s                 20     -0.196585  4 O  s          
     9      0.184869  3 C  pz         

 Vector    4  Occ=2.000000D+00  E=-8.682660D-01  Symmetry=a1
              MO Center= -5.2D-18,  2.6D-16, -6.1D-01, r^2= 1.3D+00
   Bfn.  Coefficient  Atom+Function         Bfn.  Coefficient  Atom+Function  
  ----- ------------  ---------------      ----- ------------  ---------------
     6      0.334687  3 C  s                 10      0.312181  3 C  s          
    25     -0.268271  4 O  s                 21     -0.199991  4 O  s          
     9     -0.192074  3 C  pz                 1      0.179252  1 H  s          
     3      0.179252  2 H  s                  5     -0.160602  3 C  s          

 Vector    5  Occ=2.000000D+00  E=-6.973881D-01  Symmetry=b2
              MO Center=  2.9D-18,  5.1D-17, -3.0D-01, r^2= 1.3D+00
   Bfn.  Coefficient  Atom+Function         Bfn.  Coefficient  Atom+Function  
  ----- ------------  ---------------      ----- ------------  ---------------
     8      0.411659  3 C  py                23      0.349039  4 O  py         
    27      0.196510  4 O  py                 1      0.180054  1 H  s          
     3     -0.180054  2 H  s                 12      0.151995  3 C  py         

 Vector    6  Occ=2.000000D+00  E=-6.528282D-01  Symmetry=a1
              MO Center=  1.9D-16, -4.6D-17,  4.2D-01, r^2= 1.1D+00
   Bfn.  Coefficient  Atom+Function         Bfn.  Coefficient  Atom+Function  
  ----- ------------  ---------------      ----- ------------  ---------------
    24      0.512867  4 O  pz                 9     -0.372442  3 C  pz         
    25      0.332874  4 O  s                 28      0.282518  4 O  pz         
    21      0.160104  4 O  s          

 Vector    7  Occ=2.000000D+00  E=-5.401824D-01  Symmetry=b1
              MO Center= -1.3D-16, -2.5D-16,  2.7D-01, r^2= 9.3D-01
   Bfn.  Coefficient  Atom+Function         Bfn.  Coefficient  Atom+Function  
  ----- ------------  ---------------      ----- ------------  ---------------
    22      0.493445  4 O  px                26      0.348655  4 O  px         
     7      0.329295  3 C  px                11      0.200601  3 C  px         

 Vector    8  Occ=2.000000D+00  E=-4.354702D-01  Symmetry=b2
              MO Center= -7.1D-17,  8.1D-16,  2.9D-02, r^2= 1.6D+00
   Bfn.  Coefficient  Atom+Function         Bfn.  Coefficient  Atom+Function  
  ----- ------------  ---------------      ----- ------------  ---------------
    23      0.546638  4 O  py                27      0.433163  4 O  py         
     2     -0.243610  1 H  s                  4      0.243610  2 H  s          
     8     -0.205866  3 C  py                 1     -0.192891  1 H  s          
     3      0.192891  2 H  s          

 Vector    9  Occ=0.000000D+00  E= 1.458320D-01  Symmetry=b1
              MO Center=  2.6D-16, -2.8D-16, -2.5D-01, r^2= 1.6D+00
   Bfn.  Coefficient  Atom+Function         Bfn.  Coefficient  Atom+Function  
  ----- ------------  ---------------      ----- ------------  ---------------
    11      0.734437  3 C  px                26     -0.543112  4 O  px         
     7      0.397476  3 C  px                22     -0.380205  4 O  px         

 Vector   10  Occ=0.000000D+00  E= 2.498820D-01  Symmetry=a1
              MO Center=  7.6D-17,  1.9D-15, -1.2D+00, r^2= 3.1D+00
   Bfn.  Coefficient  Atom+Function         Bfn.  Coefficient  Atom+Function  
  ----- ------------  ---------------      ----- ------------  ---------------
    10      2.001113  3 C  s                  2     -1.483150  1 H  s          
     4     -1.483150  2 H  s                 13     -0.769975  3 C  pz         
     9     -0.215209  3 C  pz         

 Vector   11  Occ=0.000000D+00  E= 3.394771D-01  Symmetry=b2
              MO Center=  5.6D-17, -2.0D-14, -1.2D+00, r^2= 3.1D+00
   Bfn.  Coefficient  Atom+Function         Bfn.  Coefficient  Atom+Function  
  ----- ------------  ---------------      ----- ------------  ---------------
     2      1.785635  1 H  s                  4     -1.785635  2 H  s          
    12     -1.600673  3 C  py                 8     -0.442877  3 C  py         
    27      0.426960  4 O  py         

 Vector   12  Occ=0.000000D+00  E= 3.750109D-01  Symmetry=a1
              MO Center=  6.3D-17,  2.1D-14, -5.4D-01, r^2= 2.6D+00
   Bfn.  Coefficient  Atom+Function         Bfn.  Coefficient  Atom+Function  
  ----- ------------  ---------------      ----- ------------  ---------------
    25      2.421653  4 O  s                 13     -2.086523  3 C  pz         
    10     -1.842878  3 C  s                 28     -0.938084  4 O  pz         

 Vector   13  Occ=0.000000D+00  E= 7.328147D-01  Symmetry=b1
              MO Center=  2.7D-16,  3.3D-19, -5.4D-01, r^2= 1.7D+00
   Bfn.  Coefficient  Atom+Function         Bfn.  Coefficient  Atom+Function  
  ----- ------------  ---------------      ----- ------------  ---------------
    11     -1.098279  3 C  px                 7      1.068091  3 C  px         
    31     -0.160180  4 O  dxz        

 Vector   14  Occ=0.000000D+00  E= 8.282376D-01  Symmetry=a1
              MO Center= -6.9D-16, -4.9D-16, -1.0D+00, r^2= 1.7D+00
   Bfn.  Coefficient  Atom+Function         Bfn.  Coefficient  Atom+Function  
  ----- ------------  ---------------      ----- ------------  ---------------
    10      2.256230  3 C  s                 13     -0.885922  3 C  pz         
     6     -0.807891  3 C  s                  1     -0.567658  1 H  s          
     3     -0.567658  2 H  s                  2     -0.411271  1 H  s          
     4     -0.411271  2 H  s                  9      0.397694  3 C  pz         
    21     -0.255480  4 O  s                 28      0.246427  4 O  pz         

 Vector   15  Occ=0.000000D+00  E= 8.312566D-01  Symmetry=b2
              MO Center=  3.5D-17, -2.4D-15, -2.5D-01, r^2= 2.1D+00
   Bfn.  Coefficient  Atom+Function         Bfn.  Coefficient  Atom+Function  
  ----- ------------  ---------------      ----- ------------  ---------------
    12      2.376217  3 C  py                 2     -0.954748  1 H  s          
     4      0.954748  2 H  s                  8     -0.754658  3 C  py         
     1     -0.346439  1 H  s                  3      0.346439  2 H  s          
    23     -0.317033  4 O  py                27     -0.295518  4 O  py         

 Vector   16  Occ=0.000000D+00  E= 9.916820D-01  Symmetry=a1
              MO Center=  3.0D-16,  1.5D-15,  2.2D-01, r^2= 1.2D+00
   Bfn.  Coefficient  Atom+Function         Bfn.  Coefficient  Atom+Function  
  ----- ------------  ---------------      ----- ------------  ---------------
     9      0.931541  3 C  pz                 6      0.858150  3 C  s          
    28      0.689157  4 O  pz                13     -0.474220  3 C  pz         
    10     -0.438510  3 C  s                 21     -0.255649  4 O  s          
    24      0.204562  4 O  pz                34      0.153203  4 O  dzz        

 Vector   17  Occ=0.000000D+00  E= 1.092972D+00  Symmetry=b2
              MO Center= -1.5D-29,  7.0D-16, -8.4D-01, r^2= 1.9D+00
   Bfn.  Coefficient  Atom+Function         Bfn.  Coefficient  Atom+Function  
  ----- ------------  ---------------      ----- ------------  ---------------
     2      1.204855  1 H  s                  4     -1.204855  2 H  s          
    12     -0.971644  3 C  py                 8      0.762706  3 C  py         
     1     -0.730796  1 H  s                  3      0.730796  2 H  s          
    18      0.369080  3 C  dyz               33     -0.252943  4 O  dyz        

 Vector   18  Occ=0.000000D+00  E= 1.096902D+00  Symmetry=a1
              MO Center= -9.1D-16, -2.4D-15,  8.7D-01, r^2= 1.5D+00
   Bfn.  Coefficient  Atom+Function         Bfn.  Coefficient  Atom+Function  
  ----- ------------  ---------------      ----- ------------  ---------------
    28      1.048943  4 O  pz                24     -0.749919  4 O  pz         
    10      0.723029  3 C  s                 25      0.697413  4 O  s          
    21     -0.481438  4 O  s                 34     -0.382931  4 O  dzz        
     2     -0.330045  1 H  s                  4     -0.330045  2 H  s          
    19      0.324797  3 C  dzz                1      0.203515  1 H  s          


 center of mass
 --------------
 x =   0.00000000 y =   0.00000000 z =   0.13728869

 moments of inertia (a.u.)
 ------------------
          51.112069687902           0.000000000000           0.000000000000
           0.000000000000          44.964727927389           0.000000000000
           0.000000000000           0.000000000000           6.147341760513

  Mulliken analysis of the total density
  --------------------------------------

    Atom       Charge   Shell Charges
 -----------   ------   -------------------------------------------------------
    1 H    1     0.86   0.54  0.32
    2 H    1     0.86   0.54  0.32
    3 C    6     5.87   2.00  0.70  1.89  0.52  0.65  0.12
    4 O    8     8.42   2.00  0.92  2.83  0.92  1.70  0.05

       Multipole analysis of the density wrt the origin
       ------------------------------------------------

     L   x y z        total         open         nuclear
     -   - - -        -----         ----         -------
     0   0 0 0     -0.000000      0.000000     16.000000

     1   1 0 0      0.000000      0.000000      0.000000
     1   0 1 0     -0.000000      0.000000      0.000000
     1   0 0 1     -1.048967      0.000000     -0.000292

     2   2 0 0     -8.511748      0.000000      0.000000
     2   1 1 0     -0.000000      0.000000      0.000000
     2   1 0 1     -0.000000      0.000000      0.000000
     2   0 2 0     -8.535320      0.000000      6.099612
     2   0 1 1      0.000000      0.000000      0.000000
     2   0 0 2     -8.861011      0.000000     27.061002


 Parallel integral file used       2 records with       0 large values

 Line search: 
     step= 1.00 grad=-1.7D-09 hess=-9.1D-10 energy=   -113.866331 mode=accept  
 new step= 1.00                   predicted energy=   -113.866331
  no constraints, skipping    0.0000000000000000     
  no constraints, skipping    0.0000000000000000     
  no constraints, skipping    0.0000000000000000     

          --------
          Step   1
          --------


                         Geometry "geometry" -> "geometry"
                         ---------------------------------

 Output coordinates in angstroms (scale by  1.889725989 to convert to a.u.)

  No.       Tag          Charge          X              Y              Z
 ---- ---------------- ---------- -------------- -------------- --------------
    1 h                    1.0000     0.00000000     0.92413896    -1.10059289
    2 h                    1.0000     0.00000000    -0.92413896    -1.10059289
    3 c                    6.0000     0.00000000     0.00000000    -0.51955491
    4 o                    8.0000     0.00000000     0.00000000     0.66479509

      Atomic Mass 
      ----------- 

      h                  1.007825
      c                 12.000000
      o                 15.994910


 Effective nuclear repulsion energy (a.u.)      31.7992972283

            Nuclear Dipole moment (a.u.) 
            ----------------------------
        X                 Y               Z
 ---------------- ---------------- ----------------
     0.0000000000     0.0000000000    -0.0002919161

      Symmetry information
      --------------------

 Group name             C2v       
 Group number             16
 Group order               4
 No. of unique centers     3

      Symmetry unique atoms

     1    3    4

                                 NWChem SCF Module
                                 -----------------



  ao basis        = "ao basis"
  functions       =    34
  atoms           =     4
  closed shells   =     8
  open shells     =     0
  charge          =   0.00
  wavefunction    = RHF 
  input vectors   = ./h2co_dat.movecs
  output vectors  = ./h2co_dat.movecs
  use symmetry    = T
  symmetry adapt  = T


 Summary of "ao basis" -> "ao basis" (cartesian)
 ------------------------------------------------------------------------------
       Tag                 Description            Shells   Functions and Types
 ---------------- ------------------------------  ------  ---------------------
 h                           6-31g*                  2        2   2s
 c                           6-31g*                  6       15   3s2p1d
 o                           6-31g*                  6       15   3s2p1d


      Symmetry analysis of basis
      --------------------------

        a1         18
        a2          2
        b1          6
        b2          8


  The SCF is already converged 

         Total SCF energy =   -113.866331256365

                              NWChem Gradients Module
                              -----------------------



  wavefunction    =   RHF     

  Using symmetry


                         RHF ENERGY GRADIENTS

    atom               coordinates                        gradient
                 x          y          z           x          y          z
   1 h       0.000000   1.746369  -2.079819    0.000000  -0.000003   0.000003
   2 h       0.000000  -1.746369  -2.079819    0.000000   0.000003   0.000003
   3 c       0.000000   0.000000  -0.981816    0.000000   0.000000  -0.000010
   4 o       0.000000   0.000000   1.256281    0.000000   0.000000   0.000004

                 ----------------------------------------
                 |  Time  |  1-e(secs)   |  2-e(secs)   |
                 ----------------------------------------
                 |  CPU   |       0.00   |       0.17   |
                 ----------------------------------------
                 |  WALL  |       0.00   |       0.17   |
                 ----------------------------------------
  no constraints, skipping    0.0000000000000000     

  Step       Energy      Delta E   Gmax     Grms     Xrms     Xmax   Walltime
  ---- ---------------- -------- -------- -------- -------- -------- --------
@    1    -113.86633126 -2.6D-09  0.00000  0.00000  0.00002  0.00002      0.5
                                     ok       ok       ok       ok  



                                Z-matrix (autoz)
                                -------- 

 Units are Angstrom for bonds and degrees for angles

      Type          Name      I     J     K     L     M      Value     Gradient
      ----------- --------  ----- ----- ----- ----- ----- ---------- ----------
    1 Stretch                  1     3                       1.09162   -0.00000
    2 Stretch                  2     3                       1.09162   -0.00000
    3 Stretch                  3     4                       1.18435    0.00000
    4 Bend                     1     3     2               115.68202    0.00000
    5 Bend                     1     3     4               122.15899   -0.00000
    6 Bend                     2     3     4               122.15899   -0.00000
    7 Torsion                  1     3     2     4         180.00000    0.00000
    8 Torsion                  1     3     4     2         180.00000    0.00000
    9 Torsion                  2     3     1     4         180.00000    0.00000
   10 Torsion                  1     4     3     2         180.00000    0.00000
   11 Torsion                  2     1     3     4         180.00000    0.00000
   12 Torsion                  1     2     3     4         180.00000    0.00000


      ----------------------
      Optimization converged
      ----------------------


  Step       Energy      Delta E   Gmax     Grms     Xrms     Xmax   Walltime
  ---- ---------------- -------- -------- -------- -------- -------- --------
@    1    -113.86633126 -2.6D-09  0.00000  0.00000  0.00002  0.00002      0.5
                                     ok       ok       ok       ok  



                                Z-matrix (autoz)
                                -------- 

 Units are Angstrom for bonds and degrees for angles

      Type          Name      I     J     K     L     M      Value     Gradient
      ----------- --------  ----- ----- ----- ----- ----- ---------- ----------
    1 Stretch                  1     3                       1.09162   -0.00000
    2 Stretch                  2     3                       1.09162   -0.00000
    3 Stretch                  3     4                       1.18435    0.00000
    4 Bend                     1     3     2               115.68202    0.00000
    5 Bend                     1     3     4               122.15899   -0.00000
    6 Bend                     2     3     4               122.15899   -0.00000
    7 Torsion                  1     3     2     4         180.00000    0.00000
    8 Torsion                  1     3     4     2         180.00000    0.00000
    9 Torsion                  2     3     1     4         180.00000    0.00000
   10 Torsion                  1     4     3     2         180.00000    0.00000
   11 Torsion                  2     1     3     4         180.00000    0.00000
   12 Torsion                  1     2     3     4         180.00000    0.00000



                         Geometry "geometry" -> "geometry"
                         ---------------------------------

 Output coordinates in angstroms (scale by  1.889725989 to convert to a.u.)

  No.       Tag          Charge          X              Y              Z
 ---- ---------------- ---------- -------------- -------------- --------------
    1 h                    1.0000     0.00000000     0.92413896    -1.10059289
    2 h                    1.0000     0.00000000    -0.92413896    -1.10059289
    3 c                    6.0000     0.00000000     0.00000000    -0.51955491
    4 o                    8.0000     0.00000000     0.00000000     0.66479509

      Atomic Mass 
      ----------- 

      h                  1.007825
      c                 12.000000
      o                 15.994910


 Effective nuclear repulsion energy (a.u.)      31.7992972283

            Nuclear Dipole moment (a.u.) 
            ----------------------------
        X                 Y               Z
 ---------------- ---------------- ----------------
     0.0000000000     0.0000000000    -0.0002919161

      Symmetry information
      --------------------

 Group name             C2v       
 Group number             16
 Group order               4
 No. of unique centers     3

      Symmetry unique atoms

     1    3    4


                Final and change from initial internal coordinates
                --------------------------------------------------



                                Z-matrix (autoz)
                                -------- 

 Units are Angstrom for bonds and degrees for angles

      Type          Name      I     J     K     L     M      Value       Change
      ----------- --------  ----- ----- ----- ----- ----- ---------- ----------
    1 Stretch                  1     3                       1.09162   -0.00002
    2 Stretch                  2     3                       1.09162   -0.00002
    3 Stretch                  3     4                       1.18435    0.00000
    4 Bend                     1     3     2               115.68202    0.00163
    5 Bend                     1     3     4               122.15899   -0.00082
    6 Bend                     2     3     4               122.15899   -0.00082
    7 Torsion                  1     3     2     4         180.00000    0.00000
    8 Torsion                  1     3     4     2         180.00000    0.00000
    9 Torsion                  2     3     1     4         180.00000    0.00000
   10 Torsion                  1     4     3     2         180.00000    0.00000
   11 Torsion                  2     1     3     4         180.00000    0.00000
   12 Torsion                  1     2     3     4         180.00000    0.00000

 ==============================================================================
                                internuclear distances
 ------------------------------------------------------------------------------
       center one      |      center two      | atomic units |  angstroms
 ------------------------------------------------------------------------------
    3 c                |   1 h                |     2.06287  |     1.09162
    3 c                |   2 h                |     2.06287  |     1.09162
    4 o                |   3 c                |     2.23810  |     1.18435
 ------------------------------------------------------------------------------
                         number of included internuclear distances:          3
 ==============================================================================



 ==============================================================================
                                 internuclear angles
 ------------------------------------------------------------------------------
        center 1       |       center 2       |       center 3       |  degrees
 ------------------------------------------------------------------------------
    1 h                |   3 c                |   2 h                |   115.68
    1 h                |   3 c                |   4 o                |   122.16
    2 h                |   3 c                |   4 o                |   122.16
 ------------------------------------------------------------------------------
                            number of included internuclear angles:          3
 ==============================================================================




 Task  times  cpu:        0.5s     wall:        0.5s


                                NWChem Input Module
                                -------------------


 Summary of allocated global arrays
-----------------------------------
  No active global arrays


MA_summarize_allocated_blocks: starting scan ...
MA_summarize_allocated_blocks: scan completed: 0 heap blocks, 0 stack blocks
MA usage statistics:

	allocation statistics:
					      heap	     stack
					      ----	     -----
	current number of blocks	         0	         0
	maximum number of blocks	        20	        29
	current total bytes		         0	         0
	maximum total bytes		   2111952	  26480856
	maximum total K-bytes		      2112	     26481
	maximum total M-bytes		         3	        27


                                     CITATION
                                     --------
                Please cite the following reference when publishing
                           results obtained with NWChem:

          E. Apra, E. J. Bylaska, W. A. de Jong, N. Govind, K. Kowalski,
       T. P. Straatsma, M. Valiev, H. J. J. van Dam, Y. Alexeev, J. Anchell,
       V. Anisimov, F. W. Aquino, R. Atta-Fynn, J. Autschbach, N. P. Bauman,
     J. C. Becca, D. E. Bernholdt, K. Bhaskaran-Nair, S. Bogatko, P. Borowski,
         J. Boschen, J. Brabec, A. Bruner, E. Cauet, Y. Chen, G. N. Chuev,
      C. J. Cramer, J. Daily, M. J. O. Deegan, T. H. Dunning Jr., M. Dupuis,
   K. G. Dyall, G. I. Fann, S. A. Fischer, A. Fonari, H. Fruchtl, L. Gagliardi,
      J. Garza, N. Gawande, S. Ghosh, K. Glaesemann, A. W. Gotz, J. Hammond,
       V. Helms, E. D. Hermes, K. Hirao, S. Hirata, M. Jacquelin, L. Jensen,
   B. G. Johnson, H. Jonsson, R. A. Kendall, M. Klemm, R. Kobayashi, V. Konkov,
      S. Krishnamoorthy, M. Krishnan, Z. Lin, R. D. Lins, R. J. Littlefield,
      A. J. Logsdail, K. Lopata, W. Ma, A. V. Marenich, J. Martin del Campo,
   D. Mejia-Rodriguez, J. E. Moore, J. M. Mullin, T. Nakajima, D. R. Nascimento,
    J. A. Nichols, P. J. Nichols, J. Nieplocha, A. Otero-de-la-Roza, B. Palmer,
    A. Panyala, T. Pirojsirikul, B. Peng, R. Peverati, J. Pittner, L. Pollack,
   R. M. Richard, P. Sadayappan, G. C. Schatz, W. A. Shelton, D. W. Silverstein,
   D. M. A. Smith, T. A. Soares, D. Song, M. Swart, H. L. Taylor, G. S. Thomas,
            V. Tipparaju, D. G. Truhlar, K. Tsemekhman, T. Van Voorhis,
      A. Vazquez-Mayagoitia, P. Verma, O. Villa, A. Vishnu, K. D. Vogiatzis,
        D. Wang, J. H. Weare, M. J. Williamson, T. L. Windus, K. Wolinski,
        A. T. Wong, Q. Wu, C. Yang, Q. Yu, M. Zacharias, Z. Zhang, Y. Zhao,
                                and R. J. Harrison
                        "NWChem: Past, present, and future
                         J. Chem. Phys. 152, 184102 (2020)
                               doi:10.1063/5.0004997

                                      AUTHORS
                                      -------
  E. Apra, E. J. Bylaska, N. Govind, K. Kowalski, M. Valiev, D. Mejia-Rodriguez,
       A. Kunitsa, N. P. Bauman, A. Panyala, W. A. de Jong, T. P. Straatsma,
   H. J. J. van Dam, D. Wang, T. L. Windus, J. Hammond, J. Autschbach, A. Woods,
    K. Bhaskaran-Nair, J. Brabec, K. Lopata, S. A. Fischer, S. Krishnamoorthy,
     M. Jacquelin, W. Ma, M. Klemm, O. Villa, Y. Chen, V. Anisimov, F. Aquino,
     S. Hirata, M. T. Hackler, E. Hermes, L. Jensen, J. E. Moore, J. C. Becca,
      V. Konjkov, T. Risthaus, M. Malagoli, A. Marenich, A. Otero-de-la-Roza,
        J. Mullin, P. Nichols, R. Peverati, J. Pittner, Y. Zhao, P.-D. Fan,
        A. Fonari, M. J. Williamson, R. J. Harrison, J. R. Rehr, M. Dupuis,
     D. Silverstein, D. M. A. Smith, J. Nieplocha, V. Tipparaju, M. Krishnan,
     B. E. Van Kuiken, A. Vazquez-Mayagoitia, M. Swart, Q. Wu, T. Van Voorhis,
     A. A. Auer, M. Nooijen, L. D. Crosby, E. Brown, G. Cisneros, G. I. Fann,
   H. Fruchtl, J. Garza, K. Hirao, R. A. Kendall, J. A. Nichols, K. Tsemekhman,
    K. Wolinski, J. Anchell, D. E. Bernholdt, P. Borowski, T. Clark, D. Clerc,
   H. Dachsel, M. J. O. Deegan, K. Dyall, D. Elwood, E. Glendening, M. Gutowski,
   A. C. Hess, J. Jaffe, B. G. Johnson, J. Ju, R. Kobayashi, R. Kutteh, Z. Lin,
   R. Littlefield, X. Long, B. Meng, T. Nakajima, S. Niu, L. Pollack, M. Rosing,
   K. Glaesemann, G. Sandrone, M. Stave, H. Taylor, G. Thomas, J. H. van Lenthe,
                               A. T. Wong, Z. Zhang.

 Total times  cpu:        0.5s     wall:        0.5s
