All connections between all procs tested: SUCCESS
 argument  1 = nwxc_pspw_4p.nw



============================== echo of input deck ==============================
# $Id$
echo

#memory 950 mb

start nwxc_dat

charge 0

geometry
  P  0.0 0.0 0.0
end

set nwpw:minimizer 2

# LDA exchange-correlation

nwpw
   mult 4
   simulation_cell
     boundary_conditions aperiodic
     ngrid 32 32 32
     SC 20.0      #Not checking automatic unit cell generation
   end
   lcao #added 3/26/10 because of changed default
   xc lda
end
task pspw energy

# GGA exchange-correlation

nwpw
   mult 4
   simulation_cell
     boundary_conditions aperiodic
     ngrid 32 32 32
     SC 20.0      #Not checking automatic unit cell generation
   end
   lcao #added 3/26/10 because of changed default
   xc blyp
end
task pspw energy

nwpw
   mult 4
   simulation_cell
     boundary_conditions aperiodic
     ngrid 32 32 32
     SC 20.0      #Not checking automatic unit cell generation
   end
   lcao #added 3/26/10 because of changed default
   xc pbe96
end
task pspw energy

nwpw
   mult 4
   simulation_cell
     boundary_conditions aperiodic
     ngrid 32 32 32
     SC 20.0      #Not checking automatic unit cell generation
   end
   lcao #added 3/26/10 because of changed default
   xc revpbe
end
task pspw energy

#nwpw
#   mult 4
#   simulation_cell
#     boundary_conditions aperiodic
#     ngrid 32 32 32
#     SC 20.0      #Not checking automatic unit cell generation
#   end
#   lcao #added 3/26/10 because of changed default
#   xc rpbe
#end
#task pspw energy

nwpw
   mult 4
   simulation_cell
     boundary_conditions aperiodic
     ngrid 32 32 32
     SC 20.0      #Not checking automatic unit cell generation
   end
   lcao #added 3/26/10 because of changed default
   xc pbesol
end
task pspw energy

nwpw
   mult 4
   simulation_cell
     boundary_conditions aperiodic
     ngrid 32 32 32
     SC 20.0      #Not checking automatic unit cell generation
   end
   lcao #added 3/26/10 because of changed default
   xc b3lyp
end
task pspw energy

nwpw
   mult 4
   simulation_cell
     boundary_conditions aperiodic
     ngrid 32 32 32
     SC 20.0      #Not checking automatic unit cell generation
   end
   lcao #added 3/26/10 because of changed default
   xc blyp0
end
task pspw energy

nwpw
   mult 4
   simulation_cell
     boundary_conditions aperiodic
     ngrid 32 32 32
     SC 20.0      #Not checking automatic unit cell generation
   end
   lcao #added 3/26/10 because of changed default
   xc bnl
end
task pspw energy

nwpw
   mult 4
   simulation_cell
     boundary_conditions aperiodic
     ngrid 32 32 32
     SC 20.0      #Not checking automatic unit cell generation
   end
   lcao #added 3/26/10 because of changed default
   xc hse
end
task pspw energy

nwpw
   mult 4
   simulation_cell
     boundary_conditions aperiodic
     ngrid 32 32 32
     SC 20.0      #Not checking automatic unit cell generation
   end
   lcao #added 3/26/10 because of changed default
   xc pbe0
end
task pspw energy

nwpw
   mult 4
   simulation_cell
     boundary_conditions aperiodic
     ngrid 32 32 32
     SC 20.0      #Not checking automatic unit cell generation
   end
   lcao #added 3/26/10 because of changed default
   xc revpbe0
end
task pspw energy
================================================================================


                                         
                                         


             Northwest Computational Chemistry Package (NWChem) 6.1.1
             --------------------------------------------------------


                    Environmental Molecular Sciences Laboratory
                       Pacific Northwest National Laboratory
                                Richland, WA 99352

                              Copyright (c) 1994-2012
                       Pacific Northwest National Laboratory
                            Battelle Memorial Institute

             NWChem is an open-source computational chemistry package
                        distributed under the terms of the
                      Educational Community License (ECL) 2.0
             A copy of the license is included with this distribution
                              in the LICENSE.TXT file

                                  ACKNOWLEDGMENT
                                  --------------

            This software and its documentation were developed at the
            EMSL at Pacific Northwest National Laboratory, a multiprogram
            national laboratory, operated for the U.S. Department of Energy
            by Battelle under Contract Number DE-AC05-76RL01830. Support
            for this work was provided by the Department of Energy Office
            of Biological and Environmental Research, Office of Basic
            Energy Sciences, and the Office of Advanced Scientific Computing.


           Job information
           ---------------

    hostname        = arcen
    program         = /home/d3y133/nwchem-dev/nwchem-ref/QA/../bin/LINUX64/nwchem
    date            = Thu Mar  7 09:25:08 2013

    compiled        = Tue_Mar_05_18:24:09_2013
    source          = /home/d3y133/nwchem-dev/nwchem-ref
    nwchem branch   = Development
    nwchem revision = 23625
    ga revision     = 10183
    input           = nwxc_pspw_4p.nw
    prefix          = nwxc_dat.
    data base       = /home/d3y133/nwchem-dev/nwchem-ref/QA/scratchdir/nwxc_dat.db
    status          = startup
    nproc           =        1
    time left       =     -1s



           Memory information
           ------------------

    heap     =   13107201 doubles =    100.0 Mbytes
    stack    =   13107201 doubles =    100.0 Mbytes
    global   =   26214400 doubles =    200.0 Mbytes (distinct from heap & stack)
    total    =   52428802 doubles =    400.0 Mbytes
    verify   = yes
    hardfail = no 


           Directory information
           ---------------------

  0 permanent = /home/d3y133/nwchem-dev/nwchem-ref/QA/scratchdir
  0 scratch   = /home/d3y133/nwchem-dev/nwchem-ref/QA/scratchdir




                                NWChem Input Module
                                -------------------



 Scaling coordinates for geometry "geometry" by  1.889725989
 (inverse scale =  0.529177249)



                             Geometry "geometry" -> ""
                             -------------------------

 Output coordinates in angstroms (scale by  1.889725989 to convert to a.u.)

  No.       Tag          Charge          X              Y              Z
 ---- ---------------- ---------- -------------- -------------- --------------
    1 P                   15.0000     0.00000000     0.00000000     0.00000000

      Atomic Mass 
      ----------- 

      P                 30.973760


 Effective nuclear repulsion energy (a.u.)       0.0000000000

            Nuclear Dipole moment (a.u.) 
            ----------------------------
        X                 Y               Z
 ---------------- ---------------- ----------------
     0.0000000000     0.0000000000     0.0000000000


            XYZ format geometry
            -------------------
     1
 geometry
 P                     0.00000000     0.00000000     0.00000000

          ****************************************************
          *                                                  *
          *               NWPW PSPW Calculation              *
          *                                                  *
          *  [ (Grassman/Stiefel manifold implementation) ]  *
          *                                                  *
          *      [ NorthWest Chemistry implementation ]      *
          *                                                  *
          *            version #5.10   06/12/02              *
          *                                                  *
          *    This code was developed by Eric J. Bylaska,   *
          *    and was based upon algorithms and code        *
          *    developed by the group of Prof. John H. Weare *
          *                                                  *
          ****************************************************
     >>>  JOB STARTED       AT Thu Mar  7 09:25:08 2013  <<<
          ================ input data ========================
  library name resolved from: environment
  NWCHEM_NWPW_LIBRARY set to: </home/d3y133/nwchem-dev/nwchem-ref/QA/../src/nwpw/libraryps/>
 Generating 1d pseudopotential for P   

 Generated formatted_filename: /home/d3y133/nwchem-dev/nwchem-ref/QA/scratchdir/P.vpp
  library name resolved from: environment
  NWCHEM_NWPW_LIBRARY set to: </home/d3y133/nwchem-dev/nwchem-ref/QA/../src/nwpw/libraryps/>

 Generated formatted atomic orbitals, filename: /home/d3y133/nwchem-dev/nwchem-ref/QA/scratchdir/P.aorb

 lcao guess, initial psi:nwxc_dat.movecs                                   
 -   spin, nalpha, nbeta:                    2                    4                    1

 input psi filename:/home/d3y133/nwchem-dev/nwchem-ref/QA/scratchdir/nwxc_dat.movecs

 number of processors used:         1
 processor grid           :   1 x   1
 parallel mapping         :2d hilbert
 parallel mapping         :  balanced
 parallel io              :       off

 options:
      boundary conditions  = aperiodic   (version4)
      electron spin        = unrestricted
      exchange-correlation = LDA (Vosko et al) parameterization

 elements involved in the cluster:
      1: P   valence charge:  5.0000  lmax=  2
             comment    : Hamann pseudopotential
             pseudpotential type            :   0
             highest angular component      :   2
             local potential used           :   2
             number of non-local projections:   4
             aperiodic cutoff radius        :  1.000
             cutoff =   0.936   1.092   1.092


 total charge:   0.000

 atomic composition:
     P   :    1

 number of electrons: spin up=     4 (   4 per task)  down=     1 (   1 per task) (fourier space)
 number of orbitals : spin up=     4 (   4 per task)  down=     1 (   1 per task) (fourier space)

 supercell:
      cell_name:  cell_default                                      
      lattice:    a1=<  20.000   0.000   0.000 >
                  a2=<   0.000  20.000   0.000 >
                  a3=<   0.000   0.000  20.000 >
      reciprocal: b1=<   0.314   0.000   0.000 >
                  b2=<   0.000   0.314   0.000 >
                  b3=<   0.000   0.000   0.314 >
      lattice:    a=      20.000 b=     20.000 c=      20.000
                  alpha=  90.000 beta=  90.000 gamma=  90.000
                  omega=      8000.0

      density cutoff= 12.633  fft= 32x 32x 32(     8536 waves     8536 per task)
      wavefnc cutoff= 12.633  fft= 32x 32x 32(     8536 waves     8536 per task)

 technical parameters:
      time step=      5.80     ficticious mass=  400000.0
      tolerance=.100E-06 (energy)   0.100E-06 (density)
      maximum iterations =      1000 (   10 inner    100 outer )





== Energy Calculation ==


          ============ Grassmann lmbfgs iteration ============
     >>>  ITERATION STARTED AT Thu Mar  7 09:25:47 2013  <<<
    iter.           Energy         DeltaE       DeltaRho 
    ------------------------------------------------------
     -  15 steepest descent iterations performed
      10   -0.6466890168E+01   -0.29825E-05    0.39352E-04
      20   -0.6466895265E+01   -0.70662E-07    0.52908E-07
  *** tolerance ok. iteration terminated
     >>>  ITERATION ENDED   AT Thu Mar  7 09:26:00 2013  <<<


==  Summary Of Results  ==

 number of electrons: spin up=    4.00000  down=    1.00000 (real space)

 total     energy    :  -0.6466895265E+01 (   -0.64669E+01/ion)
 total orbital energy:  -0.1684025197E+01 (   -0.33681E+00/electron)
 hartree   energy    :   0.5254762411E+01 (    0.10510E+01/electron)
 exc-corr  energy    :  -0.1523381321E+01 (   -0.30468E+00/electron)
 ion-ion   energy    :   0.0000000000E+00 (    0.00000E+00/ion)

 kinetic (planewave) :   0.2327534160E+01 (    0.46551E+00/electron)
 V_local (planewave) :  -0.1400820259E+02 (   -0.28016E+01/electron)
 V_nl    (planewave) :   0.1482392075E+01 (    0.29648E+00/electron)
 V_Coul  (planewave) :   0.1050952482E+02 (    0.21019E+01/electron)
 V_xc.   (planewave) :  -0.1995273664E+01 (   -0.39905E+00/electron)
 Virial Coefficient  :  -0.1723523300E+01

 orbital energies:
    -0.2309753E+00 (  -6.285eV)
    -0.2309753E+00 (  -6.285eV)
    -0.2309753E+00 (  -6.285eV)
    -0.5435541E+00 ( -14.791eV)    -0.4475452E+00 ( -12.178eV)

 Total PSPW energy   :  -0.6466895265E+01


=== Spin Contamination ===

 <Sexact^2> =    3.75000000000000     
 <S^2>      =    3.75103345990045     



== Center of Charge ==

spin up     (    0.0000,    0.0000,    0.0000 )
spin down   (    0.0000,    0.0000,    0.0000 )
     total  (    0.0000,    0.0000,    0.0000 )
ionic       (    0.0000,    0.0000,    0.0000 )
crystal     (    0.0000,    0.0000,    0.0000 )


== Crystal Dipole ==

mu   =  (    0.0000,    0.0000,    0.0000 ) au
|mu| =     0.0000 au,       0.0000 Debye


== Molecular Dipole wrt Center of Mass ==

mu   =  (    0.0000,    0.0000,    0.0000 ) au
|mu| =     0.0000 au,       0.0000 Debye

 output psi filename:/home/d3y133/nwchem-dev/nwchem-ref/QA/scratchdir/nwxc_dat.movecs


== Timing ==

cputime in seconds
  prologue    :   0.383462E+02
  main loop   :   0.135043E+02
  epilogue    :   0.116000E-01
  total       :   0.518620E+02
  cputime/step:   0.254797E+00       (      53 evalulations,      17 linesearches)


Time spent doing                        total          step       percent
  total time                 :   0.518623E+02  0.978534E+00       100.0 %
  i/o time                   :   0.245274E+02  0.462782E+00        47.3 %
  FFTs                       :   0.688754E+01  0.129954E+00        13.3 %
  dot products               :   0.540817E+00  0.102041E-01         1.0 %
  geodesic                   :   0.109207E+01  0.206052E-01         2.1 %
  ffm_dgemm                  :   0.242720E+00  0.457962E-02         0.5 %
  fmf_dgemm                  :   0.108819E+01  0.205319E-01         2.1 %
  m_diagonalize              :   0.119113E-02  0.224741E-04         0.0 %
  exchange correlation       :   0.349343E+01  0.659137E-01         6.7 %
  local pseudopotentials     :   0.379951E-01  0.716889E-03         0.1 %
  non-local pseudopotentials :   0.493071E+00  0.930322E-02         1.0 %
  structure factors          :   0.670521E+00  0.126513E-01         1.3 %
  phase factors              :   0.288486E-04  0.544314E-06         0.0 %
  masking and packing        :   0.603791E+00  0.113923E-01         1.2 %
  queue fft                  :   0.274976E+01  0.518822E-01         5.3 %
  queue fft (serial)         :   0.213954E+01  0.403687E-01         4.1 %
  queue fft (message passing):   0.571441E+00  0.107819E-01         1.1 %

     >>>  JOB COMPLETED     AT Thu Mar  7 09:26:00 2013  <<<

 Task  times  cpu:       51.8s     wall:       51.9s


                                NWChem Input Module
                                -------------------


          ****************************************************
          *                                                  *
          *               NWPW PSPW Calculation              *
          *                                                  *
          *  [ (Grassman/Stiefel manifold implementation) ]  *
          *                                                  *
          *      [ NorthWest Chemistry implementation ]      *
          *                                                  *
          *            version #5.10   06/12/02              *
          *                                                  *
          *    This code was developed by Eric J. Bylaska,   *
          *    and was based upon algorithms and code        *
          *    developed by the group of Prof. John H. Weare *
          *                                                  *
          ****************************************************
     >>>  JOB STARTED       AT Thu Mar  7 09:26:00 2013  <<<
          ================ input data ========================

 input psi filename:/home/d3y133/nwchem-dev/nwchem-ref/QA/scratchdir/nwxc_dat.movecs

 number of processors used:         1
 processor grid           :   1 x   1
 parallel mapping         :2d hilbert
 parallel mapping         :  balanced
 parallel io              :       off

 options:
      boundary conditions  = aperiodic   (version4)
      electron spin        = unrestricted
      exchange-correlation = BLYP (White and Bird) parameterization

 elements involved in the cluster:
      1: P   valence charge:  5.0000  lmax=  2
             comment    : Hamann pseudopotential
             pseudpotential type            :   0
             highest angular component      :   2
             local potential used           :   2
             number of non-local projections:   4
             aperiodic cutoff radius        :  1.000
             cutoff =   0.936   1.092   1.092


 total charge:   0.000

 atomic composition:
     P   :    1

 number of electrons: spin up=     4 (   4 per task)  down=     1 (   1 per task) (fourier space)
 number of orbitals : spin up=     4 (   4 per task)  down=     1 (   1 per task) (fourier space)

 supercell:
      cell_name:  cell_default                                      
      lattice:    a1=<  20.000   0.000   0.000 >
                  a2=<   0.000  20.000   0.000 >
                  a3=<   0.000   0.000  20.000 >
      reciprocal: b1=<   0.314   0.000   0.000 >
                  b2=<   0.000   0.314   0.000 >
                  b3=<   0.000   0.000   0.314 >
      lattice:    a=      20.000 b=     20.000 c=      20.000
                  alpha=  90.000 beta=  90.000 gamma=  90.000
                  omega=      8000.0

      density cutoff= 12.633  fft= 32x 32x 32(     8536 waves     8536 per task)
      wavefnc cutoff= 12.633  fft= 32x 32x 32(     8536 waves     8536 per task)

 technical parameters:
      time step=      5.80     ficticious mass=  400000.0
      tolerance=.100E-06 (energy)   0.100E-06 (density)
      maximum iterations =      1000 (   10 inner    100 outer )





== Energy Calculation ==


          ============ Grassmann lmbfgs iteration ============
     >>>  ITERATION STARTED AT Thu Mar  7 09:26:01 2013  <<<
    iter.           Energy         DeltaE       DeltaRho 
    ------------------------------------------------------
      10   -0.6526426302E+01   -0.11679E-02    0.87839E-03
     -  10 steepest descent iterations performed
      20   -0.6529984210E+01   -0.13273E-03    0.37112E-05
      30   -0.6530736879E+01    0.00000E+00    0.13665E-05
      40   -0.6530736879E+01   -0.17764E-14    0.28640E-31
  *** tolerance ok. iteration terminated
     >>>  ITERATION ENDED   AT Thu Mar  7 09:27:08 2013  <<<


==  Summary Of Results  ==

 number of electrons: spin up=    4.00000  down=    1.00000 (real space)

 total     energy    :  -0.6530736879E+01 (   -0.65307E+01/ion)
 total orbital energy:  -0.1687652606E+01 (   -0.33753E+00/electron)
 hartree   energy    :   0.5294125771E+01 (    0.10588E+01/electron)
 exc-corr  energy    :  -0.1627004851E+01 (   -0.32540E+00/electron)
 ion-ion   energy    :   0.0000000000E+00 (    0.00000E+00/ion)

 kinetic (planewave) :   0.2456060140E+01 (    0.49121E+00/electron)
 V_local (planewave) :  -0.1402125925E+02 (   -0.28043E+01/electron)
 V_nl    (planewave) :   0.1367341311E+01 (    0.27347E+00/electron)
 V_Coul  (planewave) :   0.1058825154E+02 (    0.21177E+01/electron)
 V_xc.   (planewave) :  -0.2078046349E+01 (   -0.41561E+00/electron)
 Virial Coefficient  :  -0.1687138144E+01

 orbital energies:
    -0.2262194E+00 (  -6.156eV)
    -0.2262199E+00 (  -6.156eV)
    -0.2262200E+00 (  -6.156eV)
    -0.5450192E+00 ( -14.831eV)    -0.4639742E+00 ( -12.625eV)

 Total PSPW energy   :  -0.6530736879E+01


=== Spin Contamination ===

 <Sexact^2> =    3.75000000000000     
 <S^2>      =    3.75151215354828     



== Center of Charge ==

spin up     (    0.0000,    0.0000,    0.0000 )
spin down   (    0.0001,    0.0000,    0.0000 )
     total  (    0.0000,    0.0000,    0.0000 )
ionic       (    0.0000,    0.0000,    0.0000 )
crystal     (    0.0000,    0.0000,    0.0000 )


== Crystal Dipole ==

mu   =  (    0.0000,    0.0000,    0.0000 ) au
|mu| =     0.0000 au,       0.0001 Debye


== Molecular Dipole wrt Center of Mass ==

mu   =  (    0.0000,    0.0000,    0.0000 ) au
|mu| =     0.0000 au,       0.0001 Debye

 output psi filename:/home/d3y133/nwchem-dev/nwchem-ref/QA/scratchdir/nwxc_dat.movecs


== Timing ==

cputime in seconds
  prologue    :   0.440366E+00
  main loop   :   0.669085E+02
  epilogue    :   0.123379E-01
  total       :   0.673612E+02
  cputime/step:   0.440187E+00       (     152 evalulations,      31 linesearches)


Time spent doing                        total          step       percent
  total time                 :   0.673614E+02  0.443167E+00       100.0 %
  i/o time                   :   0.244231E-01  0.160678E-03         0.0 %
  FFTs                       :   0.273860E+02  0.180171E+00        40.7 %
  dot products               :   0.110097E+01  0.724322E-02         1.6 %
  geodesic                   :   0.303548E+01  0.199702E-01         4.5 %
  ffm_dgemm                  :   0.301618E+00  0.198433E-02         0.4 %
  fmf_dgemm                  :   0.292377E+01  0.192353E-01         4.3 %
  m_diagonalize              :   0.190280E-02  0.125184E-04         0.0 %
  exchange correlation       :   0.376737E+02  0.247853E+00        55.9 %
  local pseudopotentials     :   0.186129E-01  0.122453E-03         0.0 %
  non-local pseudopotentials :   0.136634E+01  0.898908E-02         2.0 %
  structure factors          :   0.574028E-01  0.377650E-03         0.1 %
  phase factors              :   0.209798E-04  0.138025E-06         0.0 %
  masking and packing        :   0.848685E+00  0.558345E-02         1.3 %
  queue fft                  :   0.782396E+01  0.514734E-01        11.6 %
  queue fft (serial)         :   0.611202E+01  0.402106E-01         9.1 %
  queue fft (message passing):   0.160225E+01  0.105411E-01         2.4 %

     >>>  JOB COMPLETED     AT Thu Mar  7 09:27:08 2013  <<<

 Task  times  cpu:       67.3s     wall:       67.4s


                                NWChem Input Module
                                -------------------


          ****************************************************
          *                                                  *
          *               NWPW PSPW Calculation              *
          *                                                  *
          *  [ (Grassman/Stiefel manifold implementation) ]  *
          *                                                  *
          *      [ NorthWest Chemistry implementation ]      *
          *                                                  *
          *            version #5.10   06/12/02              *
          *                                                  *
          *    This code was developed by Eric J. Bylaska,   *
          *    and was based upon algorithms and code        *
          *    developed by the group of Prof. John H. Weare *
          *                                                  *
          ****************************************************
     >>>  JOB STARTED       AT Thu Mar  7 09:27:08 2013  <<<
          ================ input data ========================

 input psi filename:/home/d3y133/nwchem-dev/nwchem-ref/QA/scratchdir/nwxc_dat.movecs

 number of processors used:         1
 processor grid           :   1 x   1
 parallel mapping         :2d hilbert
 parallel mapping         :  balanced
 parallel io              :       off

 options:
      boundary conditions  = aperiodic   (version4)
      electron spin        = unrestricted
      exchange-correlation = PBE96 (White and Bird) parameterization

 elements involved in the cluster:
      1: P   valence charge:  5.0000  lmax=  2
             comment    : Hamann pseudopotential
             pseudpotential type            :   0
             highest angular component      :   2
             local potential used           :   2
             number of non-local projections:   4
             aperiodic cutoff radius        :  1.000
             cutoff =   0.936   1.092   1.092


 total charge:   0.000

 atomic composition:
     P   :    1

 number of electrons: spin up=     4 (   4 per task)  down=     1 (   1 per task) (fourier space)
 number of orbitals : spin up=     4 (   4 per task)  down=     1 (   1 per task) (fourier space)

 supercell:
      cell_name:  cell_default                                      
      lattice:    a1=<  20.000   0.000   0.000 >
                  a2=<   0.000  20.000   0.000 >
                  a3=<   0.000   0.000  20.000 >
      reciprocal: b1=<   0.314   0.000   0.000 >
                  b2=<   0.000   0.314   0.000 >
                  b3=<   0.000   0.000   0.314 >
      lattice:    a=      20.000 b=     20.000 c=      20.000
                  alpha=  90.000 beta=  90.000 gamma=  90.000
                  omega=      8000.0

      density cutoff= 12.633  fft= 32x 32x 32(     8536 waves     8536 per task)
      wavefnc cutoff= 12.633  fft= 32x 32x 32(     8536 waves     8536 per task)

 technical parameters:
      time step=      5.80     ficticious mass=  400000.0
      tolerance=.100E-06 (energy)   0.100E-06 (density)
      maximum iterations =      1000 (   10 inner    100 outer )





== Energy Calculation ==


          ============ Grassmann lmbfgs iteration ============
     >>>  ITERATION STARTED AT Thu Mar  7 09:27:08 2013  <<<
    iter.           Energy         DeltaE       DeltaRho 
    ------------------------------------------------------
      10   -0.6510799879E+01   -0.21267E-04    0.65827E-03
      20   -0.6510831343E+01   -0.14674E-06    0.33077E-06
      30   -0.6510831429E+01   -0.85354E-07    0.14746E-09
  *** tolerance ok. iteration terminated
     >>>  ITERATION ENDED   AT Thu Mar  7 09:27:29 2013  <<<


==  Summary Of Results  ==

 number of electrons: spin up=    4.00000  down=    1.00000 (real space)

 total     energy    :  -0.6510831429E+01 (   -0.65108E+01/ion)
 total orbital energy:  -0.1686992931E+01 (   -0.33740E+00/electron)
 hartree   energy    :   0.5290574553E+01 (    0.10581E+01/electron)
 exc-corr  energy    :  -0.1579382128E+01 (   -0.31588E+00/electron)
 ion-ion   energy    :   0.0000000000E+00 (    0.00000E+00/ion)

 kinetic (planewave) :   0.2369623311E+01 (    0.47392E+00/electron)
 V_local (planewave) :  -0.1406623657E+02 (   -0.28132E+01/electron)
 V_nl    (planewave) :   0.1474589409E+01 (    0.29492E+00/electron)
 V_Coul  (planewave) :   0.1058114911E+02 (    0.21162E+01/electron)
 V_xc.   (planewave) :  -0.2046118185E+01 (   -0.40922E+00/electron)
 Virial Coefficient  :  -0.1711924517E+01

 orbital energies:
    -0.2328619E+00 (  -6.337eV)
    -0.2328619E+00 (  -6.337eV)
    -0.2328619E+00 (  -6.337eV)
    -0.5470122E+00 ( -14.885eV)    -0.4413951E+00 ( -12.011eV)

 Total PSPW energy   :  -0.6510831429E+01


=== Spin Contamination ===

 <Sexact^2> =    3.75000000000000     
 <S^2>      =    3.75059451778094     



== Center of Charge ==

spin up     (    0.0000,    0.0000,    0.0000 )
spin down   (    0.0000,    0.0000,    0.0000 )
     total  (    0.0000,    0.0000,    0.0000 )
ionic       (    0.0000,    0.0000,    0.0000 )
crystal     (    0.0000,    0.0000,    0.0000 )


== Crystal Dipole ==

mu   =  (    0.0000,    0.0000,    0.0000 ) au
|mu| =     0.0000 au,       0.0000 Debye


== Molecular Dipole wrt Center of Mass ==

mu   =  (    0.0000,    0.0000,    0.0000 ) au
|mu| =     0.0000 au,       0.0000 Debye

 output psi filename:/home/d3y133/nwchem-dev/nwchem-ref/QA/scratchdir/nwxc_dat.movecs


== Timing ==

cputime in seconds
  prologue    :   0.472995E+00
  main loop   :   0.205310E+02
  epilogue    :   0.123389E-01
  total       :   0.210164E+02
  cputime/step:   0.427730E+00       (      48 evalulations,      21 linesearches)


Time spent doing                        total          step       percent
  total time                 :   0.210166E+02  0.437846E+00       100.0 %
  i/o time                   :   0.252659E-01  0.526374E-03         0.1 %
  FFTs                       :   0.925613E+01  0.192836E+00        44.0 %
  dot products               :   0.443787E+00  0.924557E-02         2.1 %
  geodesic                   :   0.142524E+01  0.296924E-01         6.8 %
  ffm_dgemm                  :   0.165848E+00  0.345517E-02         0.8 %
  fmf_dgemm                  :   0.134115E+01  0.279407E-01         6.4 %
  m_diagonalize              :   0.154852E-02  0.322608E-04         0.0 %
  exchange correlation       :   0.101096E+02  0.210617E+00        48.1 %
  local pseudopotentials     :   0.201828E-01  0.420476E-03         0.1 %
  non-local pseudopotentials :   0.455911E+00  0.949814E-02         2.2 %
  structure factors          :   0.189762E-01  0.395338E-03         0.1 %
  phase factors              :   0.672330E-04  0.140069E-05         0.0 %
  masking and packing        :   0.291385E+00  0.607051E-02         1.4 %
  queue fft                  :   0.262068E+01  0.545976E-01        12.5 %
  queue fft (serial)         :   0.204448E+01  0.425933E-01         9.7 %
  queue fft (message passing):   0.538699E+00  0.112229E-01         2.6 %

     >>>  JOB COMPLETED     AT Thu Mar  7 09:27:29 2013  <<<

 Task  times  cpu:       21.0s     wall:       21.0s


                                NWChem Input Module
                                -------------------


          ****************************************************
          *                                                  *
          *               NWPW PSPW Calculation              *
          *                                                  *
          *  [ (Grassman/Stiefel manifold implementation) ]  *
          *                                                  *
          *      [ NorthWest Chemistry implementation ]      *
          *                                                  *
          *            version #5.10   06/12/02              *
          *                                                  *
          *    This code was developed by Eric J. Bylaska,   *
          *    and was based upon algorithms and code        *
          *    developed by the group of Prof. John H. Weare *
          *                                                  *
          ****************************************************
     >>>  JOB STARTED       AT Thu Mar  7 09:27:29 2013  <<<
          ================ input data ========================

 input psi filename:/home/d3y133/nwchem-dev/nwchem-ref/QA/scratchdir/nwxc_dat.movecs

 number of processors used:         1
 processor grid           :   1 x   1
 parallel mapping         :2d hilbert
 parallel mapping         :  balanced
 parallel io              :       off

 options:
      boundary conditions  = aperiodic   (version4)
      electron spin        = unrestricted
      exchange-correlation = revPBE (White and Bird) parameterization

 elements involved in the cluster:
      1: P   valence charge:  5.0000  lmax=  2
             comment    : Hamann pseudopotential
             pseudpotential type            :   0
             highest angular component      :   2
             local potential used           :   2
             number of non-local projections:   4
             aperiodic cutoff radius        :  1.000
             cutoff =   0.936   1.092   1.092


 total charge:   0.000

 atomic composition:
     P   :    1

 number of electrons: spin up=     4 (   4 per task)  down=     1 (   1 per task) (fourier space)
 number of orbitals : spin up=     4 (   4 per task)  down=     1 (   1 per task) (fourier space)

 supercell:
      cell_name:  cell_default                                      
      lattice:    a1=<  20.000   0.000   0.000 >
                  a2=<   0.000  20.000   0.000 >
                  a3=<   0.000   0.000  20.000 >
      reciprocal: b1=<   0.314   0.000   0.000 >
                  b2=<   0.000   0.314   0.000 >
                  b3=<   0.000   0.000   0.314 >
      lattice:    a=      20.000 b=     20.000 c=      20.000
                  alpha=  90.000 beta=  90.000 gamma=  90.000
                  omega=      8000.0

      density cutoff= 12.633  fft= 32x 32x 32(     8536 waves     8536 per task)
      wavefnc cutoff= 12.633  fft= 32x 32x 32(     8536 waves     8536 per task)

 technical parameters:
      time step=      5.80     ficticious mass=  400000.0
      tolerance=.100E-06 (energy)   0.100E-06 (density)
      maximum iterations =      1000 (   10 inner    100 outer )





== Energy Calculation ==


          ============ Grassmann lmbfgs iteration ============
     >>>  ITERATION STARTED AT Thu Mar  7 09:27:29 2013  <<<
    iter.           Energy         DeltaE       DeltaRho 
    ------------------------------------------------------
      10   -0.6524362617E+01   -0.88818E-15    0.10638E-31
  *** tolerance ok. iteration terminated
     >>>  ITERATION ENDED   AT Thu Mar  7 09:27:35 2013  <<<


==  Summary Of Results  ==

 number of electrons: spin up=    4.00000  down=    1.00000 (real space)

 total     energy    :  -0.6524362617E+01 (   -0.65244E+01/ion)
 total orbital energy:  -0.1594650236E+01 (   -0.31893E+00/electron)
 hartree   energy    :   0.5290574553E+01 (    0.10581E+01/electron)
 exc-corr  energy    :  -0.1592913317E+01 (   -0.31858E+00/electron)
 ion-ion   energy    :   0.0000000000E+00 (    0.00000E+00/ion)

 kinetic (planewave) :   0.2369623311E+01 (    0.47392E+00/electron)
 V_local (planewave) :  -0.1406623657E+02 (   -0.28132E+01/electron)
 V_nl    (planewave) :   0.1474589409E+01 (    0.29492E+00/electron)
 V_Coul  (planewave) :   0.1058114911E+02 (    0.21162E+01/electron)
 V_xc.   (planewave) :  -0.1953775489E+01 (   -0.39076E+00/electron)
 Virial Coefficient  :  -0.1672955160E+01

 orbital energies:
    -0.2153740E+00 (  -5.861eV)
    -0.2153740E+00 (  -5.861eV)
    -0.2153741E+00 (  -5.861eV)
    -0.5277865E+00 ( -14.362eV)    -0.4207417E+00 ( -11.449eV)

 Total PSPW energy   :  -0.6524362617E+01


=== Spin Contamination ===

 <Sexact^2> =    3.75000000000000     
 <S^2>      =    3.75059451778094     



== Center of Charge ==

spin up     (    0.0000,    0.0000,    0.0000 )
spin down   (    0.0000,    0.0000,    0.0000 )
     total  (    0.0000,    0.0000,    0.0000 )
ionic       (    0.0000,    0.0000,    0.0000 )
crystal     (    0.0000,    0.0000,    0.0000 )


== Crystal Dipole ==

mu   =  (    0.0000,    0.0000,    0.0000 ) au
|mu| =     0.0000 au,       0.0000 Debye


== Molecular Dipole wrt Center of Mass ==

mu   =  (    0.0000,    0.0000,    0.0000 ) au
|mu| =     0.0000 au,       0.0000 Debye

 output psi filename:/home/d3y133/nwchem-dev/nwchem-ref/QA/scratchdir/nwxc_dat.movecs


== Timing ==

cputime in seconds
  prologue    :   0.472802E+00
  main loop   :   0.556941E+01
  epilogue    :   0.122960E-01
  total       :   0.605450E+01
  cputime/step:   0.428416E+00       (      13 evalulations,       1 linesearches)


Time spent doing                        total          step       percent
  total time                 :   0.605471E+01  0.465747E+00       100.0 %
  i/o time                   :   0.251930E-01  0.193792E-02         0.4 %
  FFTs                       :   0.254620E+01  0.195862E+00        42.1 %
  dot products               :   0.804967E-01  0.619206E-02         1.3 %
  geodesic                   :   0.192486E+00  0.148066E-01         3.2 %
  ffm_dgemm                  :   0.914383E-02  0.703372E-03         0.2 %
  fmf_dgemm                  :   0.189594E+00  0.145842E-01         3.1 %
  m_diagonalize              :   0.129700E-03  0.997690E-05         0.0 %
  exchange correlation       :   0.295442E+01  0.227263E+00        48.8 %
  local pseudopotentials     :   0.202360E-01  0.155662E-02         0.3 %
  non-local pseudopotentials :   0.124338E+00  0.956449E-02         2.1 %
  structure factors          :   0.540781E-02  0.415985E-03         0.1 %
  phase factors              :   0.190735E-04  0.146719E-05         0.0 %
  masking and packing        :   0.863927E-01  0.664559E-02         1.4 %
  queue fft                  :   0.713161E+00  0.548586E-01        11.8 %
  queue fft (serial)         :   0.555008E+00  0.426929E-01         9.2 %
  queue fft (message passing):   0.147439E+00  0.113414E-01         2.4 %

     >>>  JOB COMPLETED     AT Thu Mar  7 09:27:35 2013  <<<

 Task  times  cpu:        6.1s     wall:        6.1s


                                NWChem Input Module
                                -------------------


          ****************************************************
          *                                                  *
          *               NWPW PSPW Calculation              *
          *                                                  *
          *  [ (Grassman/Stiefel manifold implementation) ]  *
          *                                                  *
          *      [ NorthWest Chemistry implementation ]      *
          *                                                  *
          *            version #5.10   06/12/02              *
          *                                                  *
          *    This code was developed by Eric J. Bylaska,   *
          *    and was based upon algorithms and code        *
          *    developed by the group of Prof. John H. Weare *
          *                                                  *
          ****************************************************
     >>>  JOB STARTED       AT Thu Mar  7 09:27:35 2013  <<<
          ================ input data ========================

 input psi filename:/home/d3y133/nwchem-dev/nwchem-ref/QA/scratchdir/nwxc_dat.movecs

 number of processors used:         1
 processor grid           :   1 x   1
 parallel mapping         :2d hilbert
 parallel mapping         :  balanced
 parallel io              :       off

 options:
      boundary conditions  = aperiodic   (version4)
      electron spin        = unrestricted
      exchange-correlation = PBEsol (White and Bird) parameterization

 elements involved in the cluster:
      1: P   valence charge:  5.0000  lmax=  2
             comment    : Hamann pseudopotential
             pseudpotential type            :   0
             highest angular component      :   2
             local potential used           :   2
             number of non-local projections:   4
             aperiodic cutoff radius        :  1.000
             cutoff =   0.936   1.092   1.092


 total charge:   0.000

 atomic composition:
     P   :    1

 number of electrons: spin up=     4 (   4 per task)  down=     1 (   1 per task) (fourier space)
 number of orbitals : spin up=     4 (   4 per task)  down=     1 (   1 per task) (fourier space)

 supercell:
      cell_name:  cell_default                                      
      lattice:    a1=<  20.000   0.000   0.000 >
                  a2=<   0.000  20.000   0.000 >
                  a3=<   0.000   0.000  20.000 >
      reciprocal: b1=<   0.314   0.000   0.000 >
                  b2=<   0.000   0.314   0.000 >
                  b3=<   0.000   0.000   0.314 >
      lattice:    a=      20.000 b=     20.000 c=      20.000
                  alpha=  90.000 beta=  90.000 gamma=  90.000
                  omega=      8000.0

      density cutoff= 12.633  fft= 32x 32x 32(     8536 waves     8536 per task)
      wavefnc cutoff= 12.633  fft= 32x 32x 32(     8536 waves     8536 per task)

 technical parameters:
      time step=      5.80     ficticious mass=  400000.0
      tolerance=.100E-06 (energy)   0.100E-06 (density)
      maximum iterations =      1000 (   10 inner    100 outer )





== Energy Calculation ==


          ============ Grassmann lmbfgs iteration ============
     >>>  ITERATION STARTED AT Thu Mar  7 09:27:35 2013  <<<
    iter.           Energy         DeltaE       DeltaRho 
    ------------------------------------------------------
      10   -0.6483458029E+01   -0.91713E-07    0.10025E-04
      20   -0.6483458077E+01   -0.48097E-07    0.23402E-09
  *** tolerance ok. iteration terminated
     >>>  ITERATION ENDED   AT Thu Mar  7 09:27:46 2013  <<<


==  Summary Of Results  ==

 number of electrons: spin up=    4.00000  down=    1.00000 (real space)

 total     energy    :  -0.6483458077E+01 (   -0.64835E+01/ion)
 total orbital energy:  -0.1676344712E+01 (   -0.33527E+00/electron)
 hartree   energy    :   0.5276372094E+01 (    0.10553E+01/electron)
 exc-corr  energy    :  -0.1547243813E+01 (   -0.30945E+00/electron)
 ion-ion   energy    :   0.0000000000E+00 (    0.00000E+00/ion)

 kinetic (planewave) :   0.2351682276E+01 (    0.47034E+00/electron)
 V_local (planewave) :  -0.1403743981E+02 (   -0.28075E+01/electron)
 V_nl    (planewave) :   0.1473171174E+01 (    0.29463E+00/electron)
 V_Coul  (planewave) :   0.1055274419E+02 (    0.21105E+01/electron)
 V_xc.   (planewave) :  -0.2016502542E+01 (   -0.40330E+00/electron)
 Virial Coefficient  :  -0.1712827889E+01

 orbital energies:
    -0.2308457E+00 (  -6.282eV)
    -0.2308457E+00 (  -6.282eV)
    -0.2308457E+00 (  -6.282eV)
    -0.5439645E+00 ( -14.802eV)    -0.4398432E+00 ( -11.969eV)

 Total PSPW energy   :  -0.6483458077E+01


=== Spin Contamination ===

 <Sexact^2> =    3.75000000000000     
 <S^2>      =    3.75056883201895     



== Center of Charge ==

spin up     (    0.0000,    0.0000,    0.0000 )
spin down   (    0.0000,    0.0000,    0.0000 )
     total  (    0.0000,    0.0000,    0.0000 )
ionic       (    0.0000,    0.0000,    0.0000 )
crystal     (    0.0000,    0.0000,    0.0000 )


== Crystal Dipole ==

mu   =  (    0.0000,    0.0000,    0.0000 ) au
|mu| =     0.0000 au,       0.0000 Debye


== Molecular Dipole wrt Center of Mass ==

mu   =  (    0.0000,    0.0000,    0.0000 ) au
|mu| =     0.0000 au,       0.0000 Debye

 output psi filename:/home/d3y133/nwchem-dev/nwchem-ref/QA/scratchdir/nwxc_dat.movecs


== Timing ==

cputime in seconds
  prologue    :   0.472862E+00
  main loop   :   0.110253E+02
  epilogue    :   0.117610E-01
  total       :   0.115099E+02
  cputime/step:   0.424050E+00       (      26 evalulations,      11 linesearches)


Time spent doing                        total          step       percent
  total time                 :   0.115101E+02  0.442697E+00       100.0 %
  i/o time                   :   0.247722E-01  0.952776E-03         0.2 %
  FFTs                       :   0.499431E+01  0.192089E+00        43.4 %
  dot products               :   0.235689E+00  0.906496E-02         2.0 %
  geodesic                   :   0.735076E+00  0.282722E-01         6.4 %
  ffm_dgemm                  :   0.868028E-01  0.333857E-02         0.8 %
  fmf_dgemm                  :   0.694203E+00  0.267001E-01         6.0 %
  m_diagonalize              :   0.807997E-03  0.310768E-04         0.0 %
  exchange correlation       :   0.543380E+01  0.208992E+00        47.2 %
  local pseudopotentials     :   0.202270E-01  0.777960E-03         0.2 %
  non-local pseudopotentials :   0.245553E+00  0.944436E-02         2.1 %
  structure factors          :   0.105174E-01  0.404514E-03         0.1 %
  phase factors              :   0.181198E-04  0.696916E-06         0.0 %
  masking and packing        :   0.160863E+00  0.618704E-02         1.4 %
  queue fft                  :   0.141085E+01  0.542636E-01        12.3 %
  queue fft (serial)         :   0.109920E+01  0.422769E-01         9.5 %
  queue fft (message passing):   0.291263E+00  0.112024E-01         2.5 %

     >>>  JOB COMPLETED     AT Thu Mar  7 09:27:46 2013  <<<

 Task  times  cpu:       11.5s     wall:       11.5s


                                NWChem Input Module
                                -------------------


          ****************************************************
          *                                                  *
          *               NWPW PSPW Calculation              *
          *                                                  *
          *  [ (Grassman/Stiefel manifold implementation) ]  *
          *                                                  *
          *      [ NorthWest Chemistry implementation ]      *
          *                                                  *
          *            version #5.10   06/12/02              *
          *                                                  *
          *    This code was developed by Eric J. Bylaska,   *
          *    and was based upon algorithms and code        *
          *    developed by the group of Prof. John H. Weare *
          *                                                  *
          ****************************************************
     >>>  JOB STARTED       AT Thu Mar  7 09:27:46 2013  <<<
          ================ input data ========================

 input psi filename:/home/d3y133/nwchem-dev/nwchem-ref/QA/scratchdir/nwxc_dat.movecs

 number of processors used:         1
 processor grid           :   1 x   1
 parallel mapping         :2d hilbert
 parallel mapping         :  balanced
 parallel io              :       off

 options:
      boundary conditions  = aperiodic   (version4)
      electron spin        = unrestricted
      exchange-correlation = B3LYP (White and Bird) parameterization
      - HFX relaxed
      - HFX alpha orbitals:    1    2    3    4
      - HFX beta orbitals :    5
      - HFX free-space coulomb solver
      - HFX scaling parameter (pspw:HFX_parameter)     : 0.200E+00


 elements involved in the cluster:
      1: P   valence charge:  5.0000  lmax=  2
             comment    : Hamann pseudopotential
             pseudpotential type            :   0
             highest angular component      :   2
             local potential used           :   2
             number of non-local projections:   4
             aperiodic cutoff radius        :  1.000
             cutoff =   0.936   1.092   1.092


 total charge:   0.000

 atomic composition:
     P   :    1

 number of electrons: spin up=     4 (   4 per task)  down=     1 (   1 per task) (fourier space)
 number of orbitals : spin up=     4 (   4 per task)  down=     1 (   1 per task) (fourier space)

 supercell:
      cell_name:  cell_default                                      
      lattice:    a1=<  20.000   0.000   0.000 >
                  a2=<   0.000  20.000   0.000 >
                  a3=<   0.000   0.000  20.000 >
      reciprocal: b1=<   0.314   0.000   0.000 >
                  b2=<   0.000   0.314   0.000 >
                  b3=<   0.000   0.000   0.314 >
      lattice:    a=      20.000 b=     20.000 c=      20.000
                  alpha=  90.000 beta=  90.000 gamma=  90.000
                  omega=      8000.0

      density cutoff= 12.633  fft= 32x 32x 32(     8536 waves     8536 per task)
      wavefnc cutoff= 12.633  fft= 32x 32x 32(     8536 waves     8536 per task)

 technical parameters:
      time step=      5.80     ficticious mass=  400000.0
      tolerance=.100E-06 (energy)   0.100E-06 (density)
      maximum iterations =      1000 (   10 inner    100 outer )





== Energy Calculation ==


          ============ Grassmann lmbfgs iteration ============
     >>>  ITERATION STARTED AT Thu Mar  7 09:27:47 2013  <<<
    iter.           Energy         DeltaE       DeltaRho 
    ------------------------------------------------------
      10   -0.6519980506E+01   -0.88818E-15    0.33638E-05
      20   -0.6519980506E+01    0.88818E-15    0.42539E-31
  *** energy going up. iteration not terminated
  *** tolerance ok. iteration terminated
     >>>  ITERATION ENDED   AT Thu Mar  7 09:30:43 2013  <<<


==  Summary Of Results  ==

 number of electrons: spin up=    4.00000  down=    1.00000 (real space)

 total     energy    :  -0.6519980506E+01 (   -0.65200E+01/ion)
 total orbital energy:  -0.1901823868E+01 (   -0.38036E+00/electron)
 hartree   energy    :   0.5276914924E+01 (    0.10554E+01/electron)
 exc-corr  energy    :  -0.1291279801E+01 (   -0.25826E+00/electron)
 HF exchange energy  :  -0.2941197599E+00 (   -0.58824E-01/electron)
 ion-ion   energy    :   0.0000000000E+00 (    0.00000E+00/ion)

 kinetic (planewave) :   0.2356429731E+01 (    0.47129E+00/electron)
 V_local (planewave) :  -0.1403515679E+02 (   -0.28070E+01/electron)
 V_nl    (planewave) :   0.1467231194E+01 (    0.29345E+00/electron)
 V_Coul  (planewave) :   0.1055382985E+02 (    0.21108E+01/electron)
 V_xc.   (planewave) :  -0.1655918328E+01 (   -0.33118E+00/electron)
 K.S. HFX energy     :  -0.5882395197E+00 (   -0.11765E+00/electron)
 Virial Coefficient  :  -0.1557446857E+01

 orbital energies:
    -0.2652366E+00 (  -7.218eV)
    -0.2652366E+00 (  -7.218eV)
    -0.2652367E+00 (  -7.218eV)
    -0.6100867E+00 ( -16.601eV)    -0.4960273E+00 ( -13.498eV)

 Total PSPW energy   :  -0.6519980506E+01


=== Spin Contamination ===

 <Sexact^2> =    3.75000000000000     
 <S^2>      =    3.75067138847001     



== Center of Charge ==

spin up     (    0.0000,    0.0000,    0.0000 )
spin down   (    0.0000,    0.0000,    0.0000 )
     total  (    0.0000,    0.0000,    0.0000 )
ionic       (    0.0000,    0.0000,    0.0000 )
crystal     (    0.0000,    0.0000,    0.0000 )


== Crystal Dipole ==

mu   =  (    0.0000,    0.0000,    0.0000 ) au
|mu| =     0.0000 au,       0.0001 Debye


== Molecular Dipole wrt Center of Mass ==

mu   =  (    0.0000,    0.0000,    0.0000 ) au
|mu| =     0.0000 au,       0.0001 Debye

 output psi filename:/home/d3y133/nwchem-dev/nwchem-ref/QA/scratchdir/nwxc_dat.movecs


== Timing ==

cputime in seconds
  prologue    :   0.445572E+00
  main loop   :   0.176320E+03
  epilogue    :   0.116260E-01
  total       :   0.176777E+03
  cputime/step:   0.149424E+01       (     118 evalulations,      11 linesearches)


Time spent doing                        total          step       percent
  total time                 :   0.176778E+03  0.149812E+01       100.0 %
  i/o time                   :   0.240641E-01  0.203933E-03         0.0 %
  FFTs                       :   0.131165E+03  0.111156E+01        74.2 %
  dot products               :   0.696686E+00  0.590412E-02         0.4 %
  geodesic                   :   0.207523E+01  0.175867E-01         1.2 %
  ffm_dgemm                  :   0.821917E-01  0.696540E-03         0.0 %
  fmf_dgemm                  :   0.198717E+01  0.168404E-01         1.1 %
  m_diagonalize              :   0.770799E-03  0.653220E-05         0.0 %
  exchange correlation       :   0.360835E+02  0.305792E+00        20.4 %
  local pseudopotentials     :   0.189252E-01  0.160383E-03         0.0 %
  non-local pseudopotentials :   0.106480E+01  0.902376E-02         0.6 %
  structure factors          :   0.442791E-01  0.375247E-03         0.0 %
  phase factors              :   0.200272E-04  0.169722E-06         0.0 %
  masking and packing        :   0.660635E+00  0.559861E-02         0.4 %
  queue fft                  :   0.609755E+01  0.516742E-01         3.4 %
  queue fft (serial)         :   0.475415E+01  0.402894E-01         2.7 %
  queue fft (message passing):   0.125540E+01  0.106390E-01         0.7 %
  HFX potential              :   0.117666E+03  0.997169E+00        66.6 %

     >>>  JOB COMPLETED     AT Thu Mar  7 09:30:43 2013  <<<

 Task  times  cpu:      176.5s     wall:      176.8s


                                NWChem Input Module
                                -------------------


          ****************************************************
          *                                                  *
          *               NWPW PSPW Calculation              *
          *                                                  *
          *  [ (Grassman/Stiefel manifold implementation) ]  *
          *                                                  *
          *      [ NorthWest Chemistry implementation ]      *
          *                                                  *
          *            version #5.10   06/12/02              *
          *                                                  *
          *    This code was developed by Eric J. Bylaska,   *
          *    and was based upon algorithms and code        *
          *    developed by the group of Prof. John H. Weare *
          *                                                  *
          ****************************************************
     >>>  JOB STARTED       AT Thu Mar  7 09:30:43 2013  <<<
          ================ input data ========================

 input psi filename:/home/d3y133/nwchem-dev/nwchem-ref/QA/scratchdir/nwxc_dat.movecs

 number of processors used:         1
 processor grid           :   1 x   1
 parallel mapping         :2d hilbert
 parallel mapping         :  balanced
 parallel io              :       off

 options:
      boundary conditions  = aperiodic   (version4)
      electron spin        = unrestricted
      exchange-correlation = BLYP0 (White and Bird) parameterization
      - HFX relaxed
      - HFX alpha orbitals:    1    2    3    4
      - HFX beta orbitals :    5
      - HFX free-space coulomb solver
      - HFX scaling parameter (pspw:HFX_parameter)     : 0.250E+00


 elements involved in the cluster:
      1: P   valence charge:  5.0000  lmax=  2
             comment    : Hamann pseudopotential
             pseudpotential type            :   0
             highest angular component      :   2
             local potential used           :   2
             number of non-local projections:   4
             aperiodic cutoff radius        :  1.000
             cutoff =   0.936   1.092   1.092


 total charge:   0.000

 atomic composition:
     P   :    1

 number of electrons: spin up=     4 (   4 per task)  down=     1 (   1 per task) (fourier space)
 number of orbitals : spin up=     4 (   4 per task)  down=     1 (   1 per task) (fourier space)

 supercell:
      cell_name:  cell_default                                      
      lattice:    a1=<  20.000   0.000   0.000 >
                  a2=<   0.000  20.000   0.000 >
                  a3=<   0.000   0.000  20.000 >
      reciprocal: b1=<   0.314   0.000   0.000 >
                  b2=<   0.000   0.314   0.000 >
                  b3=<   0.000   0.000   0.314 >
      lattice:    a=      20.000 b=     20.000 c=      20.000
                  alpha=  90.000 beta=  90.000 gamma=  90.000
                  omega=      8000.0

      density cutoff= 12.633  fft= 32x 32x 32(     8536 waves     8536 per task)
      wavefnc cutoff= 12.633  fft= 32x 32x 32(     8536 waves     8536 per task)

 technical parameters:
      time step=      5.80     ficticious mass=  400000.0
      tolerance=.100E-06 (energy)   0.100E-06 (density)
      maximum iterations =      1000 (   10 inner    100 outer )





== Energy Calculation ==


          ============ Grassmann lmbfgs iteration ============
     >>>  ITERATION STARTED AT Thu Mar  7 09:30:43 2013  <<<
    iter.           Energy         DeltaE       DeltaRho 
    ------------------------------------------------------
      10   -0.6516855735E+01    0.88818E-15    0.99579E-04
  *** energy going up. iteration not terminated
     -  10 steepest descent iterations performed
      20   -0.6518767978E+01    0.88818E-15    0.81125E-05
  *** energy going up. iteration not terminated
     -  10 steepest descent iterations performed
      30   -0.6519532438E+01   -0.16834E-04    0.13614E-05
     -  10 steepest descent iterations performed
      40   -0.6519941599E+01    0.00000E+00    0.11198E-05
      50   -0.6519941599E+01   -0.26645E-14    0.65578E-31
  *** tolerance ok. iteration terminated
     >>>  ITERATION ENDED   AT Thu Mar  7 09:40:10 2013  <<<


==  Summary Of Results  ==

 number of electrons: spin up=    4.00000  down=    1.00000 (real space)

 total     energy    :  -0.6519941599E+01 (   -0.65199E+01/ion)
 total orbital energy:  -0.1933184431E+01 (   -0.38664E+00/electron)
 hartree   energy    :   0.5299640465E+01 (    0.10599E+01/electron)
 exc-corr  energy    :  -0.1233938355E+01 (   -0.24679E+00/electron)
 HF exchange energy  :  -0.3698598239E+00 (   -0.73972E-01/electron)
 ion-ion   energy    :   0.0000000000E+00 (    0.00000E+00/ion)

 kinetic (planewave) :   0.2421884462E+01 (    0.48438E+00/electron)
 V_local (planewave) :  -0.1404780719E+02 (   -0.28096E+01/electron)
 V_nl    (planewave) :   0.1410138841E+01 (    0.28203E+00/electron)
 V_Coul  (planewave) :   0.1059928093E+02 (    0.21199E+01/electron)
 V_xc.   (planewave) :  -0.1576961828E+01 (   -0.31539E+00/electron)
 K.S. HFX energy     :  -0.7397196478E+00 (   -0.14794E+00/electron)
 Virial Coefficient  :  -0.1492783534E+01

 orbital energies:
    -0.2700074E+00 (  -7.347eV)
    -0.2700080E+00 (  -7.347eV)
    -0.2700085E+00 (  -7.347eV)
    -0.6213703E+00 ( -16.908eV)    -0.5017902E+00 ( -13.655eV)

 Total PSPW energy   :  -0.6519941599E+01


=== Spin Contamination ===

 <Sexact^2> =    3.75000000000000     
 <S^2>      =    3.75084610757188     



== Center of Charge ==

spin up     (    0.0000,    0.0000,    0.0000 )
spin down   (    0.0000,    0.0000,    0.0000 )
     total  (    0.0000,    0.0000,    0.0000 )
ionic       (    0.0000,    0.0000,    0.0000 )
crystal     (    0.0000,    0.0000,    0.0000 )


== Crystal Dipole ==

mu   =  (    0.0000,    0.0000,    0.0000 ) au
|mu| =     0.0001 au,       0.0001 Debye


== Molecular Dipole wrt Center of Mass ==

mu   =  (    0.0000,    0.0000,    0.0000 ) au
|mu| =     0.0001 au,       0.0001 Debye

 output psi filename:/home/d3y133/nwchem-dev/nwchem-ref/QA/scratchdir/nwxc_dat.movecs


== Timing ==

cputime in seconds
  prologue    :   0.445929E+00
  main loop   :   0.566629E+03
  epilogue    :   0.116432E-01
  total       :   0.567086E+03
  cputime/step:   0.151101E+01       (     375 evalulations,      41 linesearches)


Time spent doing                        total          step       percent
  total time                 :   0.567086E+03  0.151223E+01       100.0 %
  i/o time                   :   0.238874E-01  0.636997E-04         0.0 %
  FFTs                       :   0.440167E+03  0.117378E+01        77.6 %
  dot products               :   0.251118E+01  0.669648E-02         0.4 %
  geodesic                   :   0.647962E+01  0.172790E-01         1.1 %
  ffm_dgemm                  :   0.537588E+00  0.143357E-02         0.1 %
  fmf_dgemm                  :   0.631116E+01  0.168298E-01         1.1 %
  m_diagonalize              :   0.276968E-02  0.738582E-05         0.0 %
  exchange correlation       :   0.959585E+02  0.255889E+00        16.9 %
  local pseudopotentials     :   0.189080E-01  0.504214E-04         0.0 %
  non-local pseudopotentials :   0.344057E+01  0.917485E-02         0.6 %
  structure factors          :   0.144327E+00  0.384873E-03         0.0 %
  phase factors              :   0.138283E-04  0.368754E-07         0.0 %
  masking and packing        :   0.226499E+01  0.603998E-02         0.4 %
  queue fft                  :   0.207002E+02  0.552006E-01         3.7 %
  queue fft (serial)         :   0.159435E+02  0.425160E-01         2.8 %
  queue fft (message passing):   0.445845E+01  0.118892E-01         0.8 %
  HFX potential              :   0.394997E+03  0.105333E+01        69.7 %

     >>>  JOB COMPLETED     AT Thu Mar  7 09:40:10 2013  <<<

 Task  times  cpu:      539.4s     wall:      567.1s


                                NWChem Input Module
                                -------------------


          ****************************************************
          *                                                  *
          *               NWPW PSPW Calculation              *
          *                                                  *
          *  [ (Grassman/Stiefel manifold implementation) ]  *
          *                                                  *
          *      [ NorthWest Chemistry implementation ]      *
          *                                                  *
          *            version #5.10   06/12/02              *
          *                                                  *
          *    This code was developed by Eric J. Bylaska,   *
          *    and was based upon algorithms and code        *
          *    developed by the group of Prof. John H. Weare *
          *                                                  *
          ****************************************************
     >>>  JOB STARTED       AT Thu Mar  7 09:40:10 2013  <<<
          ================ input data ========================

 input psi filename:/home/d3y133/nwchem-dev/nwchem-ref/QA/scratchdir/nwxc_dat.movecs

 number of processors used:         1
 processor grid           :   1 x   1
 parallel mapping         :2d hilbert
 parallel mapping         :  balanced
 parallel io              :       off

 options:
      boundary conditions  = aperiodic   (version4)
      electron spin        = unrestricted
      exchange-correlation = BNL (White and Bird) parameterization
      - HFX relaxed
      - HFX alpha orbitals:    1    2    3    4
      - HFX beta orbitals :    5
      - HFX free-space coulomb solver


 elements involved in the cluster:
      1: P   valence charge:  5.0000  lmax=  2
             comment    : Hamann pseudopotential
             pseudpotential type            :   0
             highest angular component      :   2
             local potential used           :   2
             number of non-local projections:   4
             aperiodic cutoff radius        :  1.000
             cutoff =   0.936   1.092   1.092


 total charge:   0.000

 atomic composition:
     P   :    1

 number of electrons: spin up=     4 (   4 per task)  down=     1 (   1 per task) (fourier space)
 number of orbitals : spin up=     4 (   4 per task)  down=     1 (   1 per task) (fourier space)

 supercell:
      cell_name:  cell_default                                      
      lattice:    a1=<  20.000   0.000   0.000 >
                  a2=<   0.000  20.000   0.000 >
                  a3=<   0.000   0.000  20.000 >
      reciprocal: b1=<   0.314   0.000   0.000 >
                  b2=<   0.000   0.314   0.000 >
                  b3=<   0.000   0.000   0.314 >
      lattice:    a=      20.000 b=     20.000 c=      20.000
                  alpha=  90.000 beta=  90.000 gamma=  90.000
                  omega=      8000.0

      density cutoff= 12.633  fft= 32x 32x 32(     8536 waves     8536 per task)
      wavefnc cutoff= 12.633  fft= 32x 32x 32(     8536 waves     8536 per task)

 technical parameters:
      time step=      5.80     ficticious mass=  400000.0
      tolerance=.100E-06 (energy)   0.100E-06 (density)
      maximum iterations =      1000 (   10 inner    100 outer )





== Energy Calculation ==


          ============ Grassmann lmbfgs iteration ============
     >>>  ITERATION STARTED AT Thu Mar  7 09:40:11 2013  <<<
    iter.           Energy         DeltaE       DeltaRho 
    ------------------------------------------------------
      10   -0.6407768069E+01   -0.18243E-04    0.50543E-03
      20   -0.6407784450E+01   -0.17516E-07    0.28037E-06
      30   -0.6407784459E+01   -0.84948E-08    0.47941E-11
  *** tolerance ok. iteration terminated
     >>>  ITERATION ENDED   AT Thu Mar  7 09:41:10 2013  <<<


==  Summary Of Results  ==

 number of electrons: spin up=    4.00000  down=    1.00000 (real space)

 total     energy    :  -0.6407784459E+01 (   -0.64078E+01/ion)
 total orbital energy:  -0.2589417090E+01 (   -0.51788E+00/electron)
 hartree   energy    :   0.5295825635E+01 (    0.10592E+01/electron)
 exc-corr  energy    :   0.0000000000E+00 (    0.00000E+00/electron)
 HF exchange energy  :  -0.1477458266E+01 (   -0.29549E+00/electron)
 ion-ion   energy    :   0.0000000000E+00 (    0.00000E+00/ion)

 kinetic (planewave) :   0.2351233213E+01 (    0.47025E+00/electron)
 V_local (planewave) :  -0.1408078786E+02 (   -0.28162E+01/electron)
 V_nl    (planewave) :   0.1503402817E+01 (    0.30068E+00/electron)
 V_Coul  (planewave) :   0.1059165127E+02 (    0.21183E+01/electron)
 V_xc.   (planewave) :   0.0000000000E+00 (    0.00000E+00/electron)
 K.S. HFX energy     :  -0.2954916531E+01 (   -0.59098E+00/electron)
 Virial Coefficient  :  -0.8445498986E+00

 orbital energies:
    -0.3979378E+00 ( -10.829eV)
    -0.3979378E+00 ( -10.829eV)
    -0.3979378E+00 ( -10.829eV)
    -0.8445217E+00 ( -22.981eV)    -0.5510820E+00 ( -14.996eV)

 Total PSPW energy   :  -0.6407784459E+01


=== Spin Contamination ===

 <Sexact^2> =    3.75000000000000     
 <S^2>      =    3.75112963451709     



== Center of Charge ==

spin up     (    0.0000,    0.0000,    0.0000 )
spin down   (    0.0000,    0.0000,    0.0000 )
     total  (    0.0000,    0.0000,    0.0000 )
ionic       (    0.0000,    0.0000,    0.0000 )
crystal     (    0.0000,    0.0000,    0.0000 )


== Crystal Dipole ==

mu   =  (    0.0000,    0.0000,    0.0000 ) au
|mu| =     0.0000 au,       0.0000 Debye


== Molecular Dipole wrt Center of Mass ==

mu   =  (    0.0000,    0.0000,    0.0000 ) au
|mu| =     0.0000 au,       0.0000 Debye

 output psi filename:/home/d3y133/nwchem-dev/nwchem-ref/QA/scratchdir/nwxc_dat.movecs


== Timing ==

cputime in seconds
  prologue    :   0.447565E+00
  main loop   :   0.597309E+02
  epilogue    :   0.124271E-01
  total       :   0.601909E+02
  cputime/step:   0.124439E+01       (      48 evalulations,      21 linesearches)


Time spent doing                        total          step       percent
  total time                 :   0.601912E+02  0.125398E+01       100.0 %
  i/o time                   :   0.248621E-01  0.517959E-03         0.0 %
  FFTs                       :   0.507311E+02  0.105690E+01        84.3 %
  dot products               :   0.425003E+00  0.885423E-02         0.7 %
  geodesic                   :   0.135952E+01  0.283233E-01         2.3 %
  ffm_dgemm                  :   0.156549E+00  0.326143E-02         0.3 %
  fmf_dgemm                  :   0.128066E+01  0.266803E-01         2.1 %
  m_diagonalize              :   0.148605E-02  0.309593E-04         0.0 %
  local pseudopotentials     :   0.189822E-01  0.395462E-03         0.0 %
  non-local pseudopotentials :   0.521971E+00  0.108744E-01         0.9 %
  structure factors          :   0.101736E+00  0.211950E-02         0.2 %
  phase factors              :   0.219345E-04  0.456969E-06         0.0 %
  masking and packing        :   0.261618E+00  0.545038E-02         0.4 %
  queue fft                  :   0.250820E+01  0.522542E-01         4.2 %
  queue fft (serial)         :   0.195342E+01  0.406962E-01         3.2 %
  queue fft (message passing):   0.518534E+00  0.108028E-01         0.9 %
  HFX potential              :   0.495114E+02  0.103149E+01        82.3 %

     >>>  JOB COMPLETED     AT Thu Mar  7 09:41:10 2013  <<<

 Task  times  cpu:       59.0s     wall:       60.2s


                                NWChem Input Module
                                -------------------


          ****************************************************
          *                                                  *
          *               NWPW PSPW Calculation              *
          *                                                  *
          *  [ (Grassman/Stiefel manifold implementation) ]  *
          *                                                  *
          *      [ NorthWest Chemistry implementation ]      *
          *                                                  *
          *            version #5.10   06/12/02              *
          *                                                  *
          *    This code was developed by Eric J. Bylaska,   *
          *    and was based upon algorithms and code        *
          *    developed by the group of Prof. John H. Weare *
          *                                                  *
          ****************************************************
     >>>  JOB STARTED       AT Thu Mar  7 09:41:10 2013  <<<
          ================ input data ========================

 input psi filename:/home/d3y133/nwchem-dev/nwchem-ref/QA/scratchdir/nwxc_dat.movecs

 number of processors used:         1
 processor grid           :   1 x   1
 parallel mapping         :2d hilbert
 parallel mapping         :  balanced
 parallel io              :       off

 options:
      boundary conditions  = aperiodic   (version4)
      electron spin        = unrestricted
      exchange-correlation = HSE (White and Bird) parameterization
      - HFX relaxed
      - HFX alpha orbitals:    1    2    3    4
      - HFX beta orbitals :    5
      - HFX free-space coulomb solver
      - HFX scaling parameter (pspw:HFX_parameter)     : 0.250E+00


 elements involved in the cluster:
      1: P   valence charge:  5.0000  lmax=  2
             comment    : Hamann pseudopotential
             pseudpotential type            :   0
             highest angular component      :   2
             local potential used           :   2
             number of non-local projections:   4
             aperiodic cutoff radius        :  1.000
             cutoff =   0.936   1.092   1.092


 total charge:   0.000

 atomic composition:
     P   :    1

 number of electrons: spin up=     4 (   4 per task)  down=     1 (   1 per task) (fourier space)
 number of orbitals : spin up=     4 (   4 per task)  down=     1 (   1 per task) (fourier space)

 supercell:
      cell_name:  cell_default                                      
      lattice:    a1=<  20.000   0.000   0.000 >
                  a2=<   0.000  20.000   0.000 >
                  a3=<   0.000   0.000  20.000 >
      reciprocal: b1=<   0.314   0.000   0.000 >
                  b2=<   0.000   0.314   0.000 >
                  b3=<   0.000   0.000   0.314 >
      lattice:    a=      20.000 b=     20.000 c=      20.000
                  alpha=  90.000 beta=  90.000 gamma=  90.000
                  omega=      8000.0

      density cutoff= 12.633  fft= 32x 32x 32(     8536 waves     8536 per task)
      wavefnc cutoff= 12.633  fft= 32x 32x 32(     8536 waves     8536 per task)

 technical parameters:
      time step=      5.80     ficticious mass=  400000.0
      tolerance=.100E-06 (energy)   0.100E-06 (density)
      maximum iterations =      1000 (   10 inner    100 outer )





== Energy Calculation ==


          ============ Grassmann lmbfgs iteration ============
     >>>  ITERATION STARTED AT Thu Mar  7 09:41:11 2013  <<<
    iter.           Energy         DeltaE       DeltaRho 
    ------------------------------------------------------
      10   -0.6644848212E+01   -0.21899E-05    0.34754E-04
      20   -0.6644851374E+01   -0.69021E-07    0.42487E-07
  *** tolerance ok. iteration terminated
     >>>  ITERATION ENDED   AT Thu Mar  7 09:42:23 2013  <<<


==  Summary Of Results  ==

 number of electrons: spin up=    4.00000  down=    1.00000 (real space)

 total     energy    :  -0.6644851374E+01 (   -0.66449E+01/ion)
 total orbital energy:  -0.2067372993E+01 (   -0.41347E+00/electron)
 hartree   energy    :   0.5313413394E+01 (    0.10627E+01/electron)
 exc-corr  energy    :  -0.1349428142E+01 (   -0.26989E+00/electron)
 HF exchange energy  :  -0.3705176563E+00 (   -0.74104E-01/electron)
 ion-ion   energy    :   0.0000000000E+00 (    0.00000E+00/ion)

 kinetic (planewave) :   0.2378842645E+01 (    0.47577E+00/electron)
 V_local (planewave) :  -0.1410765969E+02 (   -0.28215E+01/electron)
 V_nl    (planewave) :   0.1490498080E+01 (    0.29810E+00/electron)
 V_Coul  (planewave) :   0.1062682679E+02 (    0.21254E+01/electron)
 V_xc.   (planewave) :  -0.1714845498E+01 (   -0.34297E+00/electron)
 K.S. HFX energy     :  -0.7410353126E+00 (   -0.14821E+00/electron)
 Virial Coefficient  :  -0.1557555870E+01

 orbital energies:
    -0.3034302E+00 (  -8.257eV)
    -0.3034302E+00 (  -8.257eV)
    -0.3034302E+00 (  -8.257eV)
    -0.6514422E+00 ( -17.727eV)    -0.5056402E+00 ( -13.759eV)

 Total PSPW energy   :  -0.6644851374E+01


=== Spin Contamination ===

 <Sexact^2> =    3.75000000000000     
 <S^2>      =    3.75046539311478     



== Center of Charge ==

spin up     (    0.0000,    0.0000,    0.0000 )
spin down   (    0.0000,    0.0000,    0.0000 )
     total  (    0.0000,    0.0000,    0.0000 )
ionic       (    0.0000,    0.0000,    0.0000 )
crystal     (    0.0000,    0.0000,    0.0000 )


== Crystal Dipole ==

mu   =  (    0.0000,    0.0000,    0.0000 ) au
|mu| =     0.0000 au,       0.0000 Debye


== Molecular Dipole wrt Center of Mass ==

mu   =  (    0.0000,    0.0000,    0.0000 ) au
|mu| =     0.0000 au,       0.0000 Debye

 output psi filename:/home/d3y133/nwchem-dev/nwchem-ref/QA/scratchdir/nwxc_dat.movecs


== Timing ==

cputime in seconds
  prologue    :   0.452555E+00
  main loop   :   0.725594E+02
  epilogue    :   0.161030E-01
  total       :   0.730281E+02
  cputime/step:   0.190946E+01       (      38 evalulations,      17 linesearches)


Time spent doing                        total          step       percent
  total time                 :   0.730285E+02  0.192180E+01       100.0 %
  i/o time                   :   0.287437E-01  0.756414E-03         0.0 %
  FFTs                       :   0.476038E+02  0.125273E+01        65.2 %
  dot products               :   0.252885E+01  0.665488E-01         3.5 %
  geodesic                   :   0.114804E+01  0.302115E-01         1.6 %
  ffm_dgemm                  :   0.229084E+01  0.602852E-01         3.1 %
  fmf_dgemm                  :   0.108293E+01  0.284982E-01         1.5 %
  m_diagonalize              :   0.297378E-02  0.782575E-04         0.0 %
  exchange correlation       :   0.188049E+02  0.494866E+00        25.8 %
  local pseudopotentials     :   0.192029E-01  0.505341E-03         0.0 %
  non-local pseudopotentials :   0.386026E+00  0.101586E-01         0.5 %
  structure factors          :   0.144086E-01  0.379173E-03         0.0 %
  phase factors              :   0.188341E-04  0.495633E-06         0.0 %
  masking and packing        :   0.235936E+00  0.620885E-02         0.3 %
  queue fft                  :   0.212676E+01  0.559673E-01         2.9 %
  queue fft (serial)         :   0.165130E+01  0.434553E-01         2.3 %
  queue fft (message passing):   0.445292E+00  0.117182E-01         0.6 %
  HFX potential              :   0.425789E+02  0.112050E+01        58.3 %

     >>>  JOB COMPLETED     AT Thu Mar  7 09:42:23 2013  <<<

 Task  times  cpu:       63.7s     wall:       73.0s


                                NWChem Input Module
                                -------------------


          ****************************************************
          *                                                  *
          *               NWPW PSPW Calculation              *
          *                                                  *
          *  [ (Grassman/Stiefel manifold implementation) ]  *
          *                                                  *
          *      [ NorthWest Chemistry implementation ]      *
          *                                                  *
          *            version #5.10   06/12/02              *
          *                                                  *
          *    This code was developed by Eric J. Bylaska,   *
          *    and was based upon algorithms and code        *
          *    developed by the group of Prof. John H. Weare *
          *                                                  *
          ****************************************************
     >>>  JOB STARTED       AT Thu Mar  7 09:42:23 2013  <<<
          ================ input data ========================

 input psi filename:/home/d3y133/nwchem-dev/nwchem-ref/QA/scratchdir/nwxc_dat.movecs

 number of processors used:         1
 processor grid           :   1 x   1
 parallel mapping         :2d hilbert
 parallel mapping         :  balanced
 parallel io              :       off

 options:
      boundary conditions  = aperiodic   (version4)
      electron spin        = unrestricted
      exchange-correlation = PBE0 (White and Bird) parameterization
      - HFX relaxed
      - HFX alpha orbitals:    1    2    3    4
      - HFX beta orbitals :    5
      - HFX free-space coulomb solver
      - HFX scaling parameter (pspw:HFX_parameter)     : 0.250E+00


 elements involved in the cluster:
      1: P   valence charge:  5.0000  lmax=  2
             comment    : Hamann pseudopotential
             pseudpotential type            :   0
             highest angular component      :   2
             local potential used           :   2
             number of non-local projections:   4
             aperiodic cutoff radius        :  1.000
             cutoff =   0.936   1.092   1.092


 total charge:   0.000

 atomic composition:
     P   :    1

 number of electrons: spin up=     4 (   4 per task)  down=     1 (   1 per task) (fourier space)
 number of orbitals : spin up=     4 (   4 per task)  down=     1 (   1 per task) (fourier space)

 supercell:
      cell_name:  cell_default                                      
      lattice:    a1=<  20.000   0.000   0.000 >
                  a2=<   0.000  20.000   0.000 >
                  a3=<   0.000   0.000  20.000 >
      reciprocal: b1=<   0.314   0.000   0.000 >
                  b2=<   0.000   0.314   0.000 >
                  b3=<   0.000   0.000   0.314 >
      lattice:    a=      20.000 b=     20.000 c=      20.000
                  alpha=  90.000 beta=  90.000 gamma=  90.000
                  omega=      8000.0

      density cutoff= 12.633  fft= 32x 32x 32(     8536 waves     8536 per task)
      wavefnc cutoff= 12.633  fft= 32x 32x 32(     8536 waves     8536 per task)

 technical parameters:
      time step=      5.80     ficticious mass=  400000.0
      tolerance=.100E-06 (energy)   0.100E-06 (density)
      maximum iterations =      1000 (   10 inner    100 outer )





== Energy Calculation ==


          ============ Grassmann lmbfgs iteration ============
     >>>  ITERATION STARTED AT Thu Mar  7 09:42:24 2013  <<<
    iter.           Energy         DeltaE       DeltaRho 
    ------------------------------------------------------
      10   -0.6515526148E+01   -0.25068E-06    0.23984E-05
      20   -0.6515526461E+01   -0.62108E-07    0.37285E-08
  *** tolerance ok. iteration terminated
     >>>  ITERATION ENDED   AT Thu Mar  7 09:43:12 2013  <<<


==  Summary Of Results  ==

 number of electrons: spin up=    4.00000  down=    1.00000 (real space)

 total     energy    :  -0.6515526461E+01 (   -0.65155E+01/ion)
 total orbital energy:  -0.1944514496E+01 (   -0.38890E+00/electron)
 hartree   energy    :   0.5300499590E+01 (    0.10601E+01/electron)
 exc-corr  energy    :  -0.1217036065E+01 (   -0.24341E+00/electron)
 HF exchange energy  :  -0.3695077326E+00 (   -0.73902E-01/electron)
 ion-ion   energy    :   0.0000000000E+00 (    0.00000E+00/ion)

 kinetic (planewave) :   0.2368263481E+01 (    0.47365E+00/electron)
 V_local (planewave) :  -0.1408399771E+02 (   -0.28168E+01/electron)
 V_nl    (planewave) :   0.1486251979E+01 (    0.29725E+00/electron)
 V_Coul  (planewave) :   0.1060099918E+02 (    0.21202E+01/electron)
 V_xc.   (planewave) :  -0.1577015958E+01 (   -0.31540E+00/electron)
 K.S. HFX energy     :  -0.7390154652E+00 (   -0.14780E+00/electron)
 Virial Coefficient  :  -0.1509022345E+01

 orbital energies:
    -0.2787752E+00 (  -7.586eV)
    -0.2787753E+00 (  -7.586eV)
    -0.2787753E+00 (  -7.586eV)
    -0.6263083E+00 ( -17.043eV)    -0.4818804E+00 ( -13.113eV)

 Total PSPW energy   :  -0.6515526461E+01


=== Spin Contamination ===

 <Sexact^2> =    3.75000000000000     
 <S^2>      =    3.75051806731668     



== Center of Charge ==

spin up     (    0.0000,    0.0000,    0.0000 )
spin down   (    0.0000,    0.0000,    0.0000 )
     total  (    0.0000,    0.0000,    0.0000 )
ionic       (    0.0000,    0.0000,    0.0000 )
crystal     (    0.0000,    0.0000,    0.0000 )


== Crystal Dipole ==

mu   =  (    0.0000,    0.0000,    0.0000 ) au
|mu| =     0.0000 au,       0.0000 Debye


== Molecular Dipole wrt Center of Mass ==

mu   =  (    0.0000,    0.0000,    0.0000 ) au
|mu| =     0.0000 au,       0.0000 Debye

 output psi filename:/home/d3y133/nwchem-dev/nwchem-ref/QA/scratchdir/nwxc_dat.movecs


== Timing ==

cputime in seconds
  prologue    :   0.447173E+00
  main loop   :   0.482763E+02
  epilogue    :   0.119069E-01
  total       :   0.487354E+02
  cputime/step:   0.160921E+01       (      30 evalulations,      13 linesearches)


Time spent doing                        total          step       percent
  total time                 :   0.487356E+02  0.162452E+01       100.0 %
  i/o time                   :   0.242951E-01  0.809836E-03         0.0 %
  FFTs                       :   0.378085E+02  0.126028E+01        77.6 %
  dot products               :   0.307521E+00  0.102507E-01         0.6 %
  geodesic                   :   0.867887E+00  0.289296E-01         1.8 %
  ffm_dgemm                  :   0.977414E-01  0.325805E-02         0.2 %
  fmf_dgemm                  :   0.823493E+00  0.274498E-01         1.7 %
  m_diagonalize              :   0.112199E-02  0.373998E-04         0.0 %
  exchange correlation       :   0.664982E+01  0.221661E+00        13.6 %
  local pseudopotentials     :   0.189521E-01  0.631738E-03         0.0 %
  non-local pseudopotentials :   0.365068E+00  0.121689E-01         0.7 %
  structure factors          :   0.131674E-01  0.438913E-03         0.0 %
  phase factors              :   0.188351E-04  0.627836E-06         0.0 %
  masking and packing        :   0.272986E+00  0.909953E-02         0.6 %
  queue fft                  :   0.231372E+01  0.771240E-01         4.7 %
  queue fft (serial)         :   0.173850E+01  0.579501E-01         3.6 %
  queue fft (message passing):   0.551287E+00  0.183762E-01         1.1 %
  HFX potential              :   0.338617E+02  0.112872E+01        69.5 %

     >>>  JOB COMPLETED     AT Thu Mar  7 09:43:12 2013  <<<

 Task  times  cpu:       43.1s     wall:       48.7s


                                NWChem Input Module
                                -------------------


          ****************************************************
          *                                                  *
          *               NWPW PSPW Calculation              *
          *                                                  *
          *  [ (Grassman/Stiefel manifold implementation) ]  *
          *                                                  *
          *      [ NorthWest Chemistry implementation ]      *
          *                                                  *
          *            version #5.10   06/12/02              *
          *                                                  *
          *    This code was developed by Eric J. Bylaska,   *
          *    and was based upon algorithms and code        *
          *    developed by the group of Prof. John H. Weare *
          *                                                  *
          ****************************************************
     >>>  JOB STARTED       AT Thu Mar  7 09:43:12 2013  <<<
          ================ input data ========================

 input psi filename:/home/d3y133/nwchem-dev/nwchem-ref/QA/scratchdir/nwxc_dat.movecs

 number of processors used:         1
 processor grid           :   1 x   1
 parallel mapping         :2d hilbert
 parallel mapping         :  balanced
 parallel io              :       off

 options:
      boundary conditions  = aperiodic   (version4)
      electron spin        = unrestricted
      exchange-correlation = revPBE0 (White and Bird) parameterization
      - HFX relaxed
      - HFX alpha orbitals:    1    2    3    4
      - HFX beta orbitals :    5
      - HFX free-space coulomb solver
      - HFX scaling parameter (pspw:HFX_parameter)     : 0.250E+00


 elements involved in the cluster:
      1: P   valence charge:  5.0000  lmax=  2
             comment    : Hamann pseudopotential
             pseudpotential type            :   0
             highest angular component      :   2
             local potential used           :   2
             number of non-local projections:   4
             aperiodic cutoff radius        :  1.000
             cutoff =   0.936   1.092   1.092


 total charge:   0.000

 atomic composition:
     P   :    1

 number of electrons: spin up=     4 (   4 per task)  down=     1 (   1 per task) (fourier space)
 number of orbitals : spin up=     4 (   4 per task)  down=     1 (   1 per task) (fourier space)

 supercell:
      cell_name:  cell_default                                      
      lattice:    a1=<  20.000   0.000   0.000 >
                  a2=<   0.000  20.000   0.000 >
                  a3=<   0.000   0.000  20.000 >
      reciprocal: b1=<   0.314   0.000   0.000 >
                  b2=<   0.000   0.314   0.000 >
                  b3=<   0.000   0.000   0.314 >
      lattice:    a=      20.000 b=     20.000 c=      20.000
                  alpha=  90.000 beta=  90.000 gamma=  90.000
                  omega=      8000.0

      density cutoff= 12.633  fft= 32x 32x 32(     8536 waves     8536 per task)
      wavefnc cutoff= 12.633  fft= 32x 32x 32(     8536 waves     8536 per task)

 technical parameters:
      time step=      5.80     ficticious mass=  400000.0
      tolerance=.100E-06 (energy)   0.100E-06 (density)
      maximum iterations =      1000 (   10 inner    100 outer )





== Energy Calculation ==


          ============ Grassmann lmbfgs iteration ============
     >>>  ITERATION STARTED AT Thu Mar  7 09:43:12 2013  <<<
    iter.           Energy         DeltaE       DeltaRho 
    ------------------------------------------------------
      10   -0.6525588942E+01   -0.17764E-14    0.41019E-31
  *** tolerance ok. iteration terminated
     >>>  ITERATION ENDED   AT Thu Mar  7 09:43:32 2013  <<<


==  Summary Of Results  ==

 number of electrons: spin up=    4.00000  down=    1.00000 (real space)

 total     energy    :  -0.6525588942E+01 (   -0.65256E+01/ion)
 total orbital energy:  -0.1875442505E+01 (   -0.37509E+00/electron)
 hartree   energy    :   0.5300499590E+01 (    0.10601E+01/electron)
 exc-corr  energy    :  -0.1227098546E+01 (   -0.24542E+00/electron)
 HF exchange energy  :  -0.3695077326E+00 (   -0.73902E-01/electron)
 ion-ion   energy    :   0.0000000000E+00 (    0.00000E+00/ion)

 kinetic (planewave) :   0.2368263481E+01 (    0.47365E+00/electron)
 V_local (planewave) :  -0.1408399771E+02 (   -0.28168E+01/electron)
 V_nl    (planewave) :   0.1486251979E+01 (    0.29725E+00/electron)
 V_Coul  (planewave) :   0.1060099918E+02 (    0.21202E+01/electron)
 V_xc.   (planewave) :  -0.1507943967E+01 (   -0.30159E+00/electron)
 K.S. HFX energy     :  -0.7390154652E+00 (   -0.14780E+00/electron)
 Virial Coefficient  :  -0.1479856675E+01

 orbital energies:
    -0.2656625E+00 (  -7.229eV)
    -0.2656625E+00 (  -7.229eV)
    -0.2656625E+00 (  -7.229eV)
    -0.6119987E+00 ( -16.653eV)    -0.4664563E+00 ( -12.693eV)

 Total PSPW energy   :  -0.6525588942E+01


=== Spin Contamination ===

 <Sexact^2> =    3.75000000000000     
 <S^2>      =    3.75051806731668     



== Center of Charge ==

spin up     (    0.0000,    0.0000,    0.0000 )
spin down   (    0.0000,    0.0000,    0.0000 )
     total  (    0.0000,    0.0000,    0.0000 )
ionic       (    0.0000,    0.0000,    0.0000 )
crystal     (    0.0000,    0.0000,    0.0000 )


== Crystal Dipole ==

mu   =  (    0.0000,    0.0000,    0.0000 ) au
|mu| =     0.0000 au,       0.0000 Debye


== Molecular Dipole wrt Center of Mass ==

mu   =  (    0.0000,    0.0000,    0.0000 ) au
|mu| =     0.0000 au,       0.0000 Debye

 output psi filename:/home/d3y133/nwchem-dev/nwchem-ref/QA/scratchdir/nwxc_dat.movecs


== Timing ==

cputime in seconds
  prologue    :   0.447217E+00
  main loop   :   0.195080E+02
  epilogue    :   0.118809E-01
  total       :   0.199671E+02
  cputime/step:   0.150062E+01       (      13 evalulations,       1 linesearches)


Time spent doing                        total          step       percent
  total time                 :   0.199674E+02  0.153595E+01       100.0 %
  i/o time                   :   0.243640E-01  0.187415E-02         0.1 %
  FFTs                       :   0.153913E+02  0.118394E+01        77.1 %
  dot products               :   0.847873E-01  0.652210E-02         0.4 %
  geodesic                   :   0.197466E+00  0.151897E-01         1.0 %
  ffm_dgemm                  :   0.870681E-02  0.669755E-03         0.0 %
  fmf_dgemm                  :   0.194515E+00  0.149627E-01         1.0 %
  m_diagonalize              :   0.145197E-03  0.111690E-04         0.0 %
  exchange correlation       :   0.306235E+01  0.235566E+00        15.3 %
  local pseudopotentials     :   0.189199E-01  0.145538E-02         0.1 %
  non-local pseudopotentials :   0.127186E+00  0.978354E-02         0.6 %
  structure factors          :   0.532651E-02  0.409731E-03         0.0 %
  phase factors              :   0.207424E-04  0.159557E-05         0.0 %
  masking and packing        :   0.835915E-01  0.643012E-02         0.4 %
  queue fft                  :   0.718964E+00  0.553049E-01         3.6 %
  queue fft (serial)         :   0.558445E+00  0.429573E-01         2.8 %
  queue fft (message passing):   0.150475E+00  0.115750E-01         0.8 %
  HFX potential              :   0.137394E+02  0.105688E+01        68.8 %

     >>>  JOB COMPLETED     AT Thu Mar  7 09:43:32 2013  <<<

 Task  times  cpu:       19.0s     wall:       20.0s
 Summary of allocated global arrays
-----------------------------------
  No active global arrays



                         GA Statistics for process    0
                         ------------------------------

       create   destroy   get      put      acc     scatter   gather  read&inc
calls:   12       12       95       20        0        0        0        0     
number of processes/call 1.00e+00 1.00e+00 0.00e+00 0.00e+00 0.00e+00
bytes total:             6.88e+03 2.56e+03 0.00e+00 0.00e+00 0.00e+00 0.00e+00
bytes remote:            0.00e+00 0.00e+00 0.00e+00 0.00e+00 0.00e+00 0.00e+00
Max memory consumed for GA by this process: 1536 bytes
MA_summarize_allocated_blocks: starting scan ...
MA_summarize_allocated_blocks: scan completed: 0 heap blocks, 0 stack blocks
MA usage statistics:

	allocation statistics:
					      heap	     stack
					      ----	     -----
	current number of blocks	         0	         0
	maximum number of blocks	       301	        20
	current total bytes		         0	         0
	maximum total bytes		  39917936	  10919136
	maximum total K-bytes		     39918	     10920
	maximum total M-bytes		        40	        11


                                NWChem Input Module
                                -------------------





                                     CITATION
                                     --------
                Please cite the following reference when publishing
                           results obtained with NWChem:

                 M. Valiev, E.J. Bylaska, N. Govind, K. Kowalski,
              T.P. Straatsma, H.J.J. van Dam, D. Wang, J. Nieplocha,
                        E. Apra, T.L. Windus, W.A. de Jong
                 "NWChem: a comprehensive and scalable open-source
                  solution for large scale molecular simulations"
                      Comput. Phys. Commun. 181, 1477 (2010)
                           doi:10.1016/j.cpc.2010.04.018

                              AUTHORS & CONTRIBUTORS
                              ----------------------
          E. Apra, E. J. Bylaska, W. A. de Jong, N. Govind, K. Kowalski,
       T. P. Straatsma, M. Valiev, H. J. J. van Dam, D. Wang, T. L. Windus,
    J. Hammond, J. Autschbach, F. Aquino, S. Hirata, M. T. Hackler, K. Lopata,
      J. Mullin, P. Nichols, R. Peverati, Y. Zhao, P.-D. Fan, R. J. Harrison,
        M. Dupuis, D. M. A. Smith, J. Nieplocha, V. Tipparaju, M. Krishnan,
       B. E. Van Kuiken, A. Vazquez-Mayagoitia, L. Jensen, M. Swart, Q. Wu,
   T. Van Voorhis, A. A. Auer, M. Nooijen, L. D. Crosby, E. Brown, G. Cisneros,
      G. I. Fann, H. Fruchtl, J. Garza, K. Hirao, R. Kendall, J. A. Nichols,
        K. Tsemekhman, K. Wolinski, J. Anchell, D. Bernholdt, P. Borowski,
  T. Clark, D. Clerc, H. Dachsel, M. Deegan, K. Dyall, D. Elwood, E. Glendening,
         M. Gutowski, A. Hess, J. Jaffe, B. Johnson, J. Ju, R. Kobayashi,
     R. Kutteh, Z. Lin, R. Littlefield, X. Long, B. Meng, T. Nakajima, S. Niu,
      L. Pollack, M. Rosing, K. Glaesemann, G. Sandrone, M. Stave, H. Taylor,
                  G. Thomas, J. H. van Lenthe, A. Wong, Z. Zhang.

 Total times  cpu:     1058.4s     wall:     1103.6s
