 argument  1 = cho_bp_props.nw
 


============================== echo of input deck ==============================

echo
start cho_bp_props
title cho_bp_props

memory total 800 stack 400 heap 50 global 350 mb

geometry noautoz units angstrom nocenter
symmetry c1
  C    +10.00000000    +20.00000000    +30.00000000
  O    +11.18337200    +20.00000000    +30.00000000
  H     +9.36848179    +20.94387462    +30.00000000
end

basis
"*" library 6-311G**
end

charge 0

property
 efieldgradZ4 1 3
 shielding 2 1 2
 hyperfine 2 1 3
 gshift
# nbofile 2
# gshiftfile
# hypfile
# shldfile
# efgfile
end

relativistic
  zora on
  zora:cutoff_NMR 1d-8
  zora:cutoff 1d-30
# zora:do_NonRel
# zora:do_prntNMRCS
# zora:not_zora_scale
end

set dft:tol_rho 1d-30
set int:acc_std 1d-32
set int:cando_txs f
set dft:job_grid_acc 1d-20

dft
odft
mult 2
grid xfine
direct
xc becke88 perdew86
convergence energy 1e-8 diis 80 ncyds 80 damp 0
end

task dft property
================================================================================


                                         
                                         
 
 
              Northwest Computational Chemistry Package (NWChem) 6.0
              ------------------------------------------------------
 
 
                    Environmental Molecular Sciences Laboratory
                       Pacific Northwest National Laboratory
                                Richland, WA 99352
 
                              Copyright (c) 1994-2010
                       Pacific Northwest National Laboratory
                            Battelle Memorial Institute
 
             NWChem is an open-source computational chemistry package
                        distributed under the terms of the
                      Educational Community License (ECL) 2.0
             A copy of the license is included with this distribution
                              in the LICENSE.TXT file
 
                                  ACKNOWLEDGMENT
                                  --------------

            This software and its documentation were developed at the
            EMSL at Pacific Northwest National Laboratory, a multiprogram
            national laboratory, operated for the U.S. Department of Energy
            by Battelle under Contract Number DE-AC05-76RL01830. Support
            for this work was provided by the Department of Energy Office
            of Biological and Environmental Research, Office of Basic
            Energy Sciences, and the Office of Advanced Scientific Computing.


           Job information
           ---------------

    hostname      = orion
    program       = ../../../bin/LINUX64/nwchem
    date          = Mon Nov  7 15:42:19 2011

    compiled      = Mon_Nov_07_15:41:12_2011
    source        = /home/niri/nwchem/nwchem-trunk
    nwchem branch = Development
    input         = cho_bp_props.nw
    prefix        = cho_bp_props.
    data base     = ./cho_bp_props.db
    status        = startup
    nproc         =        4
    time left     =     -1s



           Memory information
           ------------------

    heap     =    6553601 doubles =     50.0 Mbytes
    stack    =   52428801 doubles =    400.0 Mbytes
    global   =   45875200 doubles =    350.0 Mbytes (distinct from heap & stack)
    total    =  104857602 doubles =    800.0 Mbytes
    verify   = yes
    hardfail = no 


           Directory information
           ---------------------
 
  0 permanent = .
  0 scratch   = .
 
 
 
 
                                NWChem Input Module
                                -------------------
 
 
                                   cho_bp_props
                                   ------------
 ncenter=                     3

 Scaling coordinates for geometry "geometry" by  1.889725989
 (inverse scale =  0.529177249)

 Turning off AUTOSYM since
 SYMMETRY directive was detected!
 
 
 
                             Geometry "geometry" -> ""
                             -------------------------
 
 Output coordinates in angstroms (scale by  1.889725989 to convert to a.u.)
 
  No.       Tag          Charge          X              Y              Z
 ---- ---------------- ---------- -------------- -------------- --------------
    1 C                    6.0000    10.00000000    20.00000000    30.00000000
    2 O                    8.0000    11.18337200    20.00000000    30.00000000
    3 H                    1.0000     9.36848179    20.94387462    30.00000000
 
      Atomic Mass 
      ----------- 
 
      C                 12.000000
      O                 15.994910
      H                  1.007825
 

 Effective nuclear repulsion energy (a.u.)      26.3297764084

            Nuclear Dipole moment (a.u.) 
            ----------------------------
        X                 Y               Z
 ---------------- ---------------- ----------------
   300.1554924938   568.7014609734   850.3766948610
 
 
            XYZ format geometry
            -------------------
     3
 geometry
 C                    10.00000000    20.00000000    30.00000000
 O                    11.18337200    20.00000000    30.00000000
 H                     9.36848179    20.94387462    30.00000000
 
 ==============================================================================
                                internuclear distances
 ------------------------------------------------------------------------------
       center one      |      center two      | atomic units |  angstroms
 ------------------------------------------------------------------------------
    2 O                |   1 C                |     2.23625  |     1.18337
    3 H                |   1 C                |     2.14608  |     1.13566
 ------------------------------------------------------------------------------
                         number of included internuclear distances:          2
 ==============================================================================



 ==============================================================================
                                 internuclear angles
 ------------------------------------------------------------------------------
        center 1       |       center 2       |       center 3       |  degrees
 ------------------------------------------------------------------------------
    2 O                |   1 C                |   3 H                |   123.79
 ------------------------------------------------------------------------------
                            number of included internuclear angles:          1
 ==============================================================================



  library name resolved from: environment
  library file name is: </home/niri/nwchem/nwchem-trunk/src/basis/libraries/>
  


 Summary of "ao basis" -> "" (cartesian)
 ------------------------------------------------------------------------------
       Tag                 Description            Shells   Functions and Types
 ---------------- ------------------------------  ------  ---------------------
 *                          6-311G**                  on all atoms 


  perdew86 is a nonlocal functional; adding perdew81 local functional. 
                              NWChem Property Module
                              ----------------------
 
 
                                   cho_bp_props
 
  itol2e modified to match energy
  convergence criterion.
 
                                 NWChem DFT Module
                                 -----------------
 
 
                                   cho_bp_props
 
 
                      Basis "ao basis" -> "ao basis" (cartesian)
                      -----
  C (Carbon)
  ----------
            Exponent  Coefficients 
       -------------- ---------------------------------------------------------
  1 S  4.56324000E+03  0.001967
  1 S  6.82024000E+02  0.015231
  1 S  1.54973000E+02  0.076127
  1 S  4.44553000E+01  0.260801
  1 S  1.30290000E+01  0.616462
  1 S  1.82773000E+00  0.221006
 
  2 S  2.09642000E+01  0.114660
  2 S  4.80331000E+00  0.919999
  2 S  1.45933000E+00 -0.003031
 
  3 P  2.09642000E+01  0.040249
  3 P  4.80331000E+00  0.237594
  3 P  1.45933000E+00  0.815854
 
  4 S  4.83456000E-01  1.000000
 
  5 P  4.83456000E-01  1.000000
 
  6 S  1.45585000E-01  1.000000
 
  7 P  1.45585000E-01  1.000000
 
  8 D  6.26000000E-01  1.000000
 
  O (Oxygen)
  ----------
            Exponent  Coefficients 
       -------------- ---------------------------------------------------------
  1 S  8.58850000E+03  0.001895
  1 S  1.29723000E+03  0.014386
  1 S  2.99296000E+02  0.070732
  1 S  8.73771000E+01  0.240001
  1 S  2.56789000E+01  0.594797
  1 S  3.74004000E+00  0.280802
 
  2 S  4.21175000E+01  0.113889
  2 S  9.62837000E+00  0.920811
  2 S  2.85332000E+00 -0.003274
 
  3 P  4.21175000E+01  0.036511
  3 P  9.62837000E+00  0.237153
  3 P  2.85332000E+00  0.819702
 
  4 S  9.05661000E-01  1.000000
 
  5 P  9.05661000E-01  1.000000
 
  6 S  2.55611000E-01  1.000000
 
  7 P  2.55611000E-01  1.000000
 
  8 D  1.29200000E+00  1.000000
 
  H (Hydrogen)
  ------------
            Exponent  Coefficients 
       -------------- ---------------------------------------------------------
  1 S  3.38650000E+01  0.025494
  1 S  5.09479000E+00  0.190373
  1 S  1.15879000E+00  0.852161
 
  2 S  3.25840000E-01  1.000000
 
  3 S  1.02741000E-01  1.000000
 
  4 P  7.50000000E-01  1.000000
 


 Summary of "ao basis" -> "ao basis" (cartesian)
 ------------------------------------------------------------------------------
       Tag                 Description            Shells   Functions and Types
 ---------------- ------------------------------  ------  ---------------------
 C                          6-311G**                 8       19   4s3p1d
 O                          6-311G**                 8       19   4s3p1d
 H                          6-311G**                 4        6   3s1p



int_init: setting std/high accuracies to  1.0D-32  1.0D-64
  int_init: cando_txs set to always be  F
  Caching 1-el integrals 
 
            General Information
            -------------------
          SCF calculation type: DFT
          Wavefunction type:  spin polarized.
          No. of atoms     :     3
          No. of electrons :    15
           Alpha electrons :     8
            Beta electrons :     7
          Charge           :     0
          Spin multiplicity:     2
          Use of symmetry is: off; symmetry adaption is: off
          Maximum number of iterations:  30
          This is a Direct SCF calculation.
          AO basis - number of functions:    44
                     number of shells:    20
          Convergence on energy requested: 1.00D-08
          Convergence on density requested: 1.00D-05
          Convergence on gradient requested: 5.00D-04
 
              XC Information
              --------------
                    Becke 1988 Exchange Functional  1.000          
                Perdew 1981 Correlation Functional  1.000 local    
                Perdew 1986 Correlation Functional  1.000 non-local
 
             Grid Information
             ----------------
          Grid used for XC integration:  xfine     
          Radial quadrature: Mura-Knowles        
          Angular quadrature: Lebedev. 
          Tag              B.-S. Rad. Rad. Pts. Rad. Cut. Ang. Pts.
          ---              ---------- --------- --------- ---------
          C                   0.70      100          10.0      1454
          O                   0.60      100          10.0      1454
          H                   0.35      100          10.0      1202
          Grid pruning is: on 
          Number of quadrature shells:   300
          Spatial weights used:  Erf1
 
          Convergence Information
          -----------------------
          Convergence aids based upon iterative change in 
          total energy or number of iterations. 
          Levelshifting, if invoked, occurs when the 
          HOMO/LUMO gap drops below (HL_TOL): 1.00D-02
          DIIS, if invoked, will attempt to extrapolate 
          using up to (NFOCK): 80 stored Fock matrices.

                    Damping( 0%)  Levelshifting(0.5)       DIIS
                  --------------- ------------------- ---------------
          dE  on:    start            ASAP                start   
          dE off:    2 iters         30 iters            80 iters 

 
      Screening Tolerance Information
      -------------------------------
          Density screening/tol_rho: 1.00D-30
          AO Gaussian exp screening on grid/accAOfunc:  18
          CD Gaussian exp screening on grid/accCDfunc:  20
          XC Gaussian exp screening on grid/accXCfunc:  20
          Schwarz screening/accCoul: 1.00D-09

          Performing ZORA calculations
          ----------------------------
 
 
      Superposition of Atomic Density Guess
      -------------------------------------
 
 Sum of atomic energies:        -112.94448641

 Read atomic ZORA corrections from ./cho_bp_props.zora_sf

 dft_zora_read: failed to open./cho_bp_props.zora_sf
       Generating atomic ZORA corrections
       ----------------------------------
 
 In dft_scf:: zora:Knucl= F
 dft_scf: ofinite= F

 Grid_pts file          = ./cho_bp_props.gridpts.0
 Record size in doubles =  12289        No. of grid_pts per rec  =   3070
 Max. records in memory =     41        Max. recs in file   =    132553

 Integrated density   0.149999999969E+02
 deviates from requested grid accuracy   0.10E-19

 Wrote atomic ZORA corrections to ./cho_bp_props.zora_sf

 
      Superposition of Atomic Density Guess
      -------------------------------------
 
 Sum of atomic energies:        -112.94448641
 
      Non-variational initial energy
      ------------------------------

 Total energy =    -113.416825
 1-e energy   =    -205.865334
 2-e energy   =      66.118733
 HOMO         =      -0.119913
 LUMO         =      -0.003902
 
   Time after variat. SCF:      1.8
   Time prior to 1st pass:      1.8
 Integrated density   0.149999975055E+02
 deviates from requested grid accuracy   0.10E-19

           Memory utilization after 1st SCF pass: 
           Heap Space remaining (MW):        6.05             6045451
          Stack Space remaining (MW):       52.42            52424417

   convergence    iter        energy       DeltaE   RMS-Dens  Diis-err    time
 ---------------- ----- ----------------- --------- --------- ---------  ------
 d= 0,ls=0.0,diis     1   -113.9063945813 -1.40D+02  1.54D-02  2.91D-01     2.4
                                                     1.26D-02  2.89D-01
 Integrated density   0.149999999967E+02
 deviates from requested grid accuracy   0.10E-19
 d= 0,ls=0.0,diis     2   -113.2411820314  6.65D-01  1.37D-02  1.85D+00     3.1
                                                     1.11D-02  1.77D+00
 Integrated density   0.149999999974E+02
 deviates from requested grid accuracy   0.10E-19
 d= 0,ls=0.0,diis     3   -113.9720277996 -7.31D-01  2.55D-03  5.77D-02     3.7
                                                     1.83D-03  5.86D-02
 Integrated density   0.149999999974E+02
 deviates from requested grid accuracy   0.10E-19
 d= 0,ls=0.0,diis     4   -113.9899493700 -1.79D-02  1.56D-03  3.39D-03     4.3
                                                     7.19D-04  2.79D-03
 Integrated density   0.149999999973E+02
 deviates from requested grid accuracy   0.10E-19
 d= 0,ls=0.0,diis     5   -113.9912009697 -1.25D-03  4.66D-04  2.11D-04     5.0
                                                     1.85D-04  1.85D-04
 Integrated density   0.149999999974E+02
 deviates from requested grid accuracy   0.10E-19
 d= 0,ls=0.0,diis     6   -113.9913016690 -1.01D-04  7.08D-05  9.50D-06     5.6
                                                     3.34D-05  8.47D-06
 Integrated density   0.149999999974E+02
 deviates from requested grid accuracy   0.10E-19
 d= 0,ls=0.0,diis     7   -113.9913064980 -4.83D-06  7.22D-06  2.78D-07     6.3
                                                     4.65D-06  2.18D-07
 Integrated density   0.149999999974E+02
 deviates from requested grid accuracy   0.10E-19
 d= 0,ls=0.0,diis     8   -113.9913066117 -1.14D-07  8.34D-07  2.68D-09     6.9
                                                     8.16D-07  2.97D-09
 Integrated density   0.149999999974E+02
 deviates from requested grid accuracy   0.10E-19
 d= 0,ls=0.0,diis     9   -113.9913066133 -1.56D-09  1.91D-07  5.79D-11     7.6
                                                     1.78D-07  5.79D-11
 
      Commencing ZORA Property Calculations
      -------------------------------------
 
 Integrated density   0.149999999969E+02
 deviates from requested grid accuracy   0.10E-19
dia1(k,t,iat1,ispin)=(  1,  1,  1,  1)=(   138.89670964,   138.89670964) ppm
dia1(k,t,iat1,ispin)=(  1,  1,  1,  2)=(   132.09039935,   270.98710899) ppm
dia1(k,t,iat1,ispin)=(  1,  2,  1,  1)=(    -1.92309527,    -1.92309527) ppm
dia1(k,t,iat1,ispin)=(  1,  2,  1,  2)=(    -1.08493204,    -3.00802731) ppm
dia1(k,t,iat1,ispin)=(  1,  3,  1,  1)=(    -0.00000004,    -0.00000004) ppm
dia1(k,t,iat1,ispin)=(  1,  3,  1,  2)=(    -0.00000004,    -0.00000008) ppm
dia1(k,t,iat1,ispin)=(  2,  1,  1,  1)=(    -2.94890154,    -2.94890154) ppm
dia1(k,t,iat1,ispin)=(  2,  1,  1,  2)=(    -0.43587359,    -3.38477513) ppm
dia1(k,t,iat1,ispin)=(  2,  2,  1,  1)=(   129.29588603,   129.29588603) ppm
dia1(k,t,iat1,ispin)=(  2,  2,  1,  2)=(   122.65144692,   251.94733295) ppm
dia1(k,t,iat1,ispin)=(  2,  3,  1,  1)=(     0.00000002,     0.00000002) ppm
dia1(k,t,iat1,ispin)=(  2,  3,  1,  2)=(     0.00000002,     0.00000004) ppm
dia1(k,t,iat1,ispin)=(  3,  1,  1,  1)=(    -0.00000006,    -0.00000006) ppm
dia1(k,t,iat1,ispin)=(  3,  1,  1,  2)=(    -0.00000005,    -0.00000011) ppm
dia1(k,t,iat1,ispin)=(  3,  2,  1,  1)=(    -0.00000001,    -0.00000001) ppm
dia1(k,t,iat1,ispin)=(  3,  2,  1,  2)=(    -0.00000001,    -0.00000003) ppm
dia1(k,t,iat1,ispin)=(  3,  3,  1,  1)=(   128.52574951,   128.52574951) ppm
dia1(k,t,iat1,ispin)=(  3,  3,  1,  2)=(   121.59977143,   250.12552093) ppm
(dia2,par1)(k,t,iat1,spin)=(  1,  1,  1,  1)=(    -2.52098797,    -2.52098797,     0.00000001,     0.00000001) ppm
(dia2,par1)(k,t,iat1,spin)=(  1,  1,  1,  2)=(     0.65940682,    -1.86158115,     0.00000001,     0.00000002) ppm
(dia2,par1)(k,t,iat1,spin)=(  2,  1,  1,  1)=(    -1.16898537,    -1.16898537,     0.00000004,     0.00000004) ppm
(dia2,par1)(k,t,iat1,spin)=(  2,  1,  1,  2)=(     0.42524962,    -0.74373576,     0.00000001,     0.00000004) ppm
(dia2,par1)(k,t,iat1,spin)=(  3,  1,  1,  1)=(     0.00000000,     0.00000000,    -0.00000003,    -0.00000003) ppm
(dia2,par1)(k,t,iat1,spin)=(  3,  1,  1,  2)=(     0.00000000,     0.00000000,    -0.00000001,    -0.00000004) ppm
(dia2,par1)(k,t,iat1,spin)=(  1,  2,  1,  1)=(     0.19501641,     0.19501641,     0.00000001,     0.00000001) ppm
(dia2,par1)(k,t,iat1,spin)=(  1,  2,  1,  2)=(    -0.45663332,    -0.26161691,     0.00000001,     0.00000001) ppm
(dia2,par1)(k,t,iat1,spin)=(  2,  2,  1,  1)=(     0.11289699,     0.11289699,     0.00000000,     0.00000000) ppm
(dia2,par1)(k,t,iat1,spin)=(  2,  2,  1,  2)=(     1.70753956,     1.82043655,     0.00000002,     0.00000002) ppm
(dia2,par1)(k,t,iat1,spin)=(  3,  2,  1,  1)=(     0.00000000,     0.00000000,     0.00000000,     0.00000000) ppm
(dia2,par1)(k,t,iat1,spin)=(  3,  2,  1,  2)=(     0.00000000,     0.00000000,    -0.00000002,    -0.00000002) ppm
(dia2,par1)(k,t,iat1,spin)=(  1,  3,  1,  1)=(     0.00000000,     0.00000000,   166.98707431,   166.98707431) ppm
(dia2,par1)(k,t,iat1,spin)=(  1,  3,  1,  2)=(     0.00000000,     0.00000000,   -87.20661049,    79.78046382) ppm
(dia2,par1)(k,t,iat1,spin)=(  2,  3,  1,  1)=(     0.00000000,     0.00000000,   285.15550025,   285.15550025) ppm
(dia2,par1)(k,t,iat1,spin)=(  2,  3,  1,  2)=(     0.00000000,     0.00000000,  -181.84082004,   103.31468021) ppm
(dia2,par1)(k,t,iat1,spin)=(  3,  3,  1,  1)=(    -4.66310037,    -4.66310037,  -244.60303365,  -244.60303365) ppm
(dia2,par1)(k,t,iat1,spin)=(  3,  3,  1,  2)=(     2.39372224,    -2.26937813,   150.78881168,   -93.81422197) ppm
 Integrated density   0.149999999969E+02
 deviates from requested grid accuracy   0.10E-19
dia1(k,t,iat1,ispin)=(  1,  1,  2,  1)=(   210.26183242,   210.26183242) ppm
dia1(k,t,iat1,ispin)=(  1,  1,  2,  2)=(   201.26587056,   411.52770298) ppm
dia1(k,t,iat1,ispin)=(  1,  2,  2,  1)=(    -0.92216207,    -0.92216207) ppm
dia1(k,t,iat1,ispin)=(  1,  2,  2,  2)=(     0.94849238,     0.02633031) ppm
dia1(k,t,iat1,ispin)=(  1,  3,  2,  1)=(    -0.00000013,    -0.00000013) ppm
dia1(k,t,iat1,ispin)=(  1,  3,  2,  2)=(    -0.00000013,    -0.00000025) ppm
dia1(k,t,iat1,ispin)=(  2,  1,  2,  1)=(    -1.11378089,    -1.11378089) ppm
dia1(k,t,iat1,ispin)=(  2,  1,  2,  2)=(     0.74442654,    -0.36935435) ppm
dia1(k,t,iat1,ispin)=(  2,  2,  2,  1)=(   194.72498955,   194.72498955) ppm
dia1(k,t,iat1,ispin)=(  2,  2,  2,  2)=(   190.05991130,   384.78490085) ppm
dia1(k,t,iat1,ispin)=(  2,  3,  2,  1)=(    -0.00000035,    -0.00000035) ppm
dia1(k,t,iat1,ispin)=(  2,  3,  2,  2)=(    -0.00000035,    -0.00000069) ppm
dia1(k,t,iat1,ispin)=(  3,  1,  2,  1)=(    -0.00000008,    -0.00000008) ppm
dia1(k,t,iat1,ispin)=(  3,  1,  2,  2)=(    -0.00000008,    -0.00000015) ppm
dia1(k,t,iat1,ispin)=(  3,  2,  2,  1)=(    -0.00000023,    -0.00000023) ppm
dia1(k,t,iat1,ispin)=(  3,  2,  2,  2)=(    -0.00000023,    -0.00000045) ppm
dia1(k,t,iat1,ispin)=(  3,  3,  2,  1)=(   198.97985134,   198.97985134) ppm
dia1(k,t,iat1,ispin)=(  3,  3,  2,  2)=(   189.60265865,   388.58250999) ppm
(dia2,par1)(k,t,iat1,spin)=(  1,  1,  2,  1)=(     0.43118809,     0.43118809,     0.00000000,     0.00000000) ppm
(dia2,par1)(k,t,iat1,spin)=(  1,  1,  2,  2)=(     0.16916486,     0.60035294,     0.00000000,     0.00000000) ppm
(dia2,par1)(k,t,iat1,spin)=(  2,  1,  2,  1)=(    -0.61108778,    -0.61108778,     0.00000004,     0.00000004) ppm
(dia2,par1)(k,t,iat1,spin)=(  2,  1,  2,  2)=(     0.47120714,    -0.13988064,     0.00000001,     0.00000005) ppm
(dia2,par1)(k,t,iat1,spin)=(  3,  1,  2,  1)=(     0.00000000,     0.00000000,    -0.00000003,    -0.00000003) ppm
(dia2,par1)(k,t,iat1,spin)=(  3,  1,  2,  2)=(     0.00000000,     0.00000000,     0.00000000,    -0.00000003) ppm
(dia2,par1)(k,t,iat1,spin)=(  1,  2,  2,  1)=(     0.06634802,     0.06634802,     0.00000000,     0.00000000) ppm
(dia2,par1)(k,t,iat1,spin)=(  1,  2,  2,  2)=(     0.35708254,     0.42343056,     0.00000000,     0.00000000) ppm
(dia2,par1)(k,t,iat1,spin)=(  2,  2,  2,  1)=(    -0.61210604,    -0.61210604,    -0.00000014,    -0.00000014) ppm
(dia2,par1)(k,t,iat1,spin)=(  2,  2,  2,  2)=(     0.51459507,    -0.09751097,    -0.00000009,    -0.00000023) ppm
(dia2,par1)(k,t,iat1,spin)=(  3,  2,  2,  1)=(     0.00000000,     0.00000000,     0.00000009,     0.00000009) ppm
(dia2,par1)(k,t,iat1,spin)=(  3,  2,  2,  2)=(     0.00000000,     0.00000000,     0.00000006,     0.00000015) ppm
(dia2,par1)(k,t,iat1,spin)=(  1,  3,  2,  1)=(     0.00000000,     0.00000000,   -42.26247656,   -42.26247656) ppm
(dia2,par1)(k,t,iat1,spin)=(  1,  3,  2,  2)=(     0.00000000,     0.00000000,   -14.41641524,   -56.67889180) ppm
(dia2,par1)(k,t,iat1,spin)=(  2,  3,  2,  1)=(     0.00000000,     0.00000000,    -2.55725789,    -2.55725789) ppm
(dia2,par1)(k,t,iat1,spin)=(  2,  3,  2,  2)=(     0.00000000,     0.00000000,   -52.50382854,   -55.06108642) ppm
(dia2,par1)(k,t,iat1,spin)=(  3,  3,  2,  1)=(    -1.86778093,    -1.86778093,    18.79761203,    18.79761203) ppm
(dia2,par1)(k,t,iat1,spin)=(  3,  3,  2,  2)=(     0.55263382,    -1.31514711,    39.40509334,    58.20270537) ppm
 Integrated density   0.149999999969E+02
 deviates from requested grid accuracy   0.10E-19

 Wrote ZORA NMR data to ./cho_bp_props.zora_nmrcs

 In get_NMRHFine_ZORA:: zora:Knucl= F
 dft_zora_Hypefine: ofinite= F
 nat_slc=                     2
In dft_zora_Hyperfine:: atomnr(  1)=    1
In dft_zora_Hyperfine:: atomnr(  2)=    3
CHECK:(atom,ofinite,atmass,zetanucl_slc)=(   1,F,    12.00000000,                 680775029.28673279)
 Integrated density   0.149999999969E+02
 deviates from requested grid accuracy   0.10E-19
gFCSD(  1,  1,  1)=     2.66022435
gFCSD(  1,  1,  2)=     0.40292669
gFCSD(  1,  1,  3)=     0.00000000
gFCSD(  1,  2,  1)=     0.40292568
gFCSD(  1,  2,  2)=     3.13812144
gFCSD(  1,  2,  3)=     0.00000000
gFCSD(  1,  3,  1)=     0.00000000
gFCSD(  1,  3,  2)=     0.00000000
gFCSD(  1,  3,  3)=     2.45708573
CHECK:(atom,ofinite,atmass,zetanucl_slc)=(   3,F,     1.00782500,                2118265472.55233526)
 Integrated density   0.149999999969E+02
 deviates from requested grid accuracy   0.10E-19
gFCSD(  3,  1,  1)=     0.63769538
gFCSD(  3,  1,  2)=    -0.02506543
gFCSD(  3,  1,  3)=     0.00000000
gFCSD(  3,  2,  1)=    -0.02506422
gFCSD(  3,  2,  2)=     0.64484628
gFCSD(  3,  2,  3)=     0.00000000
gFCSD(  3,  3,  1)=     0.00000000
gFCSD(  3,  3,  2)=     0.00000000
gFCSD(  3,  3,  3)=     0.60042347
 Integrated density   0.149999999969E+02
 deviates from requested grid accuracy   0.10E-19

 Wrote ZORA NMR data to ./cho_bp_props.zora_nmrhyp

(nogshift,skip_gshiftAOev,done_Fji)=( 0, F, T)
In dft_zora_EPR:: slc_spinpolAO=  0
 WARNING: SLC A-B contrib
 In dft_zora_EPR:: zora:Knucl= F
 Integrated density   0.149999999969E+02
 deviates from requested grid accuracy   0.10E-19
(q1,-q2,q1-q2,q3,dia2,dia1,dia2+dia1)(  1,  1)=(  0.00064023,  0.00000000,  0.00064023, -0.00769393, -0.00705369, -0.02588501, -0.03293870)
(q1,-q2,q1-q2,q3,dia2,dia1,dia2+dia1)(  1,  2)=( -0.00193995,  0.00000000, -0.00193995,  0.00471154,  0.00277159, -0.01367781, -0.01090621)
(q1,-q2,q1-q2,q3,dia2,dia1,dia2+dia1)(  1,  3)=( -0.54854752,  0.54854752,  0.00000000,  0.00000000,  0.00000000,  0.00000000,  0.00000000)
(q1,-q2,q1-q2,q3,dia2,dia1,dia2+dia1)(  2,  1)=( -0.00371521,  0.00000000, -0.00371521, -0.00318533, -0.00690054, -0.00575912, -0.01265966)
(q1,-q2,q1-q2,q3,dia2,dia1,dia2+dia1)(  2,  2)=(  0.00305093,  0.00000000,  0.00305093, -0.00698539, -0.00393446, -0.04070954, -0.04464400)
(q1,-q2,q1-q2,q3,dia2,dia1,dia2+dia1)(  2,  3)=( -1.66800886,  1.66800886,  0.00000000,  0.00000000,  0.00000000,  0.00000000,  0.00000000)
(q1,-q2,q1-q2,q3,dia2,dia1,dia2+dia1)(  3,  1)=(  0.00000000,  0.00000000,  0.00000000,  0.00000000,  0.00000000,  0.00000000,  0.00000000)
(q1,-q2,q1-q2,q3,dia2,dia1,dia2+dia1)(  3,  2)=(  0.00000000,  0.00000000,  0.00000000,  0.00000000,  0.00000000,  0.00000000,  0.00000000)
(q1,-q2,q1-q2,q3,dia2,dia1,dia2+dia1)(  3,  3)=(  1.27803076, -1.28056153, -0.00253077, -0.01467931, -0.01721008, -0.02157656, -0.03878665)

 Wrote ZORA NMR data to ./cho_bp_props.zora_nmrgshift


 Wrote ZORA NMR data to ./cho_bp_props.zora_nmrgshift_AB

 ==> nlist=                     1
xyz_EFG( 3)=(    17.70386351,    39.57818417,    56.69177966)
 Integrated density   0.149999999969E+02
 deviates from requested grid accuracy   0.10E-19
zora-efg(  4,  3,  1,  1,  1)=(     0.07855959,     0.07855959)
zora-efg(  4,  3,  1,  2,  1)=(     0.06851734,     0.14707692)
 Integrated density   0.149999999969E+02
 deviates from requested grid accuracy   0.10E-19
zora-efg(  4,  3,  2,  1,  2)=(     0.25255559,     0.25255559)
zora-efg(  4,  3,  2,  2,  2)=(     0.23536380,     0.48791939)
 Integrated density   0.149999999969E+02
 deviates from requested grid accuracy   0.10E-19
zora-efg(  4,  3,  3,  1,  3)=(    -0.33111518,    -0.33111518)
zora-efg(  4,  3,  3,  2,  3)=(    -0.30388113,    -0.63499631)
 Integrated density   0.149999999969E+02
 deviates from requested grid accuracy   0.10E-19
zora-efg(  4,  3,  4,  1,  4)=(    -0.42990675,    -0.42990675)
zora-efg(  4,  3,  4,  2,  4)=(    -0.40484010,    -0.83474685)
 Integrated density   0.149999999969E+02
 deviates from requested grid accuracy   0.10E-19
zora-efg(  4,  3,  5,  1,  5)=(     0.00000000,     0.00000000)
zora-efg(  4,  3,  5,  2,  5)=(     0.00000000,     0.00000000)
 Integrated density   0.149999999969E+02
 deviates from requested grid accuracy   0.10E-19
zora-efg(  4,  3,  6,  1,  6)=(     0.00000000,     0.00000000)
zora-efg(  4,  3,  6,  2,  6)=(     0.00000000,     0.00000000)
xyz_EFG( 3)=(    17.70386351,    39.57818417,    56.69177966)
 Integrated density   0.149999999969E+02
 deviates from requested grid accuracy   0.10E-19
zora-efg(  3,  3,  1,  1,  7)=(     0.00001985,     0.00001985)
zora-efg(  3,  3,  1,  2,  7)=(     0.00002067,     0.00004052)
 Integrated density   0.149999999969E+02
 deviates from requested grid accuracy   0.10E-19
zora-efg(  3,  3,  2,  1,  8)=(     0.00004623,     0.00004623)
zora-efg(  3,  3,  2,  2,  8)=(     0.00004345,     0.00008968)
 Integrated density   0.149999999969E+02
 deviates from requested grid accuracy   0.10E-19
zora-efg(  3,  3,  3,  1,  9)=(    -0.00006607,    -0.00006607)
zora-efg(  3,  3,  3,  2,  9)=(    -0.00006412,    -0.00013020)
 Integrated density   0.149999999969E+02
 deviates from requested grid accuracy   0.10E-19
zora-efg(  3,  3,  4,  1, 10)=(    -0.00008829,    -0.00008829)
zora-efg(  3,  3,  4,  2, 10)=(    -0.00008639,    -0.00017468)
 Integrated density   0.149999999969E+02
 deviates from requested grid accuracy   0.10E-19
zora-efg(  3,  3,  5,  1, 11)=(     0.00000000,     0.00000000)
zora-efg(  3,  3,  5,  2, 11)=(     0.00000000,     0.00000000)
 Integrated density   0.149999999969E+02
 deviates from requested grid accuracy   0.10E-19
zora-efg(  3,  3,  6,  1, 12)=(     0.00000000,     0.00000000)
zora-efg(  3,  3,  6,  2, 12)=(     0.00000000,     0.00000000)

 Wrote ZORA EFGZ4 data to ./cho_bp_props.zora_efgz4



         Total DFT energy =     -113.991306613264
      One electron energy =     -206.953908646592
           Coulomb energy =       80.932059461359
    Exchange-Corr. energy =      -14.299233836461
 Nuclear repulsion energy =       26.329776408429

       Scaling correction =        0.038086868122

 Numeric. integr. density =       14.999999997365

     Total iterative time =     40.2s


 
                    DFT Final Alpha Molecular Orbital Analysis
                    ------------------------------------------
 
 Vector    1  Occ=1.000000D+00  E=-1.884414D+01
              MO Center=  1.1D+01,  2.0D+01,  3.0D+01, r^2= 1.5D-02
   Bfn.  Coefficient  Atom+Function         Bfn.  Coefficient  Atom+Function  
  ----- ------------  ---------------      ----- ------------  ---------------
    20      0.555790  2 O  s                 21      0.461813  2 O  s          
 
 Vector    2  Occ=1.000000D+00  E=-1.000388D+01
              MO Center=  1.0D+01,  2.0D+01,  3.0D+01, r^2= 2.8D-02
   Bfn.  Coefficient  Atom+Function         Bfn.  Coefficient  Atom+Function  
  ----- ------------  ---------------      ----- ------------  ---------------
     1      0.566175  1 C  s                  2      0.456010  1 C  s          
 
 Vector    3  Occ=1.000000D+00  E=-1.025005D+00
              MO Center=  1.1D+01,  2.0D+01,  3.0D+01, r^2= 4.5D-01
   Bfn.  Coefficient  Atom+Function         Bfn.  Coefficient  Atom+Function  
  ----- ------------  ---------------      ----- ------------  ---------------
    25      0.516059  2 O  s                 29      0.333189  2 O  s          
     6      0.249846  1 C  s                 21     -0.175827  2 O  s          
 
 Vector    4  Occ=1.000000D+00  E=-5.576516D-01
              MO Center=  1.0D+01,  2.0D+01,  3.0D+01, r^2= 1.3D+00
   Bfn.  Coefficient  Atom+Function         Bfn.  Coefficient  Atom+Function  
  ----- ------------  ---------------      ----- ------------  ---------------
     6      0.403856  1 C  s                 10      0.272148  1 C  s          
    29     -0.273248  2 O  s                 25     -0.249315  2 O  s          
    40      0.199614  3 H  s          
 
 Vector    5  Occ=1.000000D+00  E=-4.473737D-01
              MO Center=  1.1D+01,  2.0D+01,  3.0D+01, r^2= 1.1D+00
   Bfn.  Coefficient  Atom+Function         Bfn.  Coefficient  Atom+Function  
  ----- ------------  ---------------      ----- ------------  ---------------
    26      0.288999  2 O  px                29      0.272156  2 O  s          
    22      0.209452  2 O  px                30      0.209516  2 O  px         
    25      0.194752  2 O  s                  7     -0.165147  1 C  px         
    27      0.163050  2 O  py                 8      0.158769  1 C  py         
 
 Vector    6  Occ=1.000000D+00  E=-3.967513D-01
              MO Center=  1.1D+01,  2.0D+01,  3.0D+01, r^2= 8.9D-01
   Bfn.  Coefficient  Atom+Function         Bfn.  Coefficient  Atom+Function  
  ----- ------------  ---------------      ----- ------------  ---------------
    28      0.364997  2 O  pz                32      0.295368  2 O  pz         
    24      0.250783  2 O  pz                 9      0.239653  1 C  pz         
    13      0.162322  1 C  pz                 5      0.158344  1 C  pz         
 
 Vector    7  Occ=1.000000D+00  E=-3.856342D-01
              MO Center=  1.1D+01,  2.0D+01,  3.0D+01, r^2= 1.1D+00
   Bfn.  Coefficient  Atom+Function         Bfn.  Coefficient  Atom+Function  
  ----- ------------  ---------------      ----- ------------  ---------------
    27      0.304028  2 O  py                31      0.245848  2 O  py         
    23      0.210329  2 O  py                10     -0.191534  1 C  s          
     7      0.184610  1 C  px                26     -0.168605  2 O  px         
     8      0.166091  1 C  py         
 
 Vector    8  Occ=1.000000D+00  E=-1.782000D-01
              MO Center=  1.0D+01,  2.0D+01,  3.0D+01, r^2= 1.6D+00
   Bfn.  Coefficient  Atom+Function         Bfn.  Coefficient  Atom+Function  
  ----- ------------  ---------------      ----- ------------  ---------------
    10      0.527126  1 C  s                 31      0.339920  2 O  py         
    27      0.285307  2 O  py                40     -0.285688  3 H  s          
     8     -0.254269  1 C  py                12     -0.226216  1 C  py         
    41     -0.225924  3 H  s                 23      0.204060  2 O  py         
     6      0.189929  1 C  s                  4     -0.166073  1 C  py         
 
 Vector    9  Occ=0.000000D+00  E=-9.292846D-02
              MO Center=  1.0D+01,  2.0D+01,  3.0D+01, r^2= 1.4D+00
   Bfn.  Coefficient  Atom+Function         Bfn.  Coefficient  Atom+Function  
  ----- ------------  ---------------      ----- ------------  ---------------
    13      0.538292  1 C  pz                32     -0.422353  2 O  pz         
     9      0.388749  1 C  pz                28     -0.284514  2 O  pz         
     5      0.243034  1 C  pz                24     -0.207748  2 O  pz         
 
 Vector   10  Occ=0.000000D+00  E= 4.479959D-02
              MO Center=  9.2D+00,  2.1D+01,  3.0D+01, r^2= 2.7D+00
   Bfn.  Coefficient  Atom+Function         Bfn.  Coefficient  Atom+Function  
  ----- ------------  ---------------      ----- ------------  ---------------
    41      1.835712  3 H  s                 10     -1.207325  1 C  s          
    12     -0.669561  1 C  py                11      0.289014  1 C  px         
     8     -0.205321  1 C  py                31      0.203331  2 O  py         
     6     -0.193930  1 C  s                  4     -0.152682  1 C  py         
 
 Vector   11  Occ=0.000000D+00  E= 1.648238D-01
              MO Center=  1.0D+01,  2.0D+01,  3.0D+01, r^2= 2.8D+00
   Bfn.  Coefficient  Atom+Function         Bfn.  Coefficient  Atom+Function  
  ----- ------------  ---------------      ----- ------------  ---------------
    29      1.812971  2 O  s                 10     -1.667326  1 C  s          
    11     -1.632299  1 C  px                30     -0.653292  2 O  px         
    41     -0.232456  3 H  s                 25      0.218954  2 O  s          
    40      0.201601  3 H  s          
 
 Vector   12  Occ=0.000000D+00  E= 3.118257D-01
              MO Center=  9.5D+00,  2.0D+01,  3.0D+01, r^2= 2.1D+00
   Bfn.  Coefficient  Atom+Function         Bfn.  Coefficient  Atom+Function  
  ----- ------------  ---------------      ----- ------------  ---------------
    40      1.614285  3 H  s                 11      0.754288  1 C  px         
    41     -0.616335  3 H  s                 10     -0.604023  1 C  s          
    12     -0.553552  1 C  py                 8     -0.444087  1 C  py         
    29     -0.273986  2 O  s                 31      0.221736  2 O  py         
     4     -0.161386  1 C  py         
 
 Vector   13  Occ=0.000000D+00  E= 3.498458D-01
              MO Center=  9.9D+00,  1.9D+01,  3.0D+01, r^2= 2.2D+00
   Bfn.  Coefficient  Atom+Function         Bfn.  Coefficient  Atom+Function  
  ----- ------------  ---------------      ----- ------------  ---------------
    12      1.367740  1 C  py                 8     -0.618059  1 C  py         
    40     -0.538855  3 H  s                  6      0.510050  1 C  s          
    10     -0.471677  1 C  s                  7     -0.250348  1 C  px         
     4     -0.175913  1 C  py                31     -0.157754  2 O  py         
    29      0.154800  2 O  s          
 
 Vector   14  Occ=0.000000D+00  E= 3.532692D-01
              MO Center=  1.0D+01,  2.0D+01,  3.0D+01, r^2= 2.5D+00
   Bfn.  Coefficient  Atom+Function         Bfn.  Coefficient  Atom+Function  
  ----- ------------  ---------------      ----- ------------  ---------------
    13      1.214222  1 C  pz                 9     -0.841641  1 C  pz         
     5     -0.245396  1 C  pz         
 
 Vector   15  Occ=0.000000D+00  E= 5.143393D-01
              MO Center=  9.5D+00,  2.1D+01,  3.0D+01, r^2= 2.6D+00
   Bfn.  Coefficient  Atom+Function         Bfn.  Coefficient  Atom+Function  
  ----- ------------  ---------------      ----- ------------  ---------------
    10      3.214520  1 C  s                 41     -1.982833  3 H  s          
    12      1.354679  1 C  py                 6     -1.330759  1 C  s          
    11     -0.752173  1 C  px                 8     -0.404913  1 C  py         
     7      0.245652  1 C  px                19     -0.222877  1 C  dzz        
    17     -0.214312  1 C  dyy               29     -0.202545  2 O  s          
 
 Vector   16  Occ=0.000000D+00  E= 5.570522D-01
              MO Center=  1.1D+01,  2.0D+01,  3.0D+01, r^2= 1.5D+00
   Bfn.  Coefficient  Atom+Function         Bfn.  Coefficient  Atom+Function  
  ----- ------------  ---------------      ----- ------------  ---------------
     7      1.009298  1 C  px                30      0.943126  2 O  px         
    11     -0.763256  1 C  px                 6      0.737676  1 C  s          
    41     -0.389077  3 H  s                  3      0.316044  1 C  px         
    10      0.280994  1 C  s                 29     -0.253460  2 O  s          
    12      0.242132  1 C  py                25     -0.229487  2 O  s          
 
 Vector   17  Occ=0.000000D+00  E= 6.666202D-01
              MO Center=  1.2D+01,  2.0D+01,  3.0D+01, r^2= 1.4D+00
   Bfn.  Coefficient  Atom+Function         Bfn.  Coefficient  Atom+Function  
  ----- ------------  ---------------      ----- ------------  ---------------
    30      1.537833  2 O  px                10      0.733909  1 C  s          
    29     -0.679027  2 O  s                 26     -0.628118  2 O  px         
    11      0.399435  1 C  px                14      0.319459  1 C  dxx        
     6      0.312352  1 C  s                 22     -0.256618  2 O  px         
    25     -0.176660  2 O  s          
 
 Vector   18  Occ=0.000000D+00  E= 7.540642D-01
              MO Center=  1.1D+01,  2.0D+01,  3.0D+01, r^2= 1.7D+00
   Bfn.  Coefficient  Atom+Function         Bfn.  Coefficient  Atom+Function  
  ----- ------------  ---------------      ----- ------------  ---------------
    32      1.387441  2 O  pz                28     -0.782395  2 O  pz         
    13     -0.535504  1 C  pz                24     -0.257318  2 O  pz         
 
 
                     DFT Final Beta Molecular Orbital Analysis
                     -----------------------------------------
 
 Vector    1  Occ=1.000000D+00  E=-1.883664D+01
              MO Center=  1.1D+01,  2.0D+01,  3.0D+01, r^2= 1.5D-02
   Bfn.  Coefficient  Atom+Function         Bfn.  Coefficient  Atom+Function  
  ----- ------------  ---------------      ----- ------------  ---------------
    20      0.556003  2 O  s                 21      0.461881  2 O  s          
 
 Vector    2  Occ=1.000000D+00  E=-9.995727D+00
              MO Center=  1.0D+01,  2.0D+01,  3.0D+01, r^2= 2.8D-02
   Bfn.  Coefficient  Atom+Function         Bfn.  Coefficient  Atom+Function  
  ----- ------------  ---------------      ----- ------------  ---------------
     1      0.566394  1 C  s                  2      0.456276  1 C  s          
 
 Vector    3  Occ=1.000000D+00  E=-1.012760D+00
              MO Center=  1.1D+01,  2.0D+01,  3.0D+01, r^2= 4.5D-01
   Bfn.  Coefficient  Atom+Function         Bfn.  Coefficient  Atom+Function  
  ----- ------------  ---------------      ----- ------------  ---------------
    25      0.506989  2 O  s                 29      0.332390  2 O  s          
     6      0.247841  1 C  s                 21     -0.173968  2 O  s          
 
 Vector    4  Occ=1.000000D+00  E=-5.376135D-01
              MO Center=  1.0D+01,  2.0D+01,  3.0D+01, r^2= 1.3D+00
   Bfn.  Coefficient  Atom+Function         Bfn.  Coefficient  Atom+Function  
  ----- ------------  ---------------      ----- ------------  ---------------
     6      0.391102  1 C  s                 29     -0.282539  2 O  s          
    10      0.270737  1 C  s                 25     -0.253136  2 O  s          
    40      0.182465  3 H  s          
 
 Vector    5  Occ=1.000000D+00  E=-4.299953D-01
              MO Center=  1.1D+01,  2.0D+01,  3.0D+01, r^2= 1.2D+00
   Bfn.  Coefficient  Atom+Function         Bfn.  Coefficient  Atom+Function  
  ----- ------------  ---------------      ----- ------------  ---------------
    26      0.305430  2 O  px                29      0.278298  2 O  s          
    30      0.230899  2 O  px                22      0.223363  2 O  px         
    25      0.197655  2 O  s                  7     -0.195909  1 C  px         
 
 Vector    6  Occ=1.000000D+00  E=-3.891082D-01
              MO Center=  1.1D+01,  2.0D+01,  3.0D+01, r^2= 8.8D-01
   Bfn.  Coefficient  Atom+Function         Bfn.  Coefficient  Atom+Function  
  ----- ------------  ---------------      ----- ------------  ---------------
    28      0.366475  2 O  pz                32      0.303711  2 O  pz         
    24      0.252618  2 O  pz                 9      0.230872  1 C  pz         
    13      0.158092  1 C  pz                 5      0.153925  1 C  pz         
 
 Vector    7  Occ=1.000000D+00  E=-3.500546D-01
              MO Center=  1.1D+01,  2.0D+01,  3.0D+01, r^2= 1.1D+00
   Bfn.  Coefficient  Atom+Function         Bfn.  Coefficient  Atom+Function  
  ----- ------------  ---------------      ----- ------------  ---------------
    27      0.329928  2 O  py                31      0.291920  2 O  py         
    23      0.230595  2 O  py                10     -0.193763  1 C  s          
     8      0.151483  1 C  py         
 
 Vector    8  Occ=0.000000D+00  E=-1.170744D-01
              MO Center=  1.0D+01,  2.0D+01,  3.0D+01, r^2= 1.6D+00
   Bfn.  Coefficient  Atom+Function         Bfn.  Coefficient  Atom+Function  
  ----- ------------  ---------------      ----- ------------  ---------------
    10      0.617523  1 C  s                 31      0.335293  2 O  py         
    40     -0.290593  3 H  s                 27      0.261806  2 O  py         
    41     -0.259386  3 H  s                 12     -0.248348  1 C  py         
     8     -0.238780  1 C  py                 6      0.185401  1 C  s          
    23      0.186242  2 O  py                11     -0.170661  1 C  px         
 
 Vector    9  Occ=0.000000D+00  E=-7.649697D-02
              MO Center=  1.0D+01,  2.0D+01,  3.0D+01, r^2= 1.4D+00
   Bfn.  Coefficient  Atom+Function         Bfn.  Coefficient  Atom+Function  
  ----- ------------  ---------------      ----- ------------  ---------------
    13      0.551324  1 C  pz                32     -0.421260  2 O  pz         
     9      0.385089  1 C  pz                28     -0.280327  2 O  pz         
     5      0.244322  1 C  pz                24     -0.204318  2 O  pz         
 
 Vector   10  Occ=0.000000D+00  E= 6.156007D-02
              MO Center=  9.2D+00,  2.1D+01,  3.0D+01, r^2= 2.7D+00
   Bfn.  Coefficient  Atom+Function         Bfn.  Coefficient  Atom+Function  
  ----- ------------  ---------------      ----- ------------  ---------------
    41      1.858478  3 H  s                 10     -1.177547  1 C  s          
    12     -0.650720  1 C  py                11      0.263134  1 C  px         
    31      0.200649  2 O  py                 6     -0.194623  1 C  s          
     8     -0.194602  1 C  py         
 
 Vector   11  Occ=0.000000D+00  E= 1.737372D-01
              MO Center=  1.0D+01,  2.0D+01,  3.0D+01, r^2= 2.8D+00
   Bfn.  Coefficient  Atom+Function         Bfn.  Coefficient  Atom+Function  
  ----- ------------  ---------------      ----- ------------  ---------------
    29      1.815172  2 O  s                 10     -1.698740  1 C  s          
    11     -1.630302  1 C  px                30     -0.647427  2 O  px         
    40      0.230404  3 H  s                 41     -0.230331  3 H  s          
    25      0.218986  2 O  s          
 
 Vector   12  Occ=0.000000D+00  E= 3.394731D-01
              MO Center=  9.6D+00,  2.0D+01,  3.0D+01, r^2= 2.3D+00
   Bfn.  Coefficient  Atom+Function         Bfn.  Coefficient  Atom+Function  
  ----- ------------  ---------------      ----- ------------  ---------------
    40      1.711607  3 H  s                 12     -0.877760  1 C  py         
    11      0.815595  1 C  px                10     -0.586169  1 C  s          
    41     -0.485402  3 H  s                 29     -0.321934  2 O  s          
     8     -0.314544  1 C  py                31      0.269449  2 O  py         
    27      0.159771  2 O  py         
 
 Vector   13  Occ=0.000000D+00  E= 3.643893D-01
              MO Center=  1.0D+01,  2.0D+01,  3.0D+01, r^2= 2.4D+00
   Bfn.  Coefficient  Atom+Function         Bfn.  Coefficient  Atom+Function  
  ----- ------------  ---------------      ----- ------------  ---------------
    13      1.205719  1 C  pz                 9     -0.845859  1 C  pz         
     5     -0.245517  1 C  pz         
 
 Vector   14  Occ=0.000000D+00  E= 3.877913D-01
              MO Center=  9.9D+00,  1.9D+01,  3.0D+01, r^2= 2.0D+00
   Bfn.  Coefficient  Atom+Function         Bfn.  Coefficient  Atom+Function  
  ----- ------------  ---------------      ----- ------------  ---------------
    12      1.286446  1 C  py                 8     -0.730916  1 C  py         
     6      0.468053  1 C  s                 10     -0.373348  1 C  s          
    41     -0.241490  3 H  s                 40     -0.222103  3 H  s          
     4     -0.211998  1 C  py                 7     -0.204474  1 C  px         
 
 Vector   15  Occ=0.000000D+00  E= 5.277333D-01
              MO Center=  9.5D+00,  2.1D+01,  3.0D+01, r^2= 2.6D+00
   Bfn.  Coefficient  Atom+Function         Bfn.  Coefficient  Atom+Function  
  ----- ------------  ---------------      ----- ------------  ---------------
    10      3.196483  1 C  s                 41     -1.967802  3 H  s          
     6     -1.401001  1 C  s                 12      1.267514  1 C  py         
    11     -0.718745  1 C  px                 8     -0.366637  1 C  py         
    19     -0.240972  1 C  dzz               17     -0.226562  1 C  dyy        
     7      0.209222  1 C  px                14     -0.205601  1 C  dxx        
 
 Vector   16  Occ=0.000000D+00  E= 5.694041D-01
              MO Center=  1.1D+01,  2.0D+01,  3.0D+01, r^2= 1.6D+00
   Bfn.  Coefficient  Atom+Function         Bfn.  Coefficient  Atom+Function  
  ----- ------------  ---------------      ----- ------------  ---------------
     7      1.045140  1 C  px                30      1.034819  2 O  px         
    11     -0.735112  1 C  px                 6      0.672953  1 C  s          
    10      0.503704  1 C  s                 41     -0.488394  3 H  s          
    29     -0.357313  2 O  s                  3      0.315705  1 C  px         
    12      0.259919  1 C  py                25     -0.233586  2 O  s          
 
 Vector   17  Occ=0.000000D+00  E= 6.748001D-01
              MO Center=  1.1D+01,  2.0D+01,  3.0D+01, r^2= 1.5D+00
   Bfn.  Coefficient  Atom+Function         Bfn.  Coefficient  Atom+Function  
  ----- ------------  ---------------      ----- ------------  ---------------
    30      1.497810  2 O  px                10      0.752132  1 C  s          
    29     -0.671675  2 O  s                 26     -0.642440  2 O  px         
    11      0.411148  1 C  px                14      0.313517  1 C  dxx        
     6      0.273214  1 C  s                 22     -0.264123  2 O  px         
    25     -0.157212  2 O  s          
 
 Vector   18  Occ=0.000000D+00  E= 7.585052D-01
              MO Center=  1.1D+01,  2.0D+01,  3.0D+01, r^2= 1.7D+00
   Bfn.  Coefficient  Atom+Function         Bfn.  Coefficient  Atom+Function  
  ----- ------------  ---------------      ----- ------------  ---------------
    32      1.389686  2 O  pz                28     -0.784338  2 O  pz         
    13     -0.549108  1 C  pz                24     -0.257536  2 O  pz         
 

   alpha - beta orbital overlaps 
   ----------------------------- 


   alpha      1      2      3      4      5      6      7      8      9     10
    beta      1      2      3      4      5      6      7      8      9     10
 overlap   1.000  1.000  1.000  0.998  0.989  1.000  0.986  0.997  1.000  0.999


   alpha     11     12     13     14     15     16     17     18     19     20
    beta     11     12     14     13     15     16     17     18     19     20
 overlap   1.000  0.979  0.977  1.000  0.997  0.997  0.999  1.000  1.000  0.998


   alpha     21     22     23     24     25     26     27     28     29     30
    beta     21     22     23     24     25     26     27     28     29     30
 overlap   0.971  0.971  0.998  0.999  0.999  1.000  1.000  1.000  0.999  1.000


   alpha     31     32     33     34     35     36     37     38     39     40
    beta     31     32     33     34     35     36     37     38     39     40
 overlap   0.999  0.999  1.000  1.000  1.000  0.998  0.998  1.000  1.000  1.000


   alpha     41     42     43     44
    beta     41     42     43     44
 overlap   1.000  1.000  1.000  1.000

     --------------------------
     Expectation value of S2:  
     --------------------------
      <S2> =      0.7518 (Exact =     0.7500)
 

 center of mass
 --------------
 x =  20.08907383 y =  37.85650088 z =  56.69177966

 moments of inertia (a.u.)
 ------------------
           3.094935031741           4.287705521905           0.000000000000
           4.287705521905          40.226747247856           0.000000000000
           0.000000000000           0.000000000000          43.321682279597
 
     Multipole analysis of the density
     ---------------------------------
 
     L   x y z        total         alpha         beta         nuclear
     -   - - -        -----         -----         ----         -------
     0   0 0 0      0.000000     -8.000000     -7.000000     15.000000
 
     1   1 0 0     -0.449782   -159.812022   -140.793252    300.155492
     1   0 1 0      0.372583   -303.027145   -265.301733    568.701461
     1   0 0 1      0.000000   -453.534237   -396.842458    850.376695
 
     2   2 0 0    -26.591252  -3209.941525  -2845.716620   6029.066893
     2   1 1 0    -10.384336  -6051.797036  -5334.397746  11375.810447
     2   1 0 1    -25.498931  -9060.027927  -7981.820047  17016.349043
     2   0 2 0     19.818312 -11484.981151 -10059.593346  21564.392809
     2   0 1 1     21.122372 -17179.148146 -15040.427399  32240.697916
     2   0 0 2     -8.053417 -25716.025320 -22501.396309  48209.368211
 
 
               ZORA NMR Hyperfine
               ------------------
 
 
            Hyperfine Tensor (in au)
            ------------------------
 

int_init: setting std/high accuracies to  1.0D-32  1.0D-64
  int_init: cando_txs set to always be  F
nat_slc=   2
 In hnd_hyperfine_zora:: atomnr(  1)=    1
 In hnd_hyperfine_zora:: atomnr(  2)=    3
(con,gnu,isonr,const_hfine)(  1,  1)=(    95.52131600,     1.40482200, 13,   134.19044619)
(con,gnu,isonr,const_hfine)(  2,  3)=(    95.52131600,     5.58568920,  1,   533.55238316)

 Read ZORA NMR data from ./cho_bp_props.zora_nmrhyp

 COMPUTE cphf hyp data ...
                                NWChem CPHF Module
                                ------------------
 
 

int_init: setting std/high accuracies to  1.0D-32  1.0D-64
  int_init: cando_txs set to always be  F
  scftype          =     UHF 
  nalpha           =        8
  nbeta            =        7
  variables        =      547
  # of vectors     =        3
  tolerance        = 0.10D-03
  level shift      = 0.00D+00
  max iterations   =       50
  max subspace     =       30

 Integrated density   0.149999999974E+02
 deviates from requested grid accuracy   0.10E-19
 SCF residual:   8.156979777216564E-006


Iterative solution of linear equations
  No. of variables      547
  No. of equations        3
  Maximum subspace       30
        Iterations       50
       Convergence  1.0D-04
        Start time     44.0


   iter   nsub   residual    time
   ----  ------  --------  ---------
     1      3    7.66D-09      46.0

 Wrote ZORA CPHF data to ./cho_bp_props.zora_hypcphf


int_init: setting std/high accuracies to  1.0D-32  1.0D-64
  int_init: cando_txs set to always be  F
NATOMS=  2
NW:(dia,par,dia+par)(1,1,1)=(     2.66022435     -0.00945912      2.65076523 )
NW:(dia,par,dia+par)(1,2,1)=(     0.40292619      0.00375834      0.40668453 )
NW:(dia,par,dia+par)(1,3,1)=(     0.00000000      0.00000000      0.00000000 )
NW:(dia,par,dia+par)(2,1,1)=(     0.40292619      0.00375834      0.40668453 )
NW:(dia,par,dia+par)(2,2,1)=(     3.13812144     -0.00145143      3.13667001 )
NW:(dia,par,dia+par)(2,3,1)=(     0.00000000      0.00000000      0.00000000 )
NW:(dia,par,dia+par)(3,1,1)=(     0.00000000      0.00000000      0.00000000 )
NW:(dia,par,dia+par)(3,2,1)=(     0.00000000      0.00000000      0.00000000 )
NW:(dia,par,dia+par)(3,3,1)=(     2.45708573      0.00112838      2.45821410 )
NW:(dia,par,dia+par)(1,1,2)=(     0.63769538     -0.00041859      0.63727679 )
NW:(dia,par,dia+par)(1,2,2)=(    -0.02506482      0.00021079     -0.02485403 )
NW:(dia,par,dia+par)(1,3,2)=(     0.00000000      0.00000000      0.00000000 )
NW:(dia,par,dia+par)(2,1,2)=(    -0.02506482      0.00021079     -0.02485403 )
NW:(dia,par,dia+par)(2,2,2)=(     0.64484628     -0.00008719      0.64475909 )
NW:(dia,par,dia+par)(2,3,2)=(     0.00000000      0.00000000      0.00000000 )
NW:(dia,par,dia+par)(3,1,2)=(     0.00000000      0.00000000      0.00000000 )
NW:(dia,par,dia+par)(3,2,2)=(     0.00000000      0.00000000      0.00000000 )
NW:(dia,par,dia+par)(3,3,2)=(     0.60042347      0.00007435      0.60049782 )
      Atom:    1  C 

 ----- A-tensor in atomic units ----         ------------- A (MHz) ------------

 FC, SD terms:
  isotropic    A(au)      2.7518                           A(MHz)    369.2667
      2.6602      0.4029      0.0000           356.9767     54.0688      0.0000
      0.4029      3.1381      0.0000            54.0688    421.1059      0.0000
      0.0000      0.0000      2.4571             0.0000      0.0000    329.7174

 PSO-Spin-Orbit terms:
  isotropic    A(au)     -0.0033                           A(MHz)     -0.4376
     -0.0095      0.0038      0.0000            -1.2693      0.5043      0.0000
      0.0038     -0.0015      0.0000             0.5043     -0.1948      0.0000
      0.0000      0.0000      0.0011             0.0000      0.0000      0.1514

 Total hyperfine coupling tensor:
  isotropic    A(au)      2.7485                           A(MHz)    368.8291
      2.6508      0.4067      0.0000           355.7074     54.5732      0.0000
      0.4067      3.1367      0.0000            54.5732    420.9111      0.0000
      0.0000      0.0000      2.4582             0.0000      0.0000    329.8688

 In principal axis representation: total span,skew and asymm
        span        skew       asymm               span        skew       asymm
      0.9475      0.9193      0.0618           127.1395    123.3628      8.2879

 Principal Components and Axis System
        1           2           3                 1           2           3
      2.4200      2.4582      3.3674           324.7395    329.8688    451.8790

1     0.8697      0.0000      0.4935
2    -0.4935      0.0000      0.8697
3     0.0000      1.0000      0.0000



      Atom:    3  H 

 ----- A-tensor in atomic units ----         ------------- A (MHz) ------------

 FC, SD terms:
  isotropic    A(au)      0.6277                           A(MHz)    334.8868
      0.6377     -0.0251      0.0000           340.2439    -13.3734      0.0000
     -0.0251      0.6448      0.0000           -13.3734    344.0593      0.0000
      0.0000      0.0000      0.6004             0.0000      0.0000    320.3574

 PSO-Spin-Orbit terms:
  isotropic    A(au)     -0.0001                           A(MHz)     -0.0767
     -0.0004      0.0002      0.0000            -0.2233      0.1125      0.0000
      0.0002     -0.0001      0.0000             0.1125     -0.0465      0.0000
      0.0000      0.0000      0.0001             0.0000      0.0000      0.0397

 Total hyperfine coupling tensor:
  isotropic    A(au)      0.6275                           A(MHz)    334.8101
      0.6373     -0.0249      0.0000           340.0205    -13.2609      0.0000
     -0.0249      0.6448      0.0000           -13.2609    344.0128      0.0000
      0.0000      0.0000      0.6005             0.0000      0.0000    320.3970

 In principal axis representation: total span,skew and asymm
        span        skew       asymm               span        skew       asymm
      0.0657      0.5313      0.3982            35.0299    283.4756    212.4517

 Principal Components and Axis System
        1           2           3                 1           2           3
      0.6005      0.6159      0.6662           320.3970    328.6063    355.4270

1     0.0000      0.7579     -0.6524
2     0.0000      0.6524      0.7579
3     1.0000      0.0000      0.0000



 
                   ZORA EFG-Z4
                   -----------
 

int_init: setting std/high accuracies to  1.0D-32  1.0D-64
  int_init: cando_txs set to always be  F

          -----------------------
          Electric field gradient
          -----------------------

 1 a.u. = 0.324123 10**(16) esu/cm**3  ( or statvolts/cm**2 ) = 0.97174 10**(22) v/m**2 


 ------------------------------------------------------------
   Atom      X         Y         Z
 ------------------------------------------------------------
    1 C   18.89726  37.79452  56.69178
 ------------------------------------------------------------

 Electric field gradient in molecular frame (a.u.)
         XX             YY             ZZ             XY             XZ             YZ
 ------------------------------------------------------------------------------------------
        0.380946       0.225674      -0.606620       0.103056       0.000000       0.000000

 Principal components (a.u.) and orientation 
 of principal axis w.r.t. absolute frame                      Asymmetry parameter eta
 --------------------------------------------------------------------------------------
       -0.606620       0.432337       0.174283                       0.425396

        0.000000       0.894904      -0.446259
        0.000000       0.446259       0.894904
        1.000000       0.000000       0.000000
  

 ------------------------------------------------------------
   Atom      X         Y         Z
 ------------------------------------------------------------
    2 O   21.13351  37.79452  56.69178
 ------------------------------------------------------------

 Electric field gradient in molecular frame (a.u.)
         XX             YY             ZZ             XY             XZ             YZ
 ------------------------------------------------------------------------------------------
        0.068600       0.864299      -0.932899      -0.145737       0.000000       0.000000

 Principal components (a.u.) and orientation 
 of principal axis w.r.t. absolute frame                      Asymmetry parameter eta
 --------------------------------------------------------------------------------------
       -0.932899       0.890151       0.042748                       0.908355

        0.000000      -0.174665       0.984628
        0.000000       0.984628       0.174665
        1.000000       0.000000       0.000000
  

 ------------------------------------------------------------
   Atom      X         Y         Z
 ------------------------------------------------------------
    3 H   17.70386  39.57818  56.69178
 ------------------------------------------------------------

 Electric field gradient in molecular frame (a.u.)
         XX             YY             ZZ             XY             XZ             YZ
 ------------------------------------------------------------------------------------------
        0.002458      -0.112979       0.110521       0.176988       0.000000       0.000000

 Principal components (a.u.) and orientation 
 of principal axis w.r.t. absolute frame                      Asymmetry parameter eta
 --------------------------------------------------------------------------------------
       -0.241422       0.130901       0.110521                       0.084413

       -0.587347       0.809335       0.000000
        0.809335       0.587347       0.000000
        0.000000       0.000000       1.000000
  

int_init: setting std/high accuracies to  1.0D-32  1.0D-64
  int_init: cando_txs set to always be  F

          -----------------------
          Electric field gradient
          -----------------------

 1 a.u. = 0.324123 10**(16) esu/cm**3  ( or statvolts/cm**2 ) = 0.97174 10**(22) v/m**2 

 nat_slc=                     1
In hnd_efgmap_z4:: atomnr(  1)=    3

 Read ZORA EFGZ4 data from ./cho_bp_props.zora_efgz4

Atom(  1,  3)=(    17.70386351,    39.57818417,    56.69177966)
====> Electronic contribution to EFG in molecular frame (a.u.)
                     XX            YY            ZZ            XY            XZ            YZ
                ----------------------------------------------------------------------------------
  ANALYT(H )=(   0.14707692,   0.48791939,  -0.63499631,  -0.83474685,   0.00000000,   0.00000000)
  NUMERI(H )=(   0.14707692,   0.48791939,  -0.63499631,  -0.83474685,   0.00000000,   0.00000000)
Atom(  1,  3)=(    17.70386351,    39.57818417,    56.69177966)
====> Electronic contribution to EFG in molecular frame (a.u.)
                     XX            YY            ZZ            XY            XZ            YZ
                ----------------------------------------------------------------------------------
EFG-elec(H )=(   0.14703889,   0.48782287,  -0.63486176,  -0.83456671,   0.00000000,   0.00000000)
EFG-rhoS(H )=(   0.00004052,   0.00008968,  -0.00013020,  -0.00017468,   0.00000000,   0.00000000)
EFG-tot (H )=(   0.14707941,   0.48791255,  -0.63499196,  -0.83474139,   0.00000000,   0.00000000)

 ------------------------------------------------------------
   Atom      X         Y         Z
 ------------------------------------------------------------
    3 H   17.70386  39.57818  56.69178
 ------------------------------------------------------------

 Electric field gradient in molecular frame (a.u.)
         XX             YY             ZZ             XY             XZ             YZ
 ------------------------------------------------------------------------------------------
        0.002460      -0.112986       0.110526       0.176993       0.000000       0.000000

 Principal components (a.u.) and orientation 
 of principal axis w.r.t. absolute frame                      Asymmetry parameter eta
 --------------------------------------------------------------------------------------
       -0.241431       0.130905       0.110526                       0.084411

       -0.587341       0.809339       0.000000
        0.809339       0.587341       0.000000
        0.000000       0.000000       1.000000
  
 
            Scalar ZORA NMR Shielding
            -------------------------
 
 switch_skip_cphf= F
 switch_nmrcs_analysis= F

          -----------------------------------------
          Chemical Shielding Tensors (GIAO, in ppm)
          -----------------------------------------

(j,k)(  1)=(     0.00000000,     0.00000000)
(j,k)(  2)=(     0.00000000,     0.00000000)
(j,k)(  3)=(     0.00000000,     0.00000000)
(j,k)(  4)=(     0.00000000,     0.00000000)
(j,k)(  5)=(     0.00000000,     0.00000000)
(j,k)(  6)=(     0.00000000,     0.00000000)
(j,k)(  7)=(     0.00000000,     0.00000000)
(j,k)(  8)=(     0.00000000,     0.00000000)
(j,k)(  9)=(     0.00000000,     0.00000000)
(j,k)( 10)=(     0.00000000,     0.00000000)
(j,k)( 11)=(     0.00000000,     0.00000000)
(j,k)( 12)=(     0.00000000,     0.00000000)

int_init: setting std/high accuracies to  1.0D-32  1.0D-64
  int_init: cando_txs set to always be  F
 nat_slc=                     2
In hnd_giaox_zora:: atomnr(  1)=    1
In hnd_giaox_zora:: atomnr(  2)=    2

 Read ZORA NMR data from ./cho_bp_props.zora_nmrcs

 Entering for xc, kfac=  0.000000000000000E+000
 Integrated density   0.149999999974E+02
 deviates from requested grid accuracy   0.10E-19
 COMPUTE cphf shield data ...
                                NWChem CPHF Module
                                ------------------
 
 

int_init: setting std/high accuracies to  1.0D-32  1.0D-64
  int_init: cando_txs set to always be  F
  scftype          =     UHF 
  nalpha           =        8
  nbeta            =        7
  variables        =      547
  # of vectors     =        3
  tolerance        = 0.10D-03
  level shift      = 0.00D+00
  max iterations   =       50
  max subspace     =       30

 Integrated density   0.149999999974E+02
 deviates from requested grid accuracy   0.10E-19
 SCF residual:   8.156979776492807E-006


Iterative solution of linear equations
  No. of variables      547
  No. of equations        3
  Maximum subspace       30
        Iterations       50
       Convergence  1.0D-04
        Start time     50.3


   iter   nsub   residual    time
   ----  ------  --------  ---------
     1      3    6.88D-05      52.3

 Wrote ZORA CPHF data to ./cho_bp_props.zora_shieldcphf


int_init: setting std/high accuracies to  1.0D-32  1.0D-64
  int_init: cando_txs set to always be  F
 Calc. par tensor-> zora
NW:(dia,gauge,OO,OV,Totpar,dia+par)(1,1,1)=(        269.125528           0.000000          12.693324        -471.398507        -458.705184        -189.579656 )
NW:(dia,gauge,OO,OV,Totpar,dia+par)(1,2,1)=(         -3.699078           0.000000           5.060598         138.369228         143.429826         139.730749 )
NW:(dia,gauge,OO,OV,Totpar,dia+par)(1,3,1)=(          0.000000         -79.780464         527.516083        -447.718518           0.017101           0.017101 )
NW:(dia,gauge,OO,OV,Totpar,dia+par)(2,1,1)=(         -3.699078           0.000000           5.039522          73.098230          78.137753          74.438675 )
NW:(dia,gauge,OO,OV,Totpar,dia+par)(2,2,1)=(        253.767769           0.000000          19.021904        -393.745928        -374.724024        -120.956254 )
NW:(dia,gauge,OO,OV,Totpar,dia+par)(2,3,1)=(          0.000000        -103.314680         480.467505        -377.132360           0.020464           0.020464 )
NW:(dia,gauge,OO,OV,Totpar,dia+par)(3,1,1)=(          0.000000           0.000000           0.000000           0.000000           0.000001           0.000000 )
NW:(dia,gauge,OO,OV,Totpar,dia+par)(3,2,1)=(          0.000000           0.000000           0.000000           0.000000           0.000000           0.000000 )
NW:(dia,gauge,OO,OV,Totpar,dia+par)(3,3,1)=(        247.856143          93.814222        -441.035923         125.767967        -221.453734          26.402409 )
NW:(dia,gauge,OO,OV,Totpar,dia+par)(1,1,2)=(        412.128056           0.000000         -38.211424       -1112.766932       -1150.978355        -738.850299 )
NW:(dia,gauge,OO,OV,Totpar,dia+par)(1,2,2)=(         -0.029737           0.000000         -18.515031         153.080576         134.565545         134.535808 )
NW:(dia,gauge,OO,OV,Totpar,dia+par)(1,3,2)=(          0.000000          56.678892         178.634508        -235.344507          -0.031107          -0.031107 )
NW:(dia,gauge,OO,OV,Totpar,dia+par)(2,1,2)=(         -0.029737           0.000000         -22.925692         -10.566525         -33.492217         -33.521954 )
NW:(dia,gauge,OO,OV,Totpar,dia+par)(2,2,2)=(        384.687390           0.000000          30.545694        -806.099453        -775.553758        -390.866368 )
NW:(dia,gauge,OO,OV,Totpar,dia+par)(2,3,2)=(         -0.000001          55.061086        -256.310933         201.204149          -0.045697          -0.045698 )
NW:(dia,gauge,OO,OV,Totpar,dia+par)(3,1,2)=(          0.000000           0.000000           0.000000           0.000002           0.000002           0.000002 )
NW:(dia,gauge,OO,OV,Totpar,dia+par)(3,2,2)=(         -0.000001           0.000000           0.000000           0.000000           0.000000           0.000000 )
NW:(dia,gauge,OO,OV,Totpar,dia+par)(3,3,2)=(        387.267363         -58.202705         192.509068        -512.603765        -378.297403           8.969960 )
      Atom:    1  C 
        Diamagnetic
    269.1255     -3.6991      0.0000
     -3.6991    253.7678      0.0000
      0.0000      0.0000    247.8561

        Paramagnetic
   -458.7052    110.7838      0.0086
    110.7838   -374.7240      0.0102
      0.0086      0.0102   -221.4537

        Total Shielding Tensor
   -189.5797    107.0847      0.0086
    107.0847   -120.9563      0.0102
      0.0086      0.0102     26.4024

           isotropic =     -94.7112
          anisotropy =    -259.5064

          Principal Components and Axis System
                 1           2           3
             -267.7154    -42.8205     26.4024

      1         0.8078      0.5894      0.0001
      2        -0.5894      0.8078      0.0002
      3         0.0000     -0.0002      1.0000



      Atom:    2  O 
        Diamagnetic
    412.1281     -0.0297      0.0000
     -0.0297    384.6874      0.0000
      0.0000      0.0000    387.2674

        Paramagnetic
  -1150.9784     50.5367     -0.0156
     50.5367   -775.5538     -0.0228
     -0.0156     -0.0228   -378.2974

        Total Shielding Tensor
   -738.8503     50.5069     -0.0156
     50.5069   -390.8664     -0.0228
     -0.0156     -0.0228      8.9700

           isotropic =    -373.5822
          anisotropy =    -558.6757

          Principal Components and Axis System
                 1           2           3
             -746.0327   -383.6840      8.9700

      1         0.9900      0.1408      0.0000
      2        -0.1408      0.9900     -0.0001
      3         0.0000      0.0001      1.0000



 
                  ZORA g-Shift
                  ------------
 
 
             g-Shift Tensor (in ppm)
             -----------------------
 

int_init: setting std/high accuracies to  1.0D-32  1.0D-64
  int_init: cando_txs set to always be  F

 Read ZORA NMR data from ./cho_bp_props.zora_nmrgshift


 Read ZORA NMR data from ./cho_bp_props.zora_nmrgshift_AB

nocc=(  8,  7) nclos=(  0,  0) nvirt=( 36, 37) scftyp=UHF)
 Entering for xc, kfac=  0.000000000000000E+000
 Integrated density   0.149999999974E+02
 deviates from requested grid accuracy   0.10E-19
 COMPUTE cphf g-shift data ...
                                NWChem CPHF Module
                                ------------------
 
 

int_init: setting std/high accuracies to  1.0D-32  1.0D-64
  int_init: cando_txs set to always be  F
  scftype          =     UHF 
  nalpha           =        8
  nbeta            =        7
  variables        =      547
  # of vectors     =        3
  tolerance        = 0.10D-03
  level shift      = 0.00D+00
  max iterations   =       50
  max subspace     =       30

 Integrated density   0.149999999974E+02
 deviates from requested grid accuracy   0.10E-19
 SCF residual:   8.156979777362283E-006


Iterative solution of linear equations
  No. of variables      547
  No. of equations        3
  Maximum subspace       30
        Iterations       50
       Convergence  1.0D-04
        Start time     56.7


   iter   nsub   residual    time
   ----  ------  --------  ---------
     1      3    6.88D-05      58.7

 Wrote ZORA CPHF data to ./cho_bp_props.zora_gshiftcphf


int_init: setting std/high accuracies to  1.0D-32  1.0D-64
  int_init: cando_txs set to always be  F
NW-1:(dia,gauge,OO,OV,Totpar)(1,1)=(   -2.375668     0.000000    -0.187929    -8.442016    -8.629945 )
NW-1:(dia,gauge,OO,OV,Totpar)(1,2)=(   -0.013062     0.000000    -0.042446     1.122451     1.080005 )
NW-1:(dia,gauge,OO,OV,Totpar)(1,3)=(    0.000000     0.000000     0.000000     0.000000     0.000000 )
NW-1:(dia,gauge,OO,OV,Totpar)(2,1)=(   -0.013757     0.000000    -0.031469     1.935156     1.903687 )
NW-1:(dia,gauge,OO,OV,Totpar)(2,2)=(   -2.470034     0.000000     0.125143    -3.676471    -3.551328 )
NW-1:(dia,gauge,OO,OV,Totpar)(2,3)=(    0.000000     0.000000     0.000000     0.000000     0.000000 )
NW-1:(dia,gauge,OO,OV,Totpar)(3,1)=(    0.000000    -0.294392     2.930313    -2.635759     0.000162 )
NW-1:(dia,gauge,OO,OV,Totpar)(3,2)=(    0.000000    -0.918187     4.166824    -3.248422     0.000215 )
NW-1:(dia,gauge,OO,OV,Totpar)(3,3)=(   -2.471031     0.696222    -3.143670     2.217233    -0.230216 )
NW-2:(dia,gauge,OO,OV,Totpar)(1,1)=(   -2.342729     0.000000     0.004188    -0.334895    -0.330706 )
NW-2:(dia,gauge,OO,OV,Totpar)(1,2)=(   -0.002156     0.000000    -0.078133    -0.876958    -0.955091 )
NW-2:(dia,gauge,OO,OV,Totpar)(1,3)=(    0.000000     0.000000     0.000000     0.000000     0.000000 )
NW-2:(dia,gauge,OO,OV,Totpar)(2,1)=(   -0.001097     0.000000    -0.061125    -0.356073    -0.417198 )
NW-2:(dia,gauge,OO,OV,Totpar)(2,2)=(   -2.425390     0.000000     0.127734    -3.021356    -2.893622 )
NW-2:(dia,gauge,OO,OV,Totpar)(2,3)=(    0.000000     0.000000     0.000000     0.000000     0.000000 )
NW-2:(dia,gauge,OO,OV,Totpar)(3,1)=(    0.000000     0.254155     0.058376    -0.312628    -0.000096 )
NW-2:(dia,gauge,OO,OV,Totpar)(3,2)=(    0.000000     0.749822    -3.781941     3.031843    -0.000276 )
NW-2:(dia,gauge,OO,OV,Totpar)(3,3)=(   -2.432244    -0.584340     2.605805    -5.090047    -3.068582 )
NW-T:(dia,gauge,OO,OV,Totpar)(1,1)=(   -0.032939     0.000000    -0.192117    -8.107122    -8.299239 )
NW-T:(dia,gauge,OO,OV,Totpar)(1,2)=(   -0.011783     0.000000     0.035687     1.999409     2.035097 )
NW-T:(dia,gauge,OO,OV,Totpar)(1,3)=(    0.000000     0.000000     0.000000     0.000000     0.000000 )
NW-T:(dia,gauge,OO,OV,Totpar)(2,1)=(   -0.011783     0.000000     0.029656     2.291228     2.320884 )
NW-T:(dia,gauge,OO,OV,Totpar)(2,2)=(   -0.044644     0.000000    -0.002592    -0.655115    -0.657706 )
NW-T:(dia,gauge,OO,OV,Totpar)(2,3)=(    0.000000     0.000000     0.000000     0.000000     0.000000 )
NW-T:(dia,gauge,OO,OV,Totpar)(3,1)=(    0.000000    -0.548548     2.871937    -2.323130     0.000259 )
NW-T:(dia,gauge,OO,OV,Totpar)(3,2)=(    0.000000    -1.668009     7.948765    -6.280265     0.000492 )
NW-T:(dia,gauge,OO,OV,Totpar)(3,3)=(   -0.038787     1.280562    -5.749475     7.307279     2.838366 )
        Diamagnetic
     -0.0329     -0.0118      0.0000
     -0.0118     -0.0446      0.0000
      0.0000      0.0000     -0.0388

        Paramagnetic
     -8.2992      2.1780      0.0001
      2.1780     -0.6577      0.0002
      0.0001      0.0002      2.8384

        Total g shift Tensor
     -8.3322      2.1662      0.0001
      2.1662     -0.7024      0.0002
      0.0001      0.0002      2.7996

           isotropic =      -2.0783
          anisotropy =     -10.2390

          Principal Components and Axis System
                 1           2           3
               -8.9043      2.7996     -0.1302

      1         0.9668      0.0000      0.2554
      2        -0.2554      0.0001      0.9668
      3         0.0000      1.0000     -0.0001




 Task  times  cpu:       56.9s     wall:       58.6s
 
 
                                NWChem Input Module
                                -------------------
 
 
 Summary of allocated global arrays
-----------------------------------
  array 0 => double precision dft_zoraNMR_read: g_AtNr1(1,2),  handle: -1000 
  array 1 => double precision density matrix(44,44),  handle: -990 
  array 2 => double precision density matrix(44,44),  handle: -987 
  array 3 => double precision density matrix(44,44),  handle: -985 
  array 4 => double precision sf 1(44,44),  handle: -981 
  array 5 => double precision sf 1(44,44),  handle: -980 
  array 6 => double precision g_Cifull(44),  handle: -976 



                         GA Statistics for process    0
                         ------------------------------

       create   destroy   get      put      acc     scatter   gather  read&inc
calls: 1540     1528     7.84e+05 6492     2.66e+04  206        0        0     
number of processes/call 1.13e+00 2.39e+00 1.71e+00 2.07e+00 0.00e+00
bytes total:             1.57e+08 1.32e+07 5.51e+07 3.81e+05 0.00e+00 0.00e+00
bytes remote:            8.68e+07 4.29e+06 3.12e+07 -3.07e+05 0.00e+00 0.00e+00
Max memory consumed for GA by this process: 4254376 bytes
 
MA_summarize_allocated_blocks: starting scan ...
MA_summarize_allocated_blocks: scan completed: 0 heap blocks, 0 stack blocks
MA usage statistics:

	allocation statistics:
					      heap	     stack
					      ----	     -----
	current number of blocks	         0	         0
	maximum number of blocks	        60	        82
	current total bytes		         0	         0
	maximum total bytes		   4641632	  22543680
	maximum total K-bytes		      4642	     22544
	maximum total M-bytes		         5	        23
 
 
                                     CITATION
                                     --------
                Please cite the following reference when publishing
                           results obtained with NWChem:
 
                 M. Valiev, E.J. Bylaska, N. Govind, K. Kowalski,
              T.P. Straatsma, H.J.J. van Dam, D. Wang, J. Nieplocha,
                        E. Apra, T.L. Windus, W.A. de Jong
                 "NWChem: a comprehensive and scalable open-source
                  solution for large scale molecular simulations"
                      Comput. Phys. Commun. 181, 1477 (2010)
                           doi:10.1016/j.cpc.2010.04.018
 
                              AUTHORS & CONTRIBUTORS
                              ----------------------
      E. J. Bylaska, W. A. de Jong, N. Govind, K. Kowalski, T. P. Straatsma,
     M. Valiev, H. J. J. van Dam, D. Wang, E. Apra, T. L. Windus, J. Hammond,
    J. Autschbach, F. Aquino, J. Mullin, P. Nichols, S. Hirata, M. T. Hackler,
   Y. Zhao, P.-D. Fan, R. J. Harrison, M. Dupuis, D. M. A. Smith, K. Glaesemann,
    J. Nieplocha, V. Tipparaju, M. Krishnan, A. Vazquez-Mayagoitia, L. Jensen,
      M. Swart, Q. Wu, T. Van Voorhis, A. A. Auer, M. Nooijen, L. D. Crosby,
        E. Brown, G. Cisneros, G. I. Fann, H. Fruchtl, J. Garza, K. Hirao,
        R. Kendall, J. A. Nichols, K. Tsemekhman, K. Wolinski, J. Anchell,
       D. Bernholdt, P. Borowski, T. Clark, D. Clerc, H. Dachsel, M. Deegan,
        K. Dyall, D. Elwood, E. Glendening, M. Gutowski, A. Hess, J. Jaffe,
        B. Johnson, J. Ju, R. Kobayashi, R. Kutteh, Z. Lin, R. Littlefield,
    X. Long, B. Meng, T. Nakajima, S. Niu, L. Pollack, M. Rosing, G. Sandrone,
       M. Stave, H. Taylor, G. Thomas, J. H. van Lenthe, A. Wong, Z. Zhang.

 Total times  cpu:       56.9s     wall:       58.7s
