 argument  1 = /sequim/edo/nwchem-dm3d/QA/tests/cho_bp_props/cho_bp_props.nw
  NWChem w/ OpenMP: maximum threads =    1



============================== echo of input deck ==============================

echo
start cho_bp_props
title cho_bp_props


geometry noautoz units angstrom nocenter
symmetry c1
  C    +10.00000000    +20.00000000    +30.00000000
  O    +11.18337200    +20.00000000    +30.00000000
  H     +9.36848179    +20.94387462    +30.00000000
end

basis
"*" library 6-311G**
end

charge 0

property
 efieldgradZ4 1 3
 shielding 2 1 2
 hyperfine 2 1 3
 gshift
# nbofile 2
# gshiftfile
# hypfile
# shldfile
# efgfile
end

relativistic
  zora on
  zora:cutoff_NMR 1d-8
  zora:cutoff 1d-30
# zora:do_NonRel
# zora:do_prntNMRCS
# zora:not_zora_scale
end

set dft:tol_rho 1d-30
set int:acc_std 1d-32
set int:cando_txs f
set dft:job_grid_acc 1d-20

dft
odft
mult 2
grid xfine
direct
xc becke88 perdew86
convergence energy 1e-8
end

task dft property
================================================================================


                                         
                                         


             Northwest Computational Chemistry Package (NWChem) 7.2.0
             --------------------------------------------------------


                    Environmental Molecular Sciences Laboratory
                       Pacific Northwest National Laboratory
                                Richland, WA 99352

                              Copyright (c) 1994-2022
                       Pacific Northwest National Laboratory
                            Battelle Memorial Institute

             NWChem is an open-source computational chemistry package
                        distributed under the terms of the
                      Educational Community License (ECL) 2.0
             A copy of the license is included with this distribution
                              in the LICENSE.TXT file

                                  ACKNOWLEDGMENT
                                  --------------

            This software and its documentation were developed at the
            EMSL at Pacific Northwest National Laboratory, a multiprogram
            national laboratory, operated for the U.S. Department of Energy
            by Battelle under Contract Number DE-AC05-76RL01830. Support
            for this work was provided by the Department of Energy Office
            of Biological and Environmental Research, Office of Basic
            Energy Sciences, and the Office of Advanced Scientific Computing.


           Job information
           ---------------

    hostname        = s9.emsl.pnl.gov
    program         = /opt/nwchem/bin/nwchem
    date            = Wed Jul 19 16:11:26 2023

    compiled        = Wed_Jul_19_22:10:26_2023
    source          = /nwchem
    nwchem branch   = 7.2.0
    nwchem revision = v7.2.0-beta1-603-g9eba058b4f
    ga revision     = 5.8.0
    use scalapack   = T
    input           = /sequim/edo/nwchem-dm3d/QA/tests/cho_bp_props/cho_bp_props.nw
    prefix          = cho_bp_props.
    data base       = ./cho_bp_props.db
    status          = startup
    nproc           =      105
    time left       =     -1s



           Memory information
           ------------------

    heap     =  123668902 doubles =    943.5 Mbytes
    stack    =  123668901 doubles =    943.5 Mbytes
    global   =   70667946 doubles =    539.2 Mbytes (distinct from heap & stack)
    total    =  318005749 doubles =   2426.2 Mbytes
    verify   = yes
    hardfail = no 


           Directory information
           ---------------------

  0 permanent = .
  0 scratch   = /big_scratch




                                NWChem Input Module
                                -------------------


                                   cho_bp_props
                                   ------------

 Scaling coordinates for geometry "geometry" by  1.889725989
 (inverse scale =  0.529177249)

 Turning off AUTOSYM since
 SYMMETRY directive was detected!



                             Geometry "geometry" -> ""
                             -------------------------

 Output coordinates in angstroms (scale by  1.889725989 to convert to a.u.)

  No.       Tag          Charge          X              Y              Z
 ---- ---------------- ---------- -------------- -------------- --------------
    1 C                    6.0000    10.00000000    20.00000000    30.00000000
    2 O                    8.0000    11.18337200    20.00000000    30.00000000
    3 H                    1.0000     9.36848179    20.94387462    30.00000000

      Atomic Mass 
      ----------- 

      C                 12.000000
      O                 15.994910
      H                  1.007825


 Effective nuclear repulsion energy (a.u.)      26.3297764084

            Nuclear Dipole moment (a.u.) 
            ----------------------------
        X                 Y               Z
 ---------------- ---------------- ----------------
   300.1554924938   568.7014609734   850.3766948610


            XYZ format geometry
            -------------------
     3
 geometry
 C                    10.00000000    20.00000000    30.00000000
 O                    11.18337200    20.00000000    30.00000000
 H                     9.36848179    20.94387462    30.00000000

 ==============================================================================
                                internuclear distances
 ------------------------------------------------------------------------------
       center one      |      center two      | atomic units |  angstroms
 ------------------------------------------------------------------------------
    2 O                |   1 C                |     2.23625  |     1.18337
    3 H                |   1 C                |     2.14608  |     1.13566
 ------------------------------------------------------------------------------
                         number of included internuclear distances:          2
 ==============================================================================



 ==============================================================================
                                 internuclear angles
 ------------------------------------------------------------------------------
        center 1       |       center 2       |       center 3       |  degrees
 ------------------------------------------------------------------------------
    2 O                |   1 C                |   3 H                |   123.79
 ------------------------------------------------------------------------------
                            number of included internuclear angles:          1
 ==============================================================================



  warning:::::::::::::: from_environment
  NWCHEM_BASIS_LIBRARY set to: </cluster/apps/nwchem/nwchem/src/basis/libraries/>
  but file does not exist !
  using .nwchemrc or compiled library


 Summary of "ao basis" -> "" (cartesian)
 ------------------------------------------------------------------------------
       Tag                 Description            Shells   Functions and Types
 ---------------- ------------------------------  ------  ---------------------
 *                          6-311G**                  on all atoms 


  perdew86 is a nonlocal functional; adding perdew81 local functional. 
                              NWChem Property Module
                              ----------------------


                                   cho_bp_props

  itol2e modified to match energy
  convergence criterion.

                                 NWChem DFT Module
                                 -----------------


                                   cho_bp_props


                      Basis "ao basis" -> "ao basis" (cartesian)
                      -----
  C (Carbon)
  ----------
            Exponent  Coefficients 
       -------------- ---------------------------------------------------------
  1 S  4.56324000E+03  0.001967
  1 S  6.82024000E+02  0.015231
  1 S  1.54973000E+02  0.076127
  1 S  4.44553000E+01  0.260801
  1 S  1.30290000E+01  0.616462
  1 S  1.82773000E+00  0.221006

  2 S  2.09642000E+01  0.114660
  2 S  4.80331000E+00  0.919999
  2 S  1.45933000E+00 -0.003031

  3 P  2.09642000E+01  0.040249
  3 P  4.80331000E+00  0.237594
  3 P  1.45933000E+00  0.815854

  4 S  4.83456000E-01  1.000000

  5 P  4.83456000E-01  1.000000

  6 S  1.45585000E-01  1.000000

  7 P  1.45585000E-01  1.000000

  8 D  6.26000000E-01  1.000000

  O (Oxygen)
  ----------
            Exponent  Coefficients 
       -------------- ---------------------------------------------------------
  1 S  8.58850000E+03  0.001895
  1 S  1.29723000E+03  0.014386
  1 S  2.99296000E+02  0.070732
  1 S  8.73771000E+01  0.240001
  1 S  2.56789000E+01  0.594797
  1 S  3.74004000E+00  0.280802

  2 S  4.21175000E+01  0.113889
  2 S  9.62837000E+00  0.920811
  2 S  2.85332000E+00 -0.003274

  3 P  4.21175000E+01  0.036511
  3 P  9.62837000E+00  0.237153
  3 P  2.85332000E+00  0.819702

  4 S  9.05661000E-01  1.000000

  5 P  9.05661000E-01  1.000000

  6 S  2.55611000E-01  1.000000

  7 P  2.55611000E-01  1.000000

  8 D  1.29200000E+00  1.000000

  H (Hydrogen)
  ------------
            Exponent  Coefficients 
       -------------- ---------------------------------------------------------
  1 S  3.38650000E+01  0.025494
  1 S  5.09479000E+00  0.190373
  1 S  1.15879000E+00  0.852161

  2 S  3.25840000E-01  1.000000

  3 S  1.02741000E-01  1.000000

  4 P  7.50000000E-01  1.000000



 Summary of "ao basis" -> "ao basis" (cartesian)
 ------------------------------------------------------------------------------
       Tag                 Description            Shells   Functions and Types
 ---------------- ------------------------------  ------  ---------------------
 C                          6-311G**                 8       19   4s3p1d
 O                          6-311G**                 8       19   4s3p1d
 H                          6-311G**                 4        6   3s1p




 Summary of "ao basis" -> "ao basis" (cartesian)
 ------------------------------------------------------------------------------
       Tag                 Description            Shells   Functions and Types
 ---------------- ------------------------------  ------  ---------------------
 C                          6-311G**                 8       19   4s3p1d
 O                          6-311G**                 8       19   4s3p1d
 H                          6-311G**                 4        6   3s1p



int_init: setting std/high accuracies to  1.0D-32  1.0D-64
  int_init: cando_txs set to always be  F
  Caching 1-el integrals 

            General Information
            -------------------
          SCF calculation type: DFT
          Wavefunction type:  spin polarized.
          No. of atoms     :     3
          No. of electrons :    15
           Alpha electrons :     8
            Beta electrons :     7
          Charge           :     0
          Spin multiplicity:     2
          Use of symmetry is: off; symmetry adaption is: off
          Maximum number of iterations:  50
          This is a Direct SCF calculation.
          AO basis - number of functions:    44
                     number of shells:    20
          Convergence on energy requested:  1.00D-08
          Convergence on density requested:  1.00D-05
          Convergence on gradient requested:  5.00D-04

              XC Information
              --------------
                    Becke 1988 Exchange Functional  1.000          
                Perdew 1981 Correlation Functional  1.000 local    
                Perdew 1986 Correlation Functional  1.000 non-local

             Grid Information
             ----------------
          Grid used for XC integration:  xfine     
          Radial quadrature: Mura-Knowles        
          Angular quadrature: Lebedev. 
          Tag              B.-S. Rad. Rad. Pts. Rad. Cut. Ang. Pts.
          ---              ---------- --------- --------- ---------
          C                   0.70      100          10.0      1454
          O                   0.60      100          10.0      1454
          H                   0.35      100          10.0      1202
          Grid pruning is: on 
          Number of quadrature shells:   300
          Spatial weights used:  Erf1

          Convergence Information
          -----------------------
          Convergence aids based upon iterative change in 
          total energy or number of iterations. 
          Levelshifting, if invoked, occurs when the 
          HOMO/LUMO gap drops below (HL_TOL):  1.00D-02
          DIIS, if invoked, will attempt to extrapolate 
          using up to (NFOCK): 10 stored Fock matrices.

                    Damping( 0%)  Levelshifting(0.5)       DIIS
                  --------------- ------------------- ---------------
          dE  on:    start            ASAP                start   
          dE off:    2 iters         50 iters            50 iters 


      Screening Tolerance Information
      -------------------------------
          Density screening/tol_rho:  1.00D-30
          AO Gaussian exp screening on grid/accAOfunc:  18
          CD Gaussian exp screening on grid/accCDfunc:  20
          XC Gaussian exp screening on grid/accXCfunc:  20
          Schwarz screening/accCoul:  1.00D-09

 dft: using ZORA

      Superposition of Atomic Density Guess
      -------------------------------------

 Sum of atomic energies:        -112.94448641
          Performing ZORA calculations
          ----------------------------


 Read atomic ZORA corrections from ./cho_bp_props.zora_sf

 dft_zora_read: failed to open./cho_bp_props.zora_sf
       Generating atomic ZORA corrections
       ----------------------------------

 In dft_scf:: zora:Knucl= F

 Grid_pts file          = /big_scratch/cho_bp_props.gridpts.000
 Record size in doubles =  12289        No. of grid_pts per rec  =   3070
 Max. records in memory =      3        Max. recs in file   =   9649999

 Grid integrated density:      14.999999995016
 Requested integration accuracy:   0.10E-19

 Wrote atomic ZORA corrections to ./cho_bp_props.zora_sf


      Superposition of Atomic Density Guess
      -------------------------------------

 Sum of atomic energies:        -112.94448641

      Non-variational initial energy
      ------------------------------

 Total energy =    -113.416825
 1-e energy   =    -205.865334
 2-e energy   =      66.118733
 HOMO         =      -0.119913
 LUMO         =      -0.003902

  WARNING: movecs_in_org=atomic not equal to movecs_in=./cho_bp_props.movecs
   Time after variat. SCF:      2.1
   Time prior to 1st pass:      2.1
 Grid integrated density:      14.999999197615
 Requested integration accuracy:   0.10E-19

           Memory utilization after 1st SCF pass: 
           Heap Space remaining (MW):       74.23            74232214
          Stack Space remaining (MW):      123.66           123664484

   convergence    iter        energy       DeltaE   RMS-Dens  Diis-err    time
 ---------------- ----- ----------------- --------- --------- ---------  ------
 d= 0,ls=0.0,diis     1   -113.9063951114 -1.40D+02  1.54D-02  2.91D-01     2.3
                                                     1.26D-02  2.89D-01
 Grid integrated density:      14.999999450189
 Requested integration accuracy:   0.10E-19
 d= 0,ls=0.0,diis     2   -113.2411792916  6.65D-01  1.37D-02  1.85D+00     2.6
                                                     1.11D-02  1.77D+00
 Grid integrated density:      14.999999193022
 Requested integration accuracy:   0.10E-19
 d= 0,ls=0.0,diis     3   -113.9720246233 -7.31D-01  2.55D-03  5.77D-02     2.8
                                                     1.83D-03  5.86D-02
 Grid integrated density:      14.999999206774
 Requested integration accuracy:   0.10E-19
 d= 0,ls=0.0,diis     4   -113.9899466352 -1.79D-02  1.56D-03  3.38D-03     3.0
                                                     7.19D-04  2.79D-03
 Grid integrated density:      14.999999995270
 Requested integration accuracy:   0.10E-19
 d= 0,ls=0.0,diis     5   -113.9912009196 -1.25D-03  4.67D-04  2.11D-04     3.2
                                                     1.86D-04  1.85D-04
 Grid integrated density:      14.999999995285
 Requested integration accuracy:   0.10E-19
  Resetting Diis
 d= 0,ls=0.0,diis     6   -113.9913016633 -1.01D-04  7.05D-05  9.52D-06     3.6
                                                     3.32D-05  8.48D-06
 Grid integrated density:      14.999999995285
 Requested integration accuracy:   0.10E-19
 d= 0,ls=0.0,diis     7   -113.9913064964 -4.83D-06  1.81D-05  2.79D-07     3.9
                                                     1.51D-05  2.19D-07
 Grid integrated density:      14.999999995284
 Requested integration accuracy:   0.10E-19
 d= 0,ls=0.0,diis     8   -113.9913056489  8.48D-07  1.18D-05  2.50D-06     4.1
                                                     1.15D-05  2.63D-06
 Grid integrated density:      14.999999995284
 Requested integration accuracy:   0.10E-19
 d= 0,ls=0.0,diis     9   -113.9913066092 -9.60D-07  1.36D-06  7.50D-09     4.3
                                                     9.64D-07  6.20D-09
 Grid integrated density:      14.999999995285
 Requested integration accuracy:   0.10E-19
 d= 0,ls=0.0,diis    10   -113.9913066119 -2.72D-09  4.41D-07  2.15D-10     4.6
                                                     3.28D-07  2.78D-10

      Commencing ZORA Property Calculations
      -------------------------------------

 Grid integrated density:      14.999999995016
 Requested integration accuracy:   0.10E-19
dia1(k,t,iat1,ispin)=(  1,  1,  1,  1)=(   138.89684275,   138.89684275) ppm
dia1(k,t,iat1,ispin)=(  1,  1,  1,  2)=(   132.09047981,   270.98732256) ppm
dia1(k,t,iat1,ispin)=(  1,  2,  1,  1)=(    -1.92309501,    -1.92309501) ppm
dia1(k,t,iat1,ispin)=(  1,  2,  1,  2)=(    -1.08491968,    -3.00801469) ppm
dia1(k,t,iat1,ispin)=(  1,  3,  1,  1)=(    -0.00000001,    -0.00000001) ppm
dia1(k,t,iat1,ispin)=(  1,  3,  1,  2)=(     0.00000000,    -0.00000001) ppm
dia1(k,t,iat1,ispin)=(  2,  1,  1,  1)=(    -2.94888479,    -2.94888479) ppm
dia1(k,t,iat1,ispin)=(  2,  1,  1,  2)=(    -0.43587574,    -3.38476053) ppm
dia1(k,t,iat1,ispin)=(  2,  2,  1,  1)=(   129.29600327,   129.29600327) ppm
dia1(k,t,iat1,ispin)=(  2,  2,  1,  2)=(   122.65155292,   251.94755619) ppm
dia1(k,t,iat1,ispin)=(  2,  3,  1,  1)=(    -0.00000010,    -0.00000010) ppm
dia1(k,t,iat1,ispin)=(  2,  3,  1,  2)=(    -0.00000009,    -0.00000019) ppm
dia1(k,t,iat1,ispin)=(  3,  1,  1,  1)=(     0.00000000,     0.00000000) ppm
dia1(k,t,iat1,ispin)=(  3,  1,  1,  2)=(     0.00000001,     0.00000001) ppm
dia1(k,t,iat1,ispin)=(  3,  2,  1,  1)=(    -0.00000011,    -0.00000011) ppm
dia1(k,t,iat1,ispin)=(  3,  2,  1,  2)=(    -0.00000010,    -0.00000021) ppm
dia1(k,t,iat1,ispin)=(  3,  3,  1,  1)=(   128.52588804,   128.52588804) ppm
dia1(k,t,iat1,ispin)=(  3,  3,  1,  2)=(   121.59987536,   250.12576341) ppm
(dia2,par1)(k,t,iat1,spin)=(  1,  1,  1,  1)=(    -2.52096836,    -2.52096836,    -0.00000035,    -0.00000035) ppm
(dia2,par1)(k,t,iat1,spin)=(  1,  1,  1,  2)=(     0.65940807,    -1.86156029,    -0.00000013,    -0.00000048) ppm
(dia2,par1)(k,t,iat1,spin)=(  2,  1,  1,  1)=(    -1.16897009,    -1.16897009,     0.00000000,     0.00000000) ppm
(dia2,par1)(k,t,iat1,spin)=(  2,  1,  1,  2)=(     0.42524635,    -0.74372374,    -0.00000023,    -0.00000023) ppm
(dia2,par1)(k,t,iat1,spin)=(  3,  1,  1,  1)=(    -0.00000000,    -0.00000000,     0.00000011,     0.00000011) ppm
(dia2,par1)(k,t,iat1,spin)=(  3,  1,  1,  2)=(    -0.00000000,    -0.00000000,     0.00000020,     0.00000031) ppm
(dia2,par1)(k,t,iat1,spin)=(  1,  2,  1,  1)=(     0.19501472,     0.19501472,    -0.00000023,    -0.00000023) ppm
(dia2,par1)(k,t,iat1,spin)=(  1,  2,  1,  2)=(    -0.45662594,    -0.26161122,    -0.00000009,    -0.00000032) ppm
(dia2,par1)(k,t,iat1,spin)=(  2,  2,  1,  1)=(     0.11291503,     0.11291503,    -0.00000050,    -0.00000050) ppm
(dia2,par1)(k,t,iat1,spin)=(  2,  2,  1,  2)=(     1.70756582,     1.82048085,     0.00000042,    -0.00000008) ppm
(dia2,par1)(k,t,iat1,spin)=(  3,  2,  1,  1)=(     0.00000001,     0.00000001,     0.00000041,     0.00000041) ppm
(dia2,par1)(k,t,iat1,spin)=(  3,  2,  1,  2)=(     0.00000000,     0.00000001,    -0.00000025,     0.00000016) ppm
(dia2,par1)(k,t,iat1,spin)=(  1,  3,  1,  1)=(     0.00000000,     0.00000000,   166.98630544,   166.98630544) ppm
(dia2,par1)(k,t,iat1,spin)=(  1,  3,  1,  2)=(     0.00000000,     0.00000000,   -87.20621042,    79.78009503) ppm
(dia2,par1)(k,t,iat1,spin)=(  2,  3,  1,  1)=(     0.00000000,     0.00000000,   285.15542529,   285.15542529) ppm
(dia2,par1)(k,t,iat1,spin)=(  2,  3,  1,  2)=(     0.00000000,     0.00000001,  -181.84062720,   103.31479809) ppm
(dia2,par1)(k,t,iat1,spin)=(  3,  3,  1,  1)=(    -4.66307268,    -4.66307268,  -244.60273065,  -244.60273065) ppm
(dia2,par1)(k,t,iat1,spin)=(  3,  3,  1,  2)=(     2.39374452,    -2.26932815,   150.78854152,   -93.81418912) ppm
 Grid integrated density:      14.999999995016
 Requested integration accuracy:   0.10E-19
dia1(k,t,iat1,ispin)=(  1,  1,  2,  1)=(   210.26178522,   210.26178522) ppm
dia1(k,t,iat1,ispin)=(  1,  1,  2,  2)=(   201.26585688,   411.52764209) ppm
dia1(k,t,iat1,ispin)=(  1,  2,  2,  1)=(    -0.92216305,    -0.92216305) ppm
dia1(k,t,iat1,ispin)=(  1,  2,  2,  2)=(     0.94849124,     0.02632819) ppm
dia1(k,t,iat1,ispin)=(  1,  3,  2,  1)=(    -0.00000002,    -0.00000002) ppm
dia1(k,t,iat1,ispin)=(  1,  3,  2,  2)=(    -0.00000002,    -0.00000004) ppm
dia1(k,t,iat1,ispin)=(  2,  1,  2,  1)=(    -1.11379117,    -1.11379117) ppm
dia1(k,t,iat1,ispin)=(  2,  1,  2,  2)=(     0.74440820,    -0.36938297) ppm
dia1(k,t,iat1,ispin)=(  2,  2,  2,  1)=(   194.72488412,   194.72488412) ppm
dia1(k,t,iat1,ispin)=(  2,  2,  2,  2)=(   190.05986998,   384.78475410) ppm
dia1(k,t,iat1,ispin)=(  2,  3,  2,  1)=(    -0.00000007,    -0.00000007) ppm
dia1(k,t,iat1,ispin)=(  2,  3,  2,  2)=(    -0.00000007,    -0.00000014) ppm
dia1(k,t,iat1,ispin)=(  3,  1,  2,  1)=(     0.00000003,     0.00000003) ppm
dia1(k,t,iat1,ispin)=(  3,  1,  2,  2)=(     0.00000003,     0.00000007) ppm
dia1(k,t,iat1,ispin)=(  3,  2,  2,  1)=(     0.00000002,     0.00000002) ppm
dia1(k,t,iat1,ispin)=(  3,  2,  2,  2)=(     0.00000002,     0.00000004) ppm
dia1(k,t,iat1,ispin)=(  3,  3,  2,  1)=(   198.97977092,   198.97977092) ppm
dia1(k,t,iat1,ispin)=(  3,  3,  2,  2)=(   189.60262248,   388.58239341) ppm
(dia2,par1)(k,t,iat1,spin)=(  1,  1,  2,  1)=(     0.43118995,     0.43118995,     0.00000001,     0.00000001) ppm
(dia2,par1)(k,t,iat1,spin)=(  1,  1,  2,  2)=(     0.16916390,     0.60035384,     0.00000003,     0.00000004) ppm
(dia2,par1)(k,t,iat1,spin)=(  2,  1,  2,  1)=(    -0.61110193,    -0.61110193,     0.00000040,     0.00000040) ppm
(dia2,par1)(k,t,iat1,spin)=(  2,  1,  2,  2)=(     0.47119222,    -0.13990971,    -0.00000025,     0.00000015) ppm
(dia2,par1)(k,t,iat1,spin)=(  3,  1,  2,  1)=(    -0.00000000,    -0.00000000,    -0.00000028,    -0.00000028) ppm
(dia2,par1)(k,t,iat1,spin)=(  3,  1,  2,  2)=(     0.00000000,     0.00000000,     0.00000016,    -0.00000012) ppm
(dia2,par1)(k,t,iat1,spin)=(  1,  2,  2,  1)=(     0.06634770,     0.06634770,     0.00000003,     0.00000003) ppm
(dia2,par1)(k,t,iat1,spin)=(  1,  2,  2,  2)=(     0.35708167,     0.42342937,     0.00000005,     0.00000007) ppm
(dia2,par1)(k,t,iat1,spin)=(  2,  2,  2,  1)=(    -0.61211934,    -0.61211934,    -0.00000107,    -0.00000107) ppm
(dia2,par1)(k,t,iat1,spin)=(  2,  2,  2,  2)=(     0.51457831,    -0.09754103,    -0.00000044,    -0.00000151) ppm
(dia2,par1)(k,t,iat1,spin)=(  3,  2,  2,  1)=(     0.00000000,     0.00000000,     0.00000070,     0.00000070) ppm
(dia2,par1)(k,t,iat1,spin)=(  3,  2,  2,  2)=(    -0.00000000,     0.00000000,     0.00000028,     0.00000098) ppm
(dia2,par1)(k,t,iat1,spin)=(  1,  3,  2,  1)=(     0.00000000,     0.00000000,   -42.26280908,   -42.26280908) ppm
(dia2,par1)(k,t,iat1,spin)=(  1,  3,  2,  2)=(     0.00000000,     0.00000000,   -14.41636877,   -56.67917786) ppm
(dia2,par1)(k,t,iat1,spin)=(  2,  3,  2,  1)=(     0.00000000,     0.00000000,    -2.55551705,    -2.55551705) ppm
(dia2,par1)(k,t,iat1,spin)=(  2,  3,  2,  2)=(     0.00000000,     0.00000000,   -52.50190634,   -55.05742339) ppm
(dia2,par1)(k,t,iat1,spin)=(  3,  3,  2,  1)=(    -1.86780010,    -1.86780010,    18.79655841,    18.79655841) ppm
(dia2,par1)(k,t,iat1,spin)=(  3,  3,  2,  2)=(     0.55261468,    -1.31518541,    39.40379507,    58.20035348) ppm
 Grid integrated density:      14.999999995016
 Requested integration accuracy:   0.10E-19

 Wrote ZORA NMR data to ./cho_bp_props.zora_nmrcs

 In get_NMRHFine_ZORA:: zora:Knucl= F
 dft_zora_Hypefine: ofinite= F
 nat_slc=                    2
In dft_zora_Hyperfine:: atomnr(  1)=    1
In dft_zora_Hyperfine:: atomnr(  2)=    3
 starting at time       7.93s
CHECK:(atom,ofinite,atmass,zetanucl_slc)=(   1,F,    12.00000000,                 680775029.28673279)
 Grid integrated density:      14.999999995016
 Requested integration accuracy:   0.10E-19
gFCSD(  1,  1,  1)=     2.66021016
gFCSD(  1,  1,  2)=     0.40292530
gFCSD(  1,  1,  3)=     0.00000000
gFCSD(  1,  2,  1)=     0.40292530
gFCSD(  1,  2,  2)=     3.13811556
gFCSD(  1,  2,  3)=     0.00000000
gFCSD(  1,  3,  1)=     0.00000000
gFCSD(  1,  3,  2)=     0.00000000
gFCSD(  1,  3,  3)=     2.45707523
 starting at time       8.15s
CHECK:(atom,ofinite,atmass,zetanucl_slc)=(   3,F,     1.00782500,                2118265472.55233502)
 Grid integrated density:      14.999999995016
 Requested integration accuracy:   0.10E-19
gFCSD(  3,  1,  1)=     0.63769575
gFCSD(  3,  1,  2)=    -0.02506455
gFCSD(  3,  1,  3)=    -0.00000000
gFCSD(  3,  2,  1)=    -0.02506455
gFCSD(  3,  2,  2)=     0.64484622
gFCSD(  3,  2,  3)=     0.00000000
gFCSD(  3,  3,  1)=    -0.00000000
gFCSD(  3,  3,  2)=     0.00000000
gFCSD(  3,  3,  3)=     0.60042359
 Grid integrated density:      14.999999995016
 Requested integration accuracy:   0.10E-19

 Wrote ZORA NMR data to ./cho_bp_props.zora_nmrhyp

(nogshift,skip_gshiftAOev,done_Fji)=( 0,F,T)
In dft_zora_EPR:: slc_spinpolAO=  0
 WARNING: SLC A-B contrib
 In dft_zora_EPR:: zora:Knucl= F
 Grid integrated density:      14.999999995016
 Requested integration accuracy:   0.10E-19
(q1,-q2,q1-q2,q3,dia2,dia1,dia2+dia1)(  1,  1)=(  0.00064023, -0.00000000,  0.00064023, -0.00769387, -0.00705364, -0.02588484, -0.03293848)
(q1,-q2,q1-q2,q3,dia2,dia1,dia2+dia1)(  1,  2)=( -0.00193994, -0.00000000, -0.00193994,  0.00471150,  0.00277156, -0.01367774, -0.01090618)
(q1,-q2,q1-q2,q3,dia2,dia1,dia2+dia1)(  1,  3)=( -0.54854425,  0.54854425, -0.00000000, -0.00000000, -0.00000000, -0.00000000, -0.00000000)
(q1,-q2,q1-q2,q3,dia2,dia1,dia2+dia1)(  2,  1)=( -0.00371522,  0.00000000, -0.00371522, -0.00318527, -0.00690049, -0.00575915, -0.01265964)
(q1,-q2,q1-q2,q3,dia2,dia1,dia2+dia1)(  2,  2)=(  0.00305097, -0.00000001,  0.00305096, -0.00698545, -0.00393449, -0.04070956, -0.04464405)
(q1,-q2,q1-q2,q3,dia2,dia1,dia2+dia1)(  2,  3)=( -1.66800995,  1.66800995,  0.00000000, -0.00000000,  0.00000000,  0.00000000,  0.00000000)
(q1,-q2,q1-q2,q3,dia2,dia1,dia2+dia1)(  3,  1)=(  0.00000000, -0.00000000, -0.00000000, -0.00000000, -0.00000000, -0.00000000, -0.00000000)
(q1,-q2,q1-q2,q3,dia2,dia1,dia2+dia1)(  3,  2)=( -0.00000000,  0.00000000, -0.00000000,  0.00000000,  0.00000000, -0.00000000,  0.00000000)
(q1,-q2,q1-q2,q3,dia2,dia1,dia2+dia1)(  3,  3)=(  1.27803040, -1.28056116, -0.00253076, -0.01467932, -0.01721008, -0.02157645, -0.03878653)

 Wrote ZORA NMR data to ./cho_bp_props.zora_nmrgshift


 Wrote ZORA NMR data to ./cho_bp_props.zora_nmrgshift_AB

 ==> nlist=                    1
xyz_EFG( 3)=(    17.70386351,    39.57818417,    56.69177966)
 Grid integrated density:      14.999999995016
 Requested integration accuracy:   0.10E-19
zora-efg(  4,  3,  1,  1,  1)=(     0.07855956,     0.07855956)
zora-efg(  4,  3,  1,  2,  1)=(     0.06851708,     0.14707663)
 Grid integrated density:      14.999999995016
 Requested integration accuracy:   0.10E-19
zora-efg(  4,  3,  2,  1,  2)=(     0.25255616,     0.25255616)
zora-efg(  4,  3,  2,  2,  2)=(     0.23536457,     0.48792073)
 Grid integrated density:      14.999999995016
 Requested integration accuracy:   0.10E-19
zora-efg(  4,  3,  3,  1,  3)=(    -0.33111572,    -0.33111572)
zora-efg(  4,  3,  3,  2,  3)=(    -0.30388165,    -0.63499737)
 Grid integrated density:      14.999999995016
 Requested integration accuracy:   0.10E-19
zora-efg(  4,  3,  4,  1,  4)=(    -0.42990773,    -0.42990773)
zora-efg(  4,  3,  4,  2,  4)=(    -0.40484074,    -0.83474848)
 Grid integrated density:      14.999999995016
 Requested integration accuracy:   0.10E-19
zora-efg(  4,  3,  5,  1,  5)=(     0.00000000,     0.00000000)
zora-efg(  4,  3,  5,  2,  5)=(     0.00000000,     0.00000000)
 Grid integrated density:      14.999999995016
 Requested integration accuracy:   0.10E-19
zora-efg(  4,  3,  6,  1,  6)=(     0.00000000,     0.00000000)
zora-efg(  4,  3,  6,  2,  6)=(    -0.00000000,    -0.00000000)
xyz_EFG( 3)=(    17.70386351,    39.57818417,    56.69177966)
 Grid integrated density:      14.999999995016
 Requested integration accuracy:   0.10E-19
zora-efg(  3,  3,  1,  1,  7)=(     0.00001985,     0.00001985)
zora-efg(  3,  3,  1,  2,  7)=(     0.00002067,     0.00004052)
 Grid integrated density:      14.999999995016
 Requested integration accuracy:   0.10E-19
zora-efg(  3,  3,  2,  1,  8)=(     0.00004623,     0.00004623)
zora-efg(  3,  3,  2,  2,  8)=(     0.00004345,     0.00008968)
 Grid integrated density:      14.999999995016
 Requested integration accuracy:   0.10E-19
zora-efg(  3,  3,  3,  1,  9)=(    -0.00006607,    -0.00006607)
zora-efg(  3,  3,  3,  2,  9)=(    -0.00006412,    -0.00013020)
 Grid integrated density:      14.999999995016
 Requested integration accuracy:   0.10E-19
zora-efg(  3,  3,  4,  1, 10)=(    -0.00008829,    -0.00008829)
zora-efg(  3,  3,  4,  2, 10)=(    -0.00008639,    -0.00017468)
 Grid integrated density:      14.999999995016
 Requested integration accuracy:   0.10E-19
zora-efg(  3,  3,  5,  1, 11)=(    -0.00000000,    -0.00000000)
zora-efg(  3,  3,  5,  2, 11)=(     0.00000000,    -0.00000000)
 Grid integrated density:      14.999999995016
 Requested integration accuracy:   0.10E-19
zora-efg(  3,  3,  6,  1, 12)=(     0.00000000,     0.00000000)
zora-efg(  3,  3,  6,  2, 12)=(    -0.00000000,     0.00000000)

 Wrote ZORA EFGZ4 data to ./cho_bp_props.zora_efgz4



         Total DFT energy =     -113.991306611909
      One electron energy =     -206.953874113831
           Coulomb energy =       80.932020601324
    Exchange-Corr. energy =      -14.299229507831
 Nuclear repulsion energy =       26.329776408429

       Scaling correction =        0.038086879974

 Numeric. integr. density =       14.999999995285

     Total iterative time =     10.8s



                    DFT Final Alpha Molecular Orbital Analysis
                    ------------------------------------------

 Vector    1  Occ=1.000000D+00  E=-1.884414D+01
              MO Center=  1.1D+01,  2.0D+01,  3.0D+01, r^2= 1.5D-02
   Bfn.  Coefficient  Atom+Function         Bfn.  Coefficient  Atom+Function  
  ----- ------------  ---------------      ----- ------------  ---------------
    20      0.555790  2 O  s                 21      0.461813  2 O  s          

 Vector    2  Occ=1.000000D+00  E=-1.000388D+01
              MO Center=  1.0D+01,  2.0D+01,  3.0D+01, r^2= 2.8D-02
   Bfn.  Coefficient  Atom+Function         Bfn.  Coefficient  Atom+Function  
  ----- ------------  ---------------      ----- ------------  ---------------
     1      0.566175  1 C  s                  2      0.456010  1 C  s          
     6      0.025495  1 C  s          

 Vector    3  Occ=1.000000D+00  E=-1.025007D+00
              MO Center=  1.1D+01,  2.0D+01,  3.0D+01, r^2= 4.5D-01
   Bfn.  Coefficient  Atom+Function         Bfn.  Coefficient  Atom+Function  
  ----- ------------  ---------------      ----- ------------  ---------------
    25      0.516059  2 O  s                 29      0.333188  2 O  s          
     6      0.249847  1 C  s                 21     -0.175826  2 O  s          
    26     -0.116856  2 O  px                 7      0.115014  1 C  px         
    20     -0.111480  2 O  s                  3      0.098136  1 C  px         
     2     -0.095707  1 C  s                 22     -0.082303  2 O  px         

 Vector    4  Occ=1.000000D+00  E=-5.576533D-01
              MO Center=  1.0D+01,  2.0D+01,  3.0D+01, r^2= 1.3D+00
   Bfn.  Coefficient  Atom+Function         Bfn.  Coefficient  Atom+Function  
  ----- ------------  ---------------      ----- ------------  ---------------
     6      0.403858  1 C  s                 10      0.272148  1 C  s          
    29     -0.273247  2 O  s                 25     -0.249315  2 O  s          
    40      0.199614  3 H  s                 39      0.147172  3 H  s          
     2     -0.139023  1 C  s                 26     -0.117875  2 O  px         
     8      0.099162  1 C  py                 1     -0.089840  1 C  s          

 Vector    5  Occ=1.000000D+00  E=-4.473748D-01
              MO Center=  1.1D+01,  2.0D+01,  3.0D+01, r^2= 1.1D+00
   Bfn.  Coefficient  Atom+Function         Bfn.  Coefficient  Atom+Function  
  ----- ------------  ---------------      ----- ------------  ---------------
    26      0.288998  2 O  px                29      0.272159  2 O  s          
    22      0.209452  2 O  px                30      0.209515  2 O  px         
    25      0.194755  2 O  s                  7     -0.165146  1 C  px         
    27      0.163050  2 O  py                 8      0.158770  1 C  py         
    40      0.134951  3 H  s                  6     -0.125651  1 C  s          

 Vector    6  Occ=1.000000D+00  E=-3.967529D-01
              MO Center=  1.1D+01,  2.0D+01,  3.0D+01, r^2= 8.9D-01
   Bfn.  Coefficient  Atom+Function         Bfn.  Coefficient  Atom+Function  
  ----- ------------  ---------------      ----- ------------  ---------------
    28      0.364997  2 O  pz                32      0.295367  2 O  pz         
    24      0.250783  2 O  pz                 9      0.239654  1 C  pz         
    13      0.162323  1 C  pz                 5      0.158344  1 C  pz         
    16      0.071251  1 C  dxz               35     -0.041023  2 O  dxz        

 Vector    7  Occ=1.000000D+00  E=-3.856359D-01
              MO Center=  1.1D+01,  2.0D+01,  3.0D+01, r^2= 1.1D+00
   Bfn.  Coefficient  Atom+Function         Bfn.  Coefficient  Atom+Function  
  ----- ------------  ---------------      ----- ------------  ---------------
    27      0.304027  2 O  py                31      0.245846  2 O  py         
    23      0.210328  2 O  py                10     -0.191535  1 C  s          
     7      0.184611  1 C  px                26     -0.168605  2 O  px         
     8      0.166093  1 C  py                30     -0.133024  2 O  px         
     3      0.131794  1 C  px                12      0.127073  1 C  py         

 Vector    8  Occ=1.000000D+00  E=-1.782017D-01
              MO Center=  1.0D+01,  2.0D+01,  3.0D+01, r^2= 1.6D+00
   Bfn.  Coefficient  Atom+Function         Bfn.  Coefficient  Atom+Function  
  ----- ------------  ---------------      ----- ------------  ---------------
    10      0.527123  1 C  s                 31      0.339921  2 O  py         
    27      0.285309  2 O  py                40     -0.285688  3 H  s          
     8     -0.254269  1 C  py                12     -0.226215  1 C  py         
    41     -0.225922  3 H  s                 23      0.204062  2 O  py         
     6      0.189928  1 C  s                  4     -0.166073  1 C  py         

 Vector    9  Occ=0.000000D+00  E=-9.293039D-02
              MO Center=  1.0D+01,  2.0D+01,  3.0D+01, r^2= 1.4D+00
   Bfn.  Coefficient  Atom+Function         Bfn.  Coefficient  Atom+Function  
  ----- ------------  ---------------      ----- ------------  ---------------
    13      0.538290  1 C  pz                32     -0.422354  2 O  pz         
     9      0.388750  1 C  pz                28     -0.284515  2 O  pz         
     5      0.243035  1 C  pz                24     -0.207749  2 O  pz         
    16     -0.047660  1 C  dxz               44      0.031888  3 H  pz         

 Vector   10  Occ=0.000000D+00  E= 4.479858D-02
              MO Center=  9.2D+00,  2.1D+01,  3.0D+01, r^2= 2.7D+00
   Bfn.  Coefficient  Atom+Function         Bfn.  Coefficient  Atom+Function  
  ----- ------------  ---------------      ----- ------------  ---------------
    41      1.835709  3 H  s                 10     -1.207323  1 C  s          
    12     -0.669559  1 C  py                11      0.289013  1 C  px         
     8     -0.205321  1 C  py                31      0.203331  2 O  py         
     6     -0.193931  1 C  s                  4     -0.152682  1 C  py         
    27      0.073627  2 O  py                 2      0.072935  1 C  s          

 Vector   11  Occ=0.000000D+00  E= 1.648228D-01
              MO Center=  1.0D+01,  2.0D+01,  3.0D+01, r^2= 2.8D+00
   Bfn.  Coefficient  Atom+Function         Bfn.  Coefficient  Atom+Function  
  ----- ------------  ---------------      ----- ------------  ---------------
    29     -1.812970  2 O  s                 10      1.667323  1 C  s          
    11      1.632299  1 C  px                30      0.653291  2 O  px         
    41      0.232457  3 H  s                 25     -0.218955  2 O  s          
    40     -0.201600  3 H  s                  7      0.121874  1 C  px         
    26      0.092513  2 O  px                21      0.087596  2 O  s          

 Vector   12  Occ=0.000000D+00  E= 3.118245D-01
              MO Center=  9.5D+00,  2.0D+01,  3.0D+01, r^2= 2.1D+00
   Bfn.  Coefficient  Atom+Function         Bfn.  Coefficient  Atom+Function  
  ----- ------------  ---------------      ----- ------------  ---------------
    40      1.614278  3 H  s                 11      0.754285  1 C  px         
    41     -0.616340  3 H  s                 10     -0.604026  1 C  s          
    12     -0.553533  1 C  py                 8     -0.444094  1 C  py         
    29     -0.273982  2 O  s                 31      0.221733  2 O  py         
     4     -0.161388  1 C  py                39      0.146356  3 H  s          

 Vector   13  Occ=0.000000D+00  E= 3.498441D-01
              MO Center=  9.9D+00,  1.9D+01,  3.0D+01, r^2= 2.2D+00
   Bfn.  Coefficient  Atom+Function         Bfn.  Coefficient  Atom+Function  
  ----- ------------  ---------------      ----- ------------  ---------------
    12      1.367747  1 C  py                 8     -0.618052  1 C  py         
    40     -0.538875  3 H  s                  6      0.510049  1 C  s          
    10     -0.471669  1 C  s                  7     -0.250347  1 C  px         
     4     -0.175911  1 C  py                31     -0.157758  2 O  py         
    29      0.154802  2 O  s                 19      0.097083  1 C  dzz        

 Vector   14  Occ=0.000000D+00  E= 3.532675D-01
              MO Center=  1.0D+01,  2.0D+01,  3.0D+01, r^2= 2.5D+00
   Bfn.  Coefficient  Atom+Function         Bfn.  Coefficient  Atom+Function  
  ----- ------------  ---------------      ----- ------------  ---------------
    13      1.214223  1 C  pz                 9     -0.841640  1 C  pz         
     5     -0.245396  1 C  pz                32     -0.071206  2 O  pz         
    16     -0.062296  1 C  dxz               28     -0.038019  2 O  pz         
    35      0.037653  2 O  dxz        

 Vector   15  Occ=0.000000D+00  E= 5.143379D-01
              MO Center=  9.5D+00,  2.1D+01,  3.0D+01, r^2= 2.6D+00
   Bfn.  Coefficient  Atom+Function         Bfn.  Coefficient  Atom+Function  
  ----- ------------  ---------------      ----- ------------  ---------------
    10      3.214523  1 C  s                 41     -1.982835  3 H  s          
    12      1.354681  1 C  py                 6     -1.330759  1 C  s          
    11     -0.752173  1 C  px                 8     -0.404912  1 C  py         
     7      0.245652  1 C  px                19     -0.222877  1 C  dzz        
    17     -0.214312  1 C  dyy               29     -0.202546  2 O  s          

 Vector   16  Occ=0.000000D+00  E= 5.570500D-01
              MO Center=  1.1D+01,  2.0D+01,  3.0D+01, r^2= 1.5D+00
   Bfn.  Coefficient  Atom+Function         Bfn.  Coefficient  Atom+Function  
  ----- ------------  ---------------      ----- ------------  ---------------
     7      1.009296  1 C  px                30      0.943114  2 O  px         
    11     -0.763262  1 C  px                 6      0.737673  1 C  s          
    41     -0.389078  3 H  s                  3      0.316045  1 C  px         
    10      0.280990  1 C  s                 29     -0.253452  2 O  s          
    12      0.242132  1 C  py                25     -0.229486  2 O  s          

 Vector   17  Occ=0.000000D+00  E= 6.666196D-01
              MO Center=  1.2D+01,  2.0D+01,  3.0D+01, r^2= 1.4D+00
   Bfn.  Coefficient  Atom+Function         Bfn.  Coefficient  Atom+Function  
  ----- ------------  ---------------      ----- ------------  ---------------
    30      1.537842  2 O  px                10      0.733916  1 C  s          
    29     -0.679035  2 O  s                 26     -0.628117  2 O  px         
    11      0.399433  1 C  px                14      0.319459  1 C  dxx        
     6      0.312357  1 C  s                 22     -0.256617  2 O  px         
    25     -0.176660  2 O  s                  7      0.132170  1 C  px         

 Vector   18  Occ=0.000000D+00  E= 7.540635D-01
              MO Center=  1.1D+01,  2.0D+01,  3.0D+01, r^2= 1.7D+00
   Bfn.  Coefficient  Atom+Function         Bfn.  Coefficient  Atom+Function  
  ----- ------------  ---------------      ----- ------------  ---------------
    32      1.387440  2 O  pz                28     -0.782395  2 O  pz         
    13     -0.535503  1 C  pz                24     -0.257318  2 O  pz         
    44     -0.085590  3 H  pz                16     -0.083486  1 C  dxz        
     5      0.063718  1 C  pz                18     -0.042148  1 C  dyz        
    35      0.036681  2 O  dxz        

 Vector   19  Occ=0.000000D+00  E= 7.843192D-01
              MO Center=  1.1D+01,  2.0D+01,  3.0D+01, r^2= 1.9D+00
   Bfn.  Coefficient  Atom+Function         Bfn.  Coefficient  Atom+Function  
  ----- ------------  ---------------      ----- ------------  ---------------
    31      1.536914  2 O  py                12     -1.093746  1 C  py         
    10     -0.834638  1 C  s                 27     -0.750709  2 O  py         
    41      0.466622  3 H  s                 40      0.366423  3 H  s          
    11      0.259820  1 C  px                23     -0.236130  2 O  py         
     6      0.194123  1 C  s                 15     -0.164374  1 C  dxy        

 Vector   20  Occ=0.000000D+00  E= 1.014915D+00
              MO Center=  9.8D+00,  2.0D+01,  3.0D+01, r^2= 1.1D+00
   Bfn.  Coefficient  Atom+Function         Bfn.  Coefficient  Atom+Function  
  ----- ------------  ---------------      ----- ------------  ---------------
    18      1.113372  1 C  dyz               44      0.554728  3 H  pz         
    16     -0.324419  1 C  dxz               13     -0.299389  1 C  pz         
    32      0.299065  2 O  pz                37      0.075989  2 O  dyz        
    35      0.054011  2 O  dxz               28     -0.053063  2 O  pz         
     9     -0.026181  1 C  pz         

 Vector   21  Occ=0.000000D+00  E= 1.095885D+00
              MO Center=  1.0D+01,  2.0D+01,  3.0D+01, r^2= 1.7D+00
   Bfn.  Coefficient  Atom+Function         Bfn.  Coefficient  Atom+Function  
  ----- ------------  ---------------      ----- ------------  ---------------
    29      3.007867  2 O  s                 10     -1.770059  1 C  s          
    30     -1.168222  2 O  px                25     -1.082068  2 O  s          
    11     -0.714659  1 C  px                15     -0.571598  1 C  dxy        
     7     -0.383178  1 C  px                42     -0.379195  3 H  px         
    19      0.297612  1 C  dzz               31      0.294580  2 O  py         

 Vector   22  Occ=0.000000D+00  E= 1.155063D+00
              MO Center=  1.0D+01,  2.0D+01,  3.0D+01, r^2= 1.8D+00
   Bfn.  Coefficient  Atom+Function         Bfn.  Coefficient  Atom+Function  
  ----- ------------  ---------------      ----- ------------  ---------------
    29      3.507650  2 O  s                 10     -1.613121  1 C  s          
    11     -1.332416  1 C  px                30     -1.066149  2 O  px         
    25     -1.058489  2 O  s                 15      0.606189  1 C  dxy        
    17      0.493987  1 C  dyy                7     -0.457927  1 C  px         
    19     -0.387842  1 C  dzz                6     -0.335431  1 C  s          

 Vector   23  Occ=0.000000D+00  E= 1.280056D+00
              MO Center=  1.0D+01,  2.0D+01,  3.0D+01, r^2= 1.0D+00
   Bfn.  Coefficient  Atom+Function         Bfn.  Coefficient  Atom+Function  
  ----- ------------  ---------------      ----- ------------  ---------------
    16      1.564426  1 C  dxz               18      0.748803  1 C  dyz        
    32     -0.363500  2 O  pz                13      0.296342  1 C  pz         
    35     -0.217794  2 O  dxz               44     -0.157717  3 H  pz         
    28     -0.107836  2 O  pz                37      0.070477  2 O  dyz        
    24     -0.065242  2 O  pz         

 Vector   24  Occ=0.000000D+00  E= 1.378960D+00
              MO Center=  9.9D+00,  2.0D+01,  3.0D+01, r^2= 1.4D+00
   Bfn.  Coefficient  Atom+Function         Bfn.  Coefficient  Atom+Function  
  ----- ------------  ---------------      ----- ------------  ---------------
    40      1.395123  3 H  s                 15      1.198449  1 C  dxy        
    10     -0.832072  1 C  s                 12     -0.590909  1 C  py         
    19      0.556044  1 C  dzz               17     -0.473344  1 C  dyy        
    29      0.392318  2 O  s                 39     -0.328569  3 H  s          
    11      0.225129  1 C  px                41     -0.225520  3 H  s          

 Vector   25  Occ=0.000000D+00  E= 1.519194D+00
              MO Center=  9.9D+00,  2.0D+01,  3.0D+01, r^2= 1.4D+00
   Bfn.  Coefficient  Atom+Function         Bfn.  Coefficient  Atom+Function  
  ----- ------------  ---------------      ----- ------------  ---------------
    29      1.517518  2 O  s                 10     -1.142186  1 C  s          
    11     -0.867610  1 C  px                19      0.710277  1 C  dzz        
    15     -0.705062  1 C  dxy               42      0.600705  3 H  px         
    14     -0.478308  1 C  dxx               43      0.419301  3 H  py         
    26     -0.355034  2 O  px                12     -0.263566  1 C  py         

 Vector   26  Occ=0.000000D+00  E= 1.685079D+00
              MO Center=  9.7D+00,  2.0D+01,  3.0D+01, r^2= 1.2D+00
   Bfn.  Coefficient  Atom+Function         Bfn.  Coefficient  Atom+Function  
  ----- ------------  ---------------      ----- ------------  ---------------
    18      1.198655  1 C  dyz               44     -0.954965  3 H  pz         
    16     -0.809039  1 C  dxz               13      0.246822  1 C  pz         
    37      0.200929  2 O  dyz               35      0.140078  2 O  dxz        
     5      0.124025  1 C  pz                28      0.108969  2 O  pz         
    32     -0.073566  2 O  pz                24      0.053982  2 O  pz         

 Vector   27  Occ=0.000000D+00  E= 1.956234D+00
              MO Center=  9.9D+00,  2.0D+01,  3.0D+01, r^2= 1.2D+00
   Bfn.  Coefficient  Atom+Function         Bfn.  Coefficient  Atom+Function  
  ----- ------------  ---------------      ----- ------------  ---------------
    14      0.965494  1 C  dxx               17     -0.918741  1 C  dyy        
    25     -0.633339  2 O  s                 42      0.540918  3 H  px         
    19     -0.535114  1 C  dzz               26      0.526926  2 O  px         
    30     -0.441581  2 O  px                29      0.421577  2 O  s          
    43      0.408289  3 H  py                15     -0.326492  1 C  dxy        

 Vector   28  Occ=0.000000D+00  E= 2.107607D+00
              MO Center=  9.7D+00,  2.1D+01,  3.0D+01, r^2= 1.3D+00
   Bfn.  Coefficient  Atom+Function         Bfn.  Coefficient  Atom+Function  
  ----- ------------  ---------------      ----- ------------  ---------------
    40      1.607118  3 H  s                 39     -1.248170  3 H  s          
    41     -0.914466  3 H  s                 10      0.619560  1 C  s          
     8     -0.601953  1 C  py                 4      0.525577  1 C  py         
     7      0.452461  1 C  px                15     -0.408998  1 C  dxy        
    34      0.327453  2 O  dxy               19     -0.281223  1 C  dzz        

 Vector   29  Occ=0.000000D+00  E= 2.324278D+00
              MO Center=  9.6D+00,  2.1D+01,  3.0D+01, r^2= 1.2D+00
   Bfn.  Coefficient  Atom+Function         Bfn.  Coefficient  Atom+Function  
  ----- ------------  ---------------      ----- ------------  ---------------
    40      2.687040  3 H  s                 43     -1.352065  3 H  py         
    10     -1.105609  1 C  s                 15      1.071219  1 C  dxy        
    42      0.917365  3 H  px                12     -0.860331  1 C  py         
    39     -0.670485  3 H  s                  7      0.655055  1 C  px         
     6     -0.631090  1 C  s                 17     -0.583430  1 C  dyy        

 Vector   30  Occ=0.000000D+00  E= 2.455509D+00
              MO Center=  1.0D+01,  2.0D+01,  3.0D+01, r^2= 8.3D-01
   Bfn.  Coefficient  Atom+Function         Bfn.  Coefficient  Atom+Function  
  ----- ------------  ---------------      ----- ------------  ---------------
     9      1.390925  1 C  pz                 5     -1.261296  1 C  pz         
    13     -0.573547  1 C  pz                35     -0.321495  2 O  dxz        
    16     -0.288338  1 C  dxz               44     -0.171403  3 H  pz         
    37      0.123151  2 O  dyz               18      0.107042  1 C  dyz        
    32      0.102094  2 O  pz                28     -0.049940  2 O  pz         

 Vector   31  Occ=0.000000D+00  E= 2.501133D+00
              MO Center=  9.8D+00,  2.0D+01,  3.0D+01, r^2= 8.7D-01
   Bfn.  Coefficient  Atom+Function         Bfn.  Coefficient  Atom+Function  
  ----- ------------  ---------------      ----- ------------  ---------------
     6      1.299135  1 C  s                 10      1.185727  1 C  s          
     8      1.101033  1 C  py                19     -0.898130  1 C  dzz        
     4     -0.806805  1 C  py                14     -0.728198  1 C  dxx        
    17     -0.615554  1 C  dyy                3     -0.560578  1 C  px         
     7      0.543207  1 C  px                15     -0.479785  1 C  dxy        

 Vector   32  Occ=0.000000D+00  E= 2.699740D+00
              MO Center=  1.1D+01,  2.0D+01,  3.0D+01, r^2= 7.8D-01
   Bfn.  Coefficient  Atom+Function         Bfn.  Coefficient  Atom+Function  
  ----- ------------  ---------------      ----- ------------  ---------------
    36     -0.805445  2 O  dyy               38      0.794882  2 O  dzz        
    10      0.744975  1 C  s                 19     -0.601674  1 C  dzz        
     6      0.589528  1 C  s                 14     -0.504452  1 C  dxx        
    12      0.334467  1 C  py                41     -0.277387  3 H  s          
     8     -0.246070  1 C  py                 7      0.241144  1 C  px         

 Vector   33  Occ=0.000000D+00  E= 2.711566D+00
              MO Center=  1.1D+01,  2.0D+01,  3.0D+01, r^2= 4.9D-01
   Bfn.  Coefficient  Atom+Function         Bfn.  Coefficient  Atom+Function  
  ----- ------------  ---------------      ----- ------------  ---------------
    37      1.722071  2 O  dyz               18     -0.419198  1 C  dyz        
    44      0.144391  3 H  pz                 9     -0.107259  1 C  pz         
     5      0.082186  1 C  pz                16      0.072836  1 C  dxz        

 Vector   34  Occ=0.000000D+00  E= 2.995537D+00
              MO Center=  1.0D+01,  2.0D+01,  3.0D+01, r^2= 8.3D-01
   Bfn.  Coefficient  Atom+Function         Bfn.  Coefficient  Atom+Function  
  ----- ------------  ---------------      ----- ------------  ---------------
    14      2.097522  1 C  dxx                7      1.507438  1 C  px         
     6     -1.219857  1 C  s                 17      1.188471  1 C  dyy        
    29     -1.170560  2 O  s                  3     -0.816462  1 C  px         
    19      0.775497  1 C  dzz                8      0.756814  1 C  py         
    26      0.740525  2 O  px                30      0.668055  2 O  px         

 Vector   35  Occ=0.000000D+00  E= 3.192463D+00
              MO Center=  1.1D+01,  2.0D+01,  3.0D+01, r^2= 6.9D-01
   Bfn.  Coefficient  Atom+Function         Bfn.  Coefficient  Atom+Function  
  ----- ------------  ---------------      ----- ------------  ---------------
    35      1.857544  2 O  dxz               16      0.986468  1 C  dxz        
     9      0.608981  1 C  pz                32     -0.338211  2 O  pz         
     5     -0.327140  1 C  pz                24     -0.064094  2 O  pz         
    13     -0.041411  1 C  pz                44      0.034903  3 H  pz         
    18     -0.028059  1 C  dyz        

 Vector   36  Occ=0.000000D+00  E= 3.243320D+00
              MO Center=  1.1D+01,  2.0D+01,  3.0D+01, r^2= 1.0D+00
   Bfn.  Coefficient  Atom+Function         Bfn.  Coefficient  Atom+Function  
  ----- ------------  ---------------      ----- ------------  ---------------
    34      1.584738  2 O  dxy                8      1.327297  1 C  py         
    40     -0.814851  3 H  s                  7     -0.654874  1 C  px         
    17      0.607258  1 C  dyy                4     -0.583976  1 C  py         
    42     -0.514346  3 H  px                43      0.388059  3 H  py         
    29     -0.375790  2 O  s                  3      0.352853  1 C  px         

 Vector   37  Occ=0.000000D+00  E= 3.366460D+00
              MO Center=  1.0D+01,  2.0D+01,  3.0D+01, r^2= 1.3D+00
   Bfn.  Coefficient  Atom+Function         Bfn.  Coefficient  Atom+Function  
  ----- ------------  ---------------      ----- ------------  ---------------
    15      1.609507  1 C  dxy                8     -1.063994  1 C  py         
    40      0.962823  3 H  s                 17     -0.935604  1 C  dyy        
    43     -0.937388  3 H  py                29      0.914676  2 O  s          
    34      0.915976  2 O  dxy                7      0.773382  1 C  px         
    14     -0.680840  1 C  dxx               33      0.599355  2 O  dxx        

 Vector   38  Occ=0.000000D+00  E= 3.594708D+00
              MO Center=  1.1D+01,  2.0D+01,  3.0D+01, r^2= 1.2D+00
   Bfn.  Coefficient  Atom+Function         Bfn.  Coefficient  Atom+Function  
  ----- ------------  ---------------      ----- ------------  ---------------
     7      2.463581  1 C  px                29     -2.217388  2 O  s          
    30      1.343588  2 O  px                10      1.178290  1 C  s          
    33     -1.050547  2 O  dxx               15      0.962333  1 C  dxy        
     8     -0.950808  1 C  py                14      0.906069  1 C  dxx        
    17     -0.759834  1 C  dyy               40      0.761504  3 H  s          

 Vector   39  Occ=0.000000D+00  E= 4.661687D+00
              MO Center=  1.1D+01,  2.0D+01,  3.0D+01, r^2= 4.8D-01
   Bfn.  Coefficient  Atom+Function         Bfn.  Coefficient  Atom+Function  
  ----- ------------  ---------------      ----- ------------  ---------------
    28      1.467540  2 O  pz                24     -1.264155  2 O  pz         
    32     -0.618337  2 O  pz                16     -0.256926  1 C  dxz        
    13      0.211779  1 C  pz                 9     -0.161898  1 C  pz         
    35     -0.125762  2 O  dxz                5      0.073381  1 C  pz         
    44     -0.044694  3 H  pz                18      0.030436  1 C  dyz        

 Vector   40  Occ=0.000000D+00  E= 4.709961D+00
              MO Center=  1.1D+01,  2.0D+01,  3.0D+01, r^2= 5.1D-01
   Bfn.  Coefficient  Atom+Function         Bfn.  Coefficient  Atom+Function  
  ----- ------------  ---------------      ----- ------------  ---------------
    27      1.502714  2 O  py                23     -1.262105  2 O  py         
    31     -0.681444  2 O  py                15     -0.477156  1 C  dxy        
    12      0.394336  1 C  py                40     -0.341001  3 H  s          
    10      0.282298  1 C  s                 34     -0.181660  2 O  dxy        
    43      0.152106  3 H  py                11     -0.126983  1 C  px         

 Vector   41  Occ=0.000000D+00  E= 5.224426D+00
              MO Center=  1.1D+01,  2.0D+01,  3.0D+01, r^2= 5.5D-01
   Bfn.  Coefficient  Atom+Function         Bfn.  Coefficient  Atom+Function  
  ----- ------------  ---------------      ----- ------------  ---------------
    29      2.042425  2 O  s                 26     -1.821276  2 O  px         
     7     -1.286774  1 C  px                25      1.218895  2 O  s          
    22      1.108924  2 O  px                14     -0.914937  1 C  dxx        
    36     -0.869711  2 O  dyy               38     -0.856836  2 O  dzz        
    10     -0.784114  1 C  s                 11     -0.430935  1 C  px         

 Vector   42  Occ=0.000000D+00  E= 6.235870D+00
              MO Center=  1.1D+01,  2.0D+01,  3.0D+01, r^2= 5.0D-01
   Bfn.  Coefficient  Atom+Function         Bfn.  Coefficient  Atom+Function  
  ----- ------------  ---------------      ----- ------------  ---------------
    25      2.100217  2 O  s                 33     -1.908426  2 O  dxx        
    26      1.409840  2 O  px                38     -1.325000  2 O  dzz        
    36     -1.298753  2 O  dyy                7      1.219798  1 C  px         
    14      0.966091  1 C  dxx               29      0.755973  2 O  s          
    22     -0.625004  2 O  px                21     -0.610262  2 O  s          

 Vector   43  Occ=0.000000D+00  E= 2.590514D+01
              MO Center=  1.0D+01,  2.0D+01,  3.0D+01, r^2= 1.4D-01
   Bfn.  Coefficient  Atom+Function         Bfn.  Coefficient  Atom+Function  
  ----- ------------  ---------------      ----- ------------  ---------------
     2      2.556167  1 C  s                  1     -2.107234  1 C  s          
     6     -1.130301  1 C  s                 17      0.645163  1 C  dyy        
    14      0.627720  1 C  dxx               19      0.577433  1 C  dzz        
    10     -0.386685  1 C  s                 41      0.187212  3 H  s          
    40     -0.136192  3 H  s                  8      0.122948  1 C  py         

 Vector   44  Occ=0.000000D+00  E= 5.451446D+01
              MO Center=  1.1D+01,  2.0D+01,  3.0D+01, r^2= 6.6D-02
   Bfn.  Coefficient  Atom+Function         Bfn.  Coefficient  Atom+Function  
  ----- ------------  ---------------      ----- ------------  ---------------
    21      2.716115  2 O  s                 20     -2.320035  2 O  s          
    25     -1.094931  2 O  s                 33      0.612537  2 O  dxx        
    36      0.561636  2 O  dyy               38      0.564228  2 O  dzz        
    29     -0.424126  2 O  s                 10      0.191793  1 C  s          
    26     -0.132563  2 O  px                 7     -0.127476  1 C  px         


                     DFT Final Beta Molecular Orbital Analysis
                     -----------------------------------------

 Vector    1  Occ=1.000000D+00  E=-1.883664D+01
              MO Center=  1.1D+01,  2.0D+01,  3.0D+01, r^2= 1.5D-02
   Bfn.  Coefficient  Atom+Function         Bfn.  Coefficient  Atom+Function  
  ----- ------------  ---------------      ----- ------------  ---------------
    20      0.556003  2 O  s                 21      0.461881  2 O  s          

 Vector    2  Occ=1.000000D+00  E=-9.995733D+00
              MO Center=  1.0D+01,  2.0D+01,  3.0D+01, r^2= 2.8D-02
   Bfn.  Coefficient  Atom+Function         Bfn.  Coefficient  Atom+Function  
  ----- ------------  ---------------      ----- ------------  ---------------
     1      0.566394  1 C  s                  2      0.456276  1 C  s          

 Vector    3  Occ=1.000000D+00  E=-1.012762D+00
              MO Center=  1.1D+01,  2.0D+01,  3.0D+01, r^2= 4.5D-01
   Bfn.  Coefficient  Atom+Function         Bfn.  Coefficient  Atom+Function  
  ----- ------------  ---------------      ----- ------------  ---------------
    25      0.506989  2 O  s                 29      0.332389  2 O  s          
     6      0.247841  1 C  s                 21     -0.173968  2 O  s          
     7      0.120730  1 C  px                26     -0.117629  2 O  px         
    20     -0.110524  2 O  s                  3      0.099382  1 C  px         
     2     -0.095278  1 C  s                 22     -0.083538  2 O  px         

 Vector    4  Occ=1.000000D+00  E=-5.376153D-01
              MO Center=  1.0D+01,  2.0D+01,  3.0D+01, r^2= 1.3D+00
   Bfn.  Coefficient  Atom+Function         Bfn.  Coefficient  Atom+Function  
  ----- ------------  ---------------      ----- ------------  ---------------
     6      0.391103  1 C  s                 29     -0.282538  2 O  s          
    10      0.270738  1 C  s                 25     -0.253136  2 O  s          
    40      0.182465  3 H  s                 39      0.139471  3 H  s          
     2     -0.135343  1 C  s                 26     -0.127254  2 O  px         
     8      0.124324  1 C  py                22     -0.093666  2 O  px         

 Vector    5  Occ=1.000000D+00  E=-4.299968D-01
              MO Center=  1.1D+01,  2.0D+01,  3.0D+01, r^2= 1.2D+00
   Bfn.  Coefficient  Atom+Function         Bfn.  Coefficient  Atom+Function  
  ----- ------------  ---------------      ----- ------------  ---------------
    26      0.305430  2 O  px                29      0.278300  2 O  s          
    30      0.230898  2 O  px                22      0.223363  2 O  px         
    25      0.197657  2 O  s                  7     -0.195910  1 C  px         
     3     -0.144422  1 C  px                 8      0.135656  1 C  py         
    40      0.131291  3 H  s                 27      0.114423  2 O  py         

 Vector    6  Occ=1.000000D+00  E=-3.891100D-01
              MO Center=  1.1D+01,  2.0D+01,  3.0D+01, r^2= 8.8D-01
   Bfn.  Coefficient  Atom+Function         Bfn.  Coefficient  Atom+Function  
  ----- ------------  ---------------      ----- ------------  ---------------
    28      0.366475  2 O  pz                32      0.303710  2 O  pz         
    24      0.252618  2 O  pz                 9      0.230873  1 C  pz         
    13      0.158092  1 C  pz                 5      0.153926  1 C  pz         
    16      0.078300  1 C  dxz               35     -0.041118  2 O  dxz        

 Vector    7  Occ=1.000000D+00  E=-3.500565D-01
              MO Center=  1.1D+01,  2.0D+01,  3.0D+01, r^2= 1.1D+00
   Bfn.  Coefficient  Atom+Function         Bfn.  Coefficient  Atom+Function  
  ----- ------------  ---------------      ----- ------------  ---------------
    27      0.329928  2 O  py                31      0.291919  2 O  py         
    23      0.230596  2 O  py                10     -0.193762  1 C  s          
     8      0.151484  1 C  py                 7      0.142768  1 C  px         
     6     -0.136259  1 C  s                 12      0.130170  1 C  py         
    26     -0.119109  2 O  px                 4      0.109462  1 C  py         

 Vector    8  Occ=0.000000D+00  E=-1.170763D-01
              MO Center=  1.0D+01,  2.0D+01,  3.0D+01, r^2= 1.6D+00
   Bfn.  Coefficient  Atom+Function         Bfn.  Coefficient  Atom+Function  
  ----- ------------  ---------------      ----- ------------  ---------------
    10      0.617519  1 C  s                 31      0.335292  2 O  py         
    40     -0.290593  3 H  s                 27      0.261807  2 O  py         
    41     -0.259384  3 H  s                 12     -0.248347  1 C  py         
     8     -0.238781  1 C  py                 6      0.185402  1 C  s          
    23      0.186242  2 O  py                11     -0.170660  1 C  px         

 Vector    9  Occ=0.000000D+00  E=-7.649895D-02
              MO Center=  1.0D+01,  2.0D+01,  3.0D+01, r^2= 1.4D+00
   Bfn.  Coefficient  Atom+Function         Bfn.  Coefficient  Atom+Function  
  ----- ------------  ---------------      ----- ------------  ---------------
    13      0.551321  1 C  pz                32     -0.421259  2 O  pz         
     9      0.385090  1 C  pz                28     -0.280327  2 O  pz         
     5      0.244323  1 C  pz                24     -0.204318  2 O  pz         
    18      0.036256  1 C  dyz               16     -0.034538  1 C  dxz        
    44      0.031606  3 H  pz         

 Vector   10  Occ=0.000000D+00  E= 6.155928D-02
              MO Center=  9.2D+00,  2.1D+01,  3.0D+01, r^2= 2.7D+00
   Bfn.  Coefficient  Atom+Function         Bfn.  Coefficient  Atom+Function  
  ----- ------------  ---------------      ----- ------------  ---------------
    41      1.858475  3 H  s                 10     -1.177545  1 C  s          
    12     -0.650718  1 C  py                11      0.263133  1 C  px         
    31      0.200648  2 O  py                 6     -0.194625  1 C  s          
     8     -0.194602  1 C  py                 4     -0.149135  1 C  py         
    30     -0.074344  2 O  px                27      0.072414  2 O  py         

 Vector   11  Occ=0.000000D+00  E= 1.737364D-01
              MO Center=  1.0D+01,  2.0D+01,  3.0D+01, r^2= 2.8D+00
   Bfn.  Coefficient  Atom+Function         Bfn.  Coefficient  Atom+Function  
  ----- ------------  ---------------      ----- ------------  ---------------
    29     -1.815170  2 O  s                 10      1.698737  1 C  s          
    11      1.630300  1 C  px                30      0.647426  2 O  px         
    40     -0.230403  3 H  s                 41      0.230332  3 H  s          
    25     -0.218986  2 O  s                  7      0.112167  1 C  px         
    21      0.087353  2 O  s                 26      0.087781  2 O  px         

 Vector   12  Occ=0.000000D+00  E= 3.394721D-01
              MO Center=  9.6D+00,  2.0D+01,  3.0D+01, r^2= 2.3D+00
   Bfn.  Coefficient  Atom+Function         Bfn.  Coefficient  Atom+Function  
  ----- ------------  ---------------      ----- ------------  ---------------
    40      1.711605  3 H  s                 12     -0.877750  1 C  py         
    11      0.815593  1 C  px                10     -0.586168  1 C  s          
    41     -0.485407  3 H  s                 29     -0.321932  2 O  s          
     8     -0.314548  1 C  py                31      0.269447  2 O  py         
    27      0.159770  2 O  py                39      0.143590  3 H  s          

 Vector   13  Occ=0.000000D+00  E= 3.643878D-01
              MO Center=  1.0D+01,  2.0D+01,  3.0D+01, r^2= 2.4D+00
   Bfn.  Coefficient  Atom+Function         Bfn.  Coefficient  Atom+Function  
  ----- ------------  ---------------      ----- ------------  ---------------
    13      1.205720  1 C  pz                 9     -0.845858  1 C  pz         
     5     -0.245517  1 C  pz                16     -0.072602  1 C  dxz        
    32     -0.056585  2 O  pz                28     -0.043333  2 O  pz         
    35      0.038778  2 O  dxz        

 Vector   14  Occ=0.000000D+00  E= 3.877899D-01
              MO Center=  9.9D+00,  1.9D+01,  3.0D+01, r^2= 2.0D+00
   Bfn.  Coefficient  Atom+Function         Bfn.  Coefficient  Atom+Function  
  ----- ------------  ---------------      ----- ------------  ---------------
    12      1.286450  1 C  py                 8     -0.730912  1 C  py         
     6      0.468054  1 C  s                 10     -0.373347  1 C  s          
    41     -0.241485  3 H  s                 40     -0.222113  3 H  s          
     4     -0.211997  1 C  py                 7     -0.204475  1 C  px         
    15     -0.093799  1 C  dxy               19      0.093736  1 C  dzz        

 Vector   15  Occ=0.000000D+00  E= 5.277321D-01
              MO Center=  9.5D+00,  2.1D+01,  3.0D+01, r^2= 2.6D+00
   Bfn.  Coefficient  Atom+Function         Bfn.  Coefficient  Atom+Function  
  ----- ------------  ---------------      ----- ------------  ---------------
    10      3.196486  1 C  s                 41     -1.967804  3 H  s          
     6     -1.401000  1 C  s                 12      1.267517  1 C  py         
    11     -0.718745  1 C  px                 8     -0.366637  1 C  py         
    19     -0.240972  1 C  dzz               17     -0.226562  1 C  dyy        
     7      0.209222  1 C  px                14     -0.205601  1 C  dxx        

 Vector   16  Occ=0.000000D+00  E= 5.694021D-01
              MO Center=  1.1D+01,  2.0D+01,  3.0D+01, r^2= 1.6D+00
   Bfn.  Coefficient  Atom+Function         Bfn.  Coefficient  Atom+Function  
  ----- ------------  ---------------      ----- ------------  ---------------
     7      1.045138  1 C  px                30      1.034804  2 O  px         
    11     -0.735118  1 C  px                 6      0.672952  1 C  s          
    10      0.503692  1 C  s                 41     -0.488393  3 H  s          
    29     -0.357302  2 O  s                  3      0.315706  1 C  px         
    12      0.259919  1 C  py                25     -0.233585  2 O  s          

 Vector   17  Occ=0.000000D+00  E= 6.747994D-01
              MO Center=  1.1D+01,  2.0D+01,  3.0D+01, r^2= 1.5D+00
   Bfn.  Coefficient  Atom+Function         Bfn.  Coefficient  Atom+Function  
  ----- ------------  ---------------      ----- ------------  ---------------
    30      1.497821  2 O  px                10      0.752139  1 C  s          
    29     -0.671683  2 O  s                 26     -0.642438  2 O  px         
    11      0.411145  1 C  px                14      0.313518  1 C  dxx        
     6      0.273221  1 C  s                 22     -0.264122  2 O  px         
    25     -0.157214  2 O  s                 40     -0.112725  3 H  s          

 Vector   18  Occ=0.000000D+00  E= 7.585044D-01
              MO Center=  1.1D+01,  2.0D+01,  3.0D+01, r^2= 1.7D+00
   Bfn.  Coefficient  Atom+Function         Bfn.  Coefficient  Atom+Function  
  ----- ------------  ---------------      ----- ------------  ---------------
    32      1.389686  2 O  pz                28     -0.784337  2 O  pz         
    13     -0.549108  1 C  pz                24     -0.257536  2 O  pz         
    16     -0.084546  1 C  dxz               44     -0.079269  3 H  pz         
     5      0.065100  1 C  pz                18     -0.038198  1 C  dyz        
    35      0.036428  2 O  dxz        

 Vector   19  Occ=0.000000D+00  E= 8.056168D-01
              MO Center=  1.1D+01,  2.0D+01,  3.0D+01, r^2= 1.9D+00
   Bfn.  Coefficient  Atom+Function         Bfn.  Coefficient  Atom+Function  
  ----- ------------  ---------------      ----- ------------  ---------------
    31      1.537222  2 O  py                12     -1.093922  1 C  py         
    10     -0.784044  1 C  s                 27     -0.760829  2 O  py         
    41      0.451939  3 H  s                 40      0.358559  3 H  s          
    11      0.255279  1 C  px                23     -0.236671  2 O  py         
    15     -0.184923  1 C  dxy                6      0.178991  1 C  s          

 Vector   20  Occ=0.000000D+00  E= 1.039797D+00
              MO Center=  9.8D+00,  2.0D+01,  3.0D+01, r^2= 1.1D+00
   Bfn.  Coefficient  Atom+Function         Bfn.  Coefficient  Atom+Function  
  ----- ------------  ---------------      ----- ------------  ---------------
    18      1.085898  1 C  dyz               44      0.550477  3 H  pz         
    16     -0.419339  1 C  dxz               32      0.310790  2 O  pz         
    13     -0.307007  1 C  pz                37      0.075179  2 O  dyz        
    35      0.065826  2 O  dxz               28     -0.040116  2 O  pz         
     5     -0.031768  1 C  pz                 9     -0.030062  1 C  pz         

 Vector   21  Occ=0.000000D+00  E= 1.118387D+00
              MO Center=  1.0D+01,  2.0D+01,  3.0D+01, r^2= 1.9D+00
   Bfn.  Coefficient  Atom+Function         Bfn.  Coefficient  Atom+Function  
  ----- ------------  ---------------      ----- ------------  ---------------
    29      3.762000  2 O  s                 10     -2.110695  1 C  s          
    30     -1.377572  2 O  px                25     -1.308539  2 O  s          
    11     -1.014970  1 C  px                 7     -0.469668  1 C  px         
    15     -0.385172  1 C  dxy               14     -0.312702  1 C  dxx        
    42     -0.306182  3 H  px                 6     -0.264190  1 C  s          

 Vector   22  Occ=0.000000D+00  E= 1.182661D+00
              MO Center=  1.0D+01,  2.0D+01,  3.0D+01, r^2= 1.6D+00
   Bfn.  Coefficient  Atom+Function         Bfn.  Coefficient  Atom+Function  
  ----- ------------  ---------------      ----- ------------  ---------------
    29      2.706449  2 O  s                 10     -1.174110  1 C  s          
    11     -1.134109  1 C  px                25     -0.771370  2 O  s          
    30     -0.758150  2 O  px                15      0.689921  1 C  dxy        
    17      0.541278  1 C  dyy               19     -0.440213  1 C  dzz        
     7     -0.355648  1 C  px                42      0.332135  3 H  px         

 Vector   23  Occ=0.000000D+00  E= 1.309008D+00
              MO Center=  1.0D+01,  2.0D+01,  3.0D+01, r^2= 9.9D-01
   Bfn.  Coefficient  Atom+Function         Bfn.  Coefficient  Atom+Function  
  ----- ------------  ---------------      ----- ------------  ---------------
    16      1.553680  1 C  dxz               18      0.786695  1 C  dyz        
    32     -0.340904  2 O  pz                13      0.273659  1 C  pz         
    35     -0.221799  2 O  dxz               44     -0.112696  3 H  pz         
    28     -0.111853  2 O  pz                37      0.077090  2 O  dyz        
    24     -0.066254  2 O  pz                 5     -0.036254  1 C  pz         

 Vector   24  Occ=0.000000D+00  E= 1.405185D+00
              MO Center=  9.9D+00,  2.0D+01,  3.0D+01, r^2= 1.4D+00
   Bfn.  Coefficient  Atom+Function         Bfn.  Coefficient  Atom+Function  
  ----- ------------  ---------------      ----- ------------  ---------------
    40      1.394439  3 H  s                 15      1.206346  1 C  dxy        
    10     -0.858141  1 C  s                 12     -0.596795  1 C  py         
    19      0.575006  1 C  dzz               17     -0.463819  1 C  dyy        
    29      0.399582  2 O  s                 39     -0.319712  3 H  s          
    27     -0.215952  2 O  py                31      0.216155  2 O  py         

 Vector   25  Occ=0.000000D+00  E= 1.544652D+00
              MO Center=  9.9D+00,  2.0D+01,  3.0D+01, r^2= 1.4D+00
   Bfn.  Coefficient  Atom+Function         Bfn.  Coefficient  Atom+Function  
  ----- ------------  ---------------      ----- ------------  ---------------
    29      1.444625  2 O  s                 10     -1.081119  1 C  s          
    11     -0.853284  1 C  px                15     -0.739881  1 C  dxy        
    19      0.715245  1 C  dzz               42      0.584082  3 H  px         
    14     -0.494707  1 C  dxx               43      0.406205  3 H  py         
    26     -0.362833  2 O  px                12     -0.238228  1 C  py         

 Vector   26  Occ=0.000000D+00  E= 1.711926D+00
              MO Center=  9.7D+00,  2.0D+01,  3.0D+01, r^2= 1.2D+00
   Bfn.  Coefficient  Atom+Function         Bfn.  Coefficient  Atom+Function  
  ----- ------------  ---------------      ----- ------------  ---------------
    18      1.198298  1 C  dyz               44     -0.963292  3 H  pz         
    16     -0.775728  1 C  dxz               13      0.252490  1 C  pz         
    37      0.203535  2 O  dyz               35      0.139538  2 O  dxz        
     5      0.124862  1 C  pz                28      0.105367  2 O  pz         
    32     -0.078438  2 O  pz                24      0.053285  2 O  pz         

 Vector   27  Occ=0.000000D+00  E= 1.991467D+00
              MO Center=  9.9D+00,  2.0D+01,  3.0D+01, r^2= 1.2D+00
   Bfn.  Coefficient  Atom+Function         Bfn.  Coefficient  Atom+Function  
  ----- ------------  ---------------      ----- ------------  ---------------
    14      0.940795  1 C  dxx               17     -0.935235  1 C  dyy        
    25     -0.627655  2 O  s                 42      0.554418  3 H  px         
    19     -0.518184  1 C  dzz               26      0.509131  2 O  px         
    29      0.449169  2 O  s                 30     -0.444898  2 O  px         
    43      0.414617  3 H  py                15     -0.319289  1 C  dxy        

 Vector   28  Occ=0.000000D+00  E= 2.140068D+00
              MO Center=  9.7D+00,  2.1D+01,  3.0D+01, r^2= 1.3D+00
   Bfn.  Coefficient  Atom+Function         Bfn.  Coefficient  Atom+Function  
  ----- ------------  ---------------      ----- ------------  ---------------
    40      1.557676  3 H  s                 39     -1.231668  3 H  s          
    41     -0.913391  3 H  s                 10      0.655018  1 C  s          
     8     -0.593905  1 C  py                 4      0.536761  1 C  py         
     7      0.460917  1 C  px                15     -0.409879  1 C  dxy        
    34      0.326036  2 O  dxy               19     -0.292552  1 C  dzz        

 Vector   29  Occ=0.000000D+00  E= 2.355946D+00
              MO Center=  9.6D+00,  2.1D+01,  3.0D+01, r^2= 1.2D+00
   Bfn.  Coefficient  Atom+Function         Bfn.  Coefficient  Atom+Function  
  ----- ------------  ---------------      ----- ------------  ---------------
    40      2.696856  3 H  s                 43     -1.349107  3 H  py         
    10     -1.129364  1 C  s                 15      1.058904  1 C  dxy        
    42      0.922339  3 H  px                12     -0.846368  1 C  py         
    39     -0.696179  3 H  s                  6     -0.674076  1 C  s          
     7      0.639345  1 C  px                 8     -0.580840  1 C  py         

 Vector   30  Occ=0.000000D+00  E= 2.469741D+00
              MO Center=  1.0D+01,  2.0D+01,  3.0D+01, r^2= 8.3D-01
   Bfn.  Coefficient  Atom+Function         Bfn.  Coefficient  Atom+Function  
  ----- ------------  ---------------      ----- ------------  ---------------
     9      1.390787  1 C  pz                 5     -1.260665  1 C  pz         
    13     -0.572134  1 C  pz                35     -0.321610  2 O  dxz        
    16     -0.300476  1 C  dxz               44     -0.175832  3 H  pz         
    37      0.116455  2 O  dyz               32      0.102721  2 O  pz         
    18      0.100158  1 C  dyz               28     -0.048933  2 O  pz         

 Vector   31  Occ=0.000000D+00  E= 2.560638D+00
              MO Center=  9.8D+00,  2.0D+01,  3.0D+01, r^2= 8.6D-01
   Bfn.  Coefficient  Atom+Function         Bfn.  Coefficient  Atom+Function  
  ----- ------------  ---------------      ----- ------------  ---------------
     6      1.264796  1 C  s                 10      1.106436  1 C  s          
     8      1.075479  1 C  py                19     -0.867056  1 C  dzz        
     4     -0.824751  1 C  py                14     -0.727532  1 C  dxx        
    17     -0.644519  1 C  dyy                3     -0.552192  1 C  px         
     7      0.547891  1 C  px                15     -0.453817  1 C  dxy        

 Vector   32  Occ=0.000000D+00  E= 2.722233D+00
              MO Center=  1.1D+01,  2.0D+01,  3.0D+01, r^2= 8.0D-01
[...]
     -0.0251      0.6448      0.0000           -13.3733    344.0592      0.0000
     -0.0000      0.0000      0.6004            -0.0000      0.0000    320.3574

 In principal axis representation: total span,skew and asymm
        span        skew       asymm               span        skew       asymm
      0.0662      0.5306      0.3989            35.3028    283.1019    212.8114

 Principal Components and Axis System
        1           2           3                 1           2           3
      0.6004      0.6160      0.6666           320.3574    328.6430    355.6603

1    -0.0000      0.7554     -0.6553
2    -0.0000      0.6553      0.7554
3     1.0000      0.0000      0.0000




                   ZORA EFG-Z4
                   -----------


int_init: setting std/high accuracies to  1.0D-32  1.0D-64
  int_init: cando_txs set to always be  F

          -----------------------
          Electric field gradient
          -----------------------

 1 a.u. = 0.324123 10**(16) esu/cm**3  ( or statvolts/cm**2 ) = 0.97174 10**(22) v/m**2 


 ------------------------------------------------------------
   Atom      X         Y         Z
 ------------------------------------------------------------
    1 C   18.89726  37.79452  56.69178
 ------------------------------------------------------------

 Electric field gradient in molecular frame (a.u.)
         XX             YY             ZZ             XY             XZ             YZ
 ------------------------------------------------------------------------------------------
        0.380945       0.225675      -0.606620       0.103056      -0.000000       0.000000

 Principal components (a.u.) and orientation 
 of principal axis w.r.t. absolute frame                      Asymmetry parameter eta
 --------------------------------------------------------------------------------------
       -0.606620       0.432336       0.174284                       0.425394

        0.000000       0.894901      -0.446264
       -0.000000       0.446264       0.894901
        1.000000       0.000000       0.000000
  

 ------------------------------------------------------------
   Atom      X         Y         Z
 ------------------------------------------------------------
    2 O   21.13351  37.79452  56.69178
 ------------------------------------------------------------

 Electric field gradient in molecular frame (a.u.)
         XX             YY             ZZ             XY             XZ             YZ
 ------------------------------------------------------------------------------------------
        0.068605       0.864305      -0.932910      -0.145737      -0.000000       0.000000

 Principal components (a.u.) and orientation 
 of principal axis w.r.t. absolute frame                      Asymmetry parameter eta
 --------------------------------------------------------------------------------------
       -0.932910       0.890158       0.042752                       0.908346

        0.000000      -0.174665       0.984628
       -0.000000       0.984628       0.174665
        1.000000       0.000000      -0.000000
  

 ------------------------------------------------------------
   Atom      X         Y         Z
 ------------------------------------------------------------
    3 H   17.70386  39.57818  56.69178
 ------------------------------------------------------------

 Electric field gradient in molecular frame (a.u.)
         XX             YY             ZZ             XY             XZ             YZ
 ------------------------------------------------------------------------------------------
        0.002458      -0.112978       0.110520       0.176986       0.000000      -0.000000

 Principal components (a.u.) and orientation 
 of principal axis w.r.t. absolute frame                      Asymmetry parameter eta
 --------------------------------------------------------------------------------------
       -0.241420       0.130899       0.110520                       0.084413

       -0.587348       0.809335       0.000000
        0.809335       0.587348       0.000000
        0.000000      -0.000000       1.000000
  

int_init: setting std/high accuracies to  1.0D-32  1.0D-64
  int_init: cando_txs set to always be  F

          --------------------------
          Z4-Electric field gradient
          --------------------------

 1 a.u. = 0.324123 10**(16) esu/cm**3  ( or statvolts/cm**2 ) = 0.97174 10**(22) v/m**2 

 nat_slc=                    1
In hnd_efgmap_z4:: atomnr(  1)=    3

 Read ZORA EFGZ4 data from ./cho_bp_props.zora_efgz4

Atom(  1,  3)=(    17.70386351,    39.57818417,    56.69177966)
====> Electronic contribution to EFG in molecular frame (a.u.)
                     XX            YY            ZZ            XY            XZ            YZ
                ----------------------------------------------------------------------------------
  ANALYT(H )=(   0.14707663,   0.48792074,  -0.63499736,  -0.83474848,   0.00000000,  -0.00000000)
  NUMERI(H )=(   0.14707663,   0.48792073,  -0.63499737,  -0.83474848,   0.00000000,  -0.00000000)
Atom(  1,  3)=(    17.70386351,    39.57818417,    56.69177966)
====> Electronic contribution to EFG in molecular frame (a.u.)
                     XX            YY            ZZ            XY            XZ            YZ
                ----------------------------------------------------------------------------------
EFG-elec(H )=(   0.14703860,   0.48782422,  -0.63486282,  -0.83456834,   0.00000000,  -0.00000000)
EFG-rhoS(H )=(   0.00004052,   0.00008968,  -0.00013020,  -0.00017468,  -0.00000000,   0.00000000)
EFG-tot (H )=(   0.14707911,   0.48791390,  -0.63499301,  -0.83474302,   0.00000000,  -0.00000000)

 ------------------------------------------------------------
   Atom      X         Y         Z
 ------------------------------------------------------------
    3 H   17.70386  39.57818  56.69178
 ------------------------------------------------------------

 Electric field gradient in molecular frame (a.u.)
         XX             YY             ZZ             XY             XZ             YZ
 ------------------------------------------------------------------------------------------
        0.002460      -0.112985       0.110525       0.176991       0.000000      -0.000000

 Principal components (a.u.) and orientation 
 of principal axis w.r.t. absolute frame                      Asymmetry parameter eta
 --------------------------------------------------------------------------------------
       -0.241429       0.130904       0.110525                       0.084411

       -0.587342       0.809339       0.000000
        0.809339       0.587342       0.000000
        0.000000      -0.000000       1.000000
  

            Scalar ZORA NMR Shielding
            -------------------------


          -----------------------------------------
          Chemical Shielding Tensors (GIAO, in ppm)
          -----------------------------------------


int_init: setting std/high accuracies to  1.0D-32  1.0D-64
  int_init: cando_txs set to always be  F

 Read ZORA NMR data from ./cho_bp_props.zora_nmrcs

 Grid integrated density:      14.999999995285
 Requested integration accuracy:   0.10E-19
                                NWChem CPHF Module
                                ------------------



int_init: setting std/high accuracies to  1.0D-32  1.0D-64
  int_init: cando_txs set to always be  F
  scftype          =     UHF 
  nalpha           =        8
  nbeta            =        7
  variables        =      547
  # of vectors     =        3
  tolerance        = 0.10D-03
  level shift      = 0.00D+00
  max iterations   =       50
  max subspace     =       30

 Grid integrated density:      14.999999995285
 Requested integration accuracy:   0.10E-19
 SCF residual:    2.2912498552949423E-005


Iterative solution of linear equations
  No. of variables      547
  No. of equations        3
  Maximum subspace       30
        Iterations       50
       Convergence  1.0D-04
        Start time     16.1


   iter   nsub   residual    time
   ----  ------  --------  ---------
     1      3    1.99D-04      16.7
     2      6    2.53D-09      17.3

 Wrote CPHF data to ./cho_bp_props.shieldcphf


int_init: setting std/high accuracies to  1.0D-32  1.0D-64
  int_init: cando_txs set to always be  F
 Calc. par tensor-> zora
      Atom:    1  C 
        Diamagnetic
    269.1258     -3.6991      0.0000
     -3.6991    253.7680     -0.0000
      0.0000     -0.0000    247.8564

        Paramagnetic
   -458.7066    110.7847      0.0042
    110.7847   -374.7242      0.0116
      0.0042      0.0116   -221.4533

        Total Shielding Tensor
   -189.5808    107.0856      0.0042
    107.0856   -120.9561      0.0116
      0.0042      0.0116     26.4032

           isotropic =     -94.7113
          anisotropy =    -259.5085

          Principal Components and Axis System
                 1           2           3
             -267.7169    -42.8200     26.4032

      1         0.8078      0.5894      0.0001
      2        -0.5894      0.8078      0.0001
      3         0.0000     -0.0002      1.0000



      Atom:    2  O 
        Diamagnetic
    412.1280     -0.0298      0.0000
     -0.0298    384.6872     -0.0000
      0.0000     -0.0000    387.2672

        Paramagnetic
  -1150.9660     50.5384     -0.0129
     50.5384   -775.5545     -0.0245
     -0.0129     -0.0245   -378.2974

        Total Shielding Tensor
   -738.8380     50.5086     -0.0129
     50.5086   -390.8673     -0.0245
     -0.0129     -0.0245      8.9698

           isotropic =    -373.5785
          anisotropy =    -558.6640

          Principal Components and Axis System
                 1           2           3
             -746.0212   -383.6841      8.9698

      1         0.9900      0.1408     -0.0000
      2        -0.1408      0.9900     -0.0001
      3         0.0000      0.0001      1.0000




                  ZORA g-Shift
                  ------------


             g-Shift Tensor (in ppm)
             -----------------------


int_init: setting std/high accuracies to  1.0D-32  1.0D-64
  int_init: cando_txs set to always be  F

 Read ZORA NMR data from ./cho_bp_props.zora_nmrgshift


 Read ZORA NMR data from ./cho_bp_props.zora_nmrgshift_AB

nocc=(  8,  7) nclos=(  0,  0) nvirt=( 36, 37) scftyp=UHF)
 coeffpol=   4.0000000000000000     
 Grid integrated density:      14.999999995285
 Requested integration accuracy:   0.10E-19
                                NWChem CPHF Module
                                ------------------



int_init: setting std/high accuracies to  1.0D-32  1.0D-64
  int_init: cando_txs set to always be  F
  scftype          =     UHF 
  nalpha           =        8
  nbeta            =        7
  variables        =      547
  # of vectors     =        3
  tolerance        = 0.10D-03
  level shift      = 0.00D+00
  max iterations   =       50
  max subspace     =       30

 Grid integrated density:      14.999999995285
 Requested integration accuracy:   0.10E-19
 SCF residual:    2.2912498553181249E-005


Iterative solution of linear equations
  No. of variables      547
  No. of equations        3
  Maximum subspace       30
        Iterations       50
       Convergence  1.0D-04
        Start time     18.8


   iter   nsub   residual    time
   ----  ------  --------  ---------
     1      3    1.99D-04      19.4
     2      6    2.53D-09      20.1

 Wrote CPHF data to ./cho_bp_props.zora_gshiftcphf


int_init: setting std/high accuracies to  1.0D-32  1.0D-64
  int_init: cando_txs set to always be  F
NW-1:(dia,gauge,OO,OV,Totpar)(1,1)=(   -2.375668     0.000000    -0.187929    -8.441948    -8.629876 )
NW-1:(dia,gauge,OO,OV,Totpar)(1,2)=(   -0.013062    -0.000000    -0.042445     1.122465     1.080020 )
NW-1:(dia,gauge,OO,OV,Totpar)(1,3)=(   -0.000000     0.000000    -0.000000     0.000000    -0.000000 )
NW-1:(dia,gauge,OO,OV,Totpar)(2,1)=(   -0.013757     0.000000    -0.031469     1.935164     1.903695 )
NW-1:(dia,gauge,OO,OV,Totpar)(2,2)=(   -2.470034     0.000000     0.125144    -3.676480    -3.551337 )
NW-1:(dia,gauge,OO,OV,Totpar)(2,3)=(   -0.000000    -0.000000     0.000000    -0.000000     0.000000 )
NW-1:(dia,gauge,OO,OV,Totpar)(3,1)=(   -0.000000    -0.294390     2.930308    -2.635789     0.000129 )
NW-1:(dia,gauge,OO,OV,Totpar)(3,2)=(   -0.000000    -0.918197     4.166873    -3.248532     0.000144 )
NW-1:(dia,gauge,OO,OV,Totpar)(3,3)=(   -2.471031     0.696228    -3.143700     2.217306    -0.230167 )
NW-2:(dia,gauge,OO,OV,Totpar)(1,1)=(   -2.342729     0.000000     0.004189    -0.334894    -0.330705 )
NW-2:(dia,gauge,OO,OV,Totpar)(1,2)=(   -0.002156     0.000000    -0.078131    -0.876956    -0.955087 )
NW-2:(dia,gauge,OO,OV,Totpar)(1,3)=(    0.000000    -0.000000     0.000000    -0.000000    -0.000000 )
NW-2:(dia,gauge,OO,OV,Totpar)(2,1)=(   -0.001097     0.000000    -0.061125    -0.356072    -0.417196 )
NW-2:(dia,gauge,OO,OV,Totpar)(2,2)=(   -2.425390     0.000000     0.127736    -3.021355    -2.893619 )
NW-2:(dia,gauge,OO,OV,Totpar)(2,3)=(   -0.000000    -0.000000     0.000000    -0.000000    -0.000000 )
NW-2:(dia,gauge,OO,OV,Totpar)(3,1)=(    0.000000     0.254154     0.058382    -0.312601    -0.000065 )
NW-2:(dia,gauge,OO,OV,Totpar)(3,2)=(   -0.000000     0.749813    -3.781867     3.031846    -0.000208 )
NW-2:(dia,gauge,OO,OV,Totpar)(3,3)=(   -2.432245    -0.584333     2.605755    -5.090055    -3.068634 )
NW-T:(dia,gauge,OO,OV,Totpar)(1,1)=(   -0.032938     0.000000    -0.192117    -8.107054    -8.299171 )
NW-T:(dia,gauge,OO,OV,Totpar)(1,2)=(   -0.011783    -0.000000     0.035686     1.999421     2.035107 )
NW-T:(dia,gauge,OO,OV,Totpar)(1,3)=(   -0.000000     0.000000    -0.000000     0.000000     0.000000 )
NW-T:(dia,gauge,OO,OV,Totpar)(2,1)=(   -0.011783     0.000000     0.029656     2.291235     2.320891 )
NW-T:(dia,gauge,OO,OV,Totpar)(2,2)=(   -0.044644     0.000000    -0.002592    -0.655126    -0.657718 )
NW-T:(dia,gauge,OO,OV,Totpar)(2,3)=(    0.000000    -0.000000     0.000000    -0.000000     0.000000 )
NW-T:(dia,gauge,OO,OV,Totpar)(3,1)=(   -0.000000    -0.548544     2.871926    -2.323188     0.000194 )
NW-T:(dia,gauge,OO,OV,Totpar)(3,2)=(    0.000000    -1.668010     7.948740    -6.280378     0.000352 )
NW-T:(dia,gauge,OO,OV,Totpar)(3,3)=(   -0.038787     1.280561    -5.749455     7.307361     2.838467 )
        Diamagnetic
     -0.0329     -0.0118     -0.0000
     -0.0118     -0.0446      0.0000
     -0.0000      0.0000     -0.0388

        Paramagnetic
     -8.2992      2.1780      0.0001
      2.1780     -0.6577      0.0002
      0.0001      0.0002      2.8385

        Total g shift Tensor
     -8.3321      2.1662      0.0001
      2.1662     -0.7024      0.0002
      0.0001      0.0002      2.7997

           isotropic =      -2.0783
          anisotropy =     -10.2390

          Principal Components and Axis System
                 1           2           3
               -8.9042      2.7997     -0.1302

      1         0.9668      0.0000      0.2554
      2        -0.2554      0.0001      0.9668
      3        -0.0000      1.0000     -0.0001




 Task  times  cpu:       19.5s     wall:       19.5s


                                NWChem Input Module
                                -------------------


 Summary of allocated global arrays
-----------------------------------
  array 0 => double precision dft_zora_Hyperfine: g_AtNr(1,2),  handle: -928 
  array 1 => double precision get_rhoS: g_AtNr(1,3),  handle: -926 


MA_summarize_allocated_blocks: starting scan ...
heap block 'gridpts', handle 125, address 0x563b4b732810:
	type of elements:		double precision
	number of elements:		49399122
	address of client space:	0x563b4b732880
	index for client space:		11108255
	total number of bytes:		395193096
MA_summarize_allocated_blocks: scan completed: 1 heap block, 0 stack blocks
MA usage statistics:

	allocation statistics:
					      heap	     stack
					      ----	     -----
	current number of blocks	         1	         0
	maximum number of blocks	        59	        79
	current total bytes		 395193096	         0
	maximum total bytes		 396072080	  22544008
	maximum total K-bytes		    396073	     22545
	maximum total M-bytes		       397	        23


                                     CITATION
                                     --------
                Please cite the following reference when publishing
                           results obtained with NWChem:

          E. Apra, E. J. Bylaska, W. A. de Jong, N. Govind, K. Kowalski,
       T. P. Straatsma, M. Valiev, H. J. J. van Dam, Y. Alexeev, J. Anchell,
       V. Anisimov, F. W. Aquino, R. Atta-Fynn, J. Autschbach, N. P. Bauman,
     J. C. Becca, D. E. Bernholdt, K. Bhaskaran-Nair, S. Bogatko, P. Borowski,
         J. Boschen, J. Brabec, A. Bruner, E. Cauet, Y. Chen, G. N. Chuev,
      C. J. Cramer, J. Daily, M. J. O. Deegan, T. H. Dunning Jr., M. Dupuis,
   K. G. Dyall, G. I. Fann, S. A. Fischer, A. Fonari, H. Fruchtl, L. Gagliardi,
      J. Garza, N. Gawande, S. Ghosh, K. Glaesemann, A. W. Gotz, J. Hammond,
       V. Helms, E. D. Hermes, K. Hirao, S. Hirata, M. Jacquelin, L. Jensen,
   B. G. Johnson, H. Jonsson, R. A. Kendall, M. Klemm, R. Kobayashi, V. Konkov,
      S. Krishnamoorthy, M. Krishnan, Z. Lin, R. D. Lins, R. J. Littlefield,
      A. J. Logsdail, K. Lopata, W. Ma, A. V. Marenich, J. Martin del Campo,
   D. Mejia-Rodriguez, J. E. Moore, J. M. Mullin, T. Nakajima, D. R. Nascimento,
    J. A. Nichols, P. J. Nichols, J. Nieplocha, A. Otero-de-la-Roza, B. Palmer,
    A. Panyala, T. Pirojsirikul, B. Peng, R. Peverati, J. Pittner, L. Pollack,
   R. M. Richard, P. Sadayappan, G. C. Schatz, W. A. Shelton, D. W. Silverstein,
   D. M. A. Smith, T. A. Soares, D. Song, M. Swart, H. L. Taylor, G. S. Thomas,
            V. Tipparaju, D. G. Truhlar, K. Tsemekhman, T. Van Voorhis,
      A. Vazquez-Mayagoitia, P. Verma, O. Villa, A. Vishnu, K. D. Vogiatzis,
        D. Wang, J. H. Weare, M. J. Williamson, T. L. Windus, K. Wolinski,
        A. T. Wong, Q. Wu, C. Yang, Q. Yu, M. Zacharias, Z. Zhang, Y. Zhao,
                                and R. J. Harrison
                        "NWChem: Past, present, and future
                         J. Chem. Phys. 152, 184102 (2020)
                               doi:10.1063/5.0004997

                                      AUTHORS
                                      -------
  E. Apra, E. J. Bylaska, N. Govind, K. Kowalski, M. Valiev, D. Mejia-Rodriguez,
       A. Kunitsa, N. P. Bauman, A. Panyala, W. A. de Jong, T. P. Straatsma,
   H. J. J. van Dam, D. Wang, T. L. Windus, J. Hammond, J. Autschbach, A. Woods,
    K. Bhaskaran-Nair, J. Brabec, K. Lopata, S. A. Fischer, S. Krishnamoorthy,
     M. Jacquelin, W. Ma, M. Klemm, O. Villa, Y. Chen, V. Anisimov, F. Aquino,
     S. Hirata, M. T. Hackler, E. Hermes, L. Jensen, J. E. Moore, J. C. Becca,
      V. Konjkov, T. Risthaus, M. Malagoli, A. Marenich, A. Otero-de-la-Roza,
        J. Mullin, P. Nichols, R. Peverati, J. Pittner, Y. Zhao, P.-D. Fan,
        A. Fonari, M. J. Williamson, R. J. Harrison, J. R. Rehr, M. Dupuis,
     D. Silverstein, D. M. A. Smith, J. Nieplocha, V. Tipparaju, M. Krishnan,
     B. E. Van Kuiken, A. Vazquez-Mayagoitia, M. Swart, Q. Wu, T. Van Voorhis,
     A. A. Auer, M. Nooijen, L. D. Crosby, E. Brown, G. Cisneros, G. I. Fann,
   H. Fruchtl, J. Garza, K. Hirao, R. A. Kendall, J. A. Nichols, K. Tsemekhman,
    K. Wolinski, J. Anchell, D. E. Bernholdt, P. Borowski, T. Clark, D. Clerc,
   H. Dachsel, M. J. O. Deegan, K. Dyall, D. Elwood, E. Glendening, M. Gutowski,
   A. C. Hess, J. Jaffe, B. G. Johnson, J. Ju, R. Kobayashi, R. Kutteh, Z. Lin,
   R. Littlefield, X. Long, B. Meng, T. Nakajima, S. Niu, L. Pollack, M. Rosing,
   K. Glaesemann, G. Sandrone, M. Stave, H. Taylor, G. Thomas, J. H. van Lenthe,
                               A. T. Wong, Z. Zhang.

 Total times  cpu:       20.9s     wall:       20.9s
